GROningen MAchine for Chemical Simulation
95940
    1G5    HO5'    1   5.785   6.417   6.665
    1G5     O5'    2   5.777   6.451   6.755
    1G5     C5'    3   5.653   6.520   6.775
    1G5     H5'    4   5.657   6.548   6.880
    1G5    H5''    5   5.573   6.447   6.763
    1G5     C4'    6   5.639   6.640   6.697
    1G5     H4'    7   5.544   6.682   6.730
    1G5     O4'    8   5.728   6.743   6.729
    1G5     C1'    9   5.749   6.832   6.617
    1G5     H1'   10   5.716   6.933   6.642
    1G5      N9   11   5.895   6.825   6.575
    1G5      C8   12   6.000   6.740   6.611
    1G5      H8   13   5.984   6.648   6.665
    1G5      N7   14   6.117   6.772   6.566
    1G5      C5   15   6.091   6.884   6.491
    1G5      C6   16   6.176   6.965   6.401
    1G5      O6   17   6.289   6.946   6.370
    1G5      N1   18   6.112   7.074   6.342
    1G5      H1   19   6.172   7.140   6.295
    1G5      C2   20   5.982   7.097   6.363
    1G5      N2   21   5.943   7.216   6.320
    1G5     H21   22   6.016   7.281   6.296
    1G5     H22   23   5.853   7.254   6.346
    1G5      N3   24   5.898   7.034   6.441
    1G5      C4   25   5.956   6.922   6.502
    1G5     C3'   26   5.635   6.625   6.541
    1G5     H3'   27   5.717   6.562   6.504
    1G5     C2'   28   5.653   6.779   6.511
    1G5     H2'   29   5.709   6.787   6.418
    1G5     O2'   30   5.535   6.859   6.508
    1G5    HO2'   31   5.461   6.800   6.493
    1G5     O3'   32   5.507   6.580   6.494
    2G        P   33   5.498   6.499   6.366
    2G      OP1   34   5.352   6.473   6.343
    2G      OP2   35   5.590   6.384   6.367
    2G      O5'   36   5.548   6.596   6.253
    2G      C5'   37   5.470   6.693   6.191
    2G      H5'   38   5.418   6.763   6.258
    2G     H5''   39   5.393   6.641   6.134
    2G      C4'   40   5.564   6.770   6.094
    2G      H4'   41   5.501   6.843   6.044
    2G      O4'   42   5.668   6.844   6.155
    2G      C1'   43   5.778   6.863   6.070
    2G      H1'   44   5.810   6.964   6.047
    2G       N9   45   5.895   6.796   6.137
    2G       C8   46   5.903   6.693   6.238
    2G       H8   47   5.816   6.647   6.282
    2G       N7   48   6.024   6.649   6.260
    2G       C5   49   6.105   6.725   6.171
    2G       C6   50   6.250   6.735   6.150
    2G       O6   51   6.332   6.668   6.202
    2G       N1   52   6.285   6.828   6.058
    2G       H1   53   6.383   6.822   6.035
    2G       C2   54   6.196   6.901   5.990
    2G       N2   55   6.240   6.976   5.889
    2G      H21   56   6.337   6.976   5.863
    2G      H22   57   6.175   7.034   5.838
    2G       N3   58   6.067   6.905   6.010
    2G       C4   59   6.023   6.819   6.106
    2G      C3'   60   5.640   6.677   5.993
    2G      H3'   61   5.694   6.602   6.052
    2G      C2'   62   5.742   6.784   5.947
    2G      H2'   63   5.825   6.728   5.905
    2G      O2'   64   5.686   6.862   5.839
    2G     HO2'   65   5.692   6.800   5.766
    2G      O3'   66   5.559   6.622   5.893
    3G        P   67   5.565   6.475   5.839
    3G      OP1   68   5.434   6.452   5.772
    3G      OP2   69   5.607   6.380   5.942
    3G      O5'   70   5.675   6.484   5.728
    3G      C5'   71   5.658   6.551   5.607
    3G      H5'   72   5.617   6.650   5.625
    3G     H5''   73   5.584   6.495   5.550
    3G      C4'   74   5.793   6.565   5.537
    3G      H4'   75   5.784   6.615   5.441
    3G      O4'   76   5.876   6.636   5.631
    3G      C1'   77   6.014   6.597   5.604
    3G      H1'   78   6.075   6.681   5.570
    3G       N9   79   6.071   6.539   5.724
    3G       C8   80   6.003   6.494   5.835
    3G       H8   81   5.895   6.495   5.844
    3G       N7   82   6.090   6.450   5.929
    3G       C5   83   6.216   6.468   5.878
    3G       C6   84   6.348   6.445   5.930
    3G       O6   85   6.373   6.395   6.034
    3G       N1   86   6.444   6.465   5.836
    3G       H1   87   6.537   6.461   5.877
    3G       C2   88   6.422   6.503   5.709
    3G       N2   89   6.527   6.522   5.636
    3G      H21   90   6.619   6.498   5.670
    3G      H22   91   6.503   6.540   5.539
    3G       N3   92   6.306   6.534   5.659
    3G       C4   93   6.204   6.515   5.747
    3G      C3'   94   5.863   6.435   5.512
    3G      H3'   95   5.854   6.372   5.600
    3G      C2'   96   6.003   6.481   5.496
    3G      H2'   97   6.077   6.402   5.511
    3G      O2'   98   6.025   6.547   5.369
    3G     HO2'   99   5.985   6.495   5.299
    3G      O3'  100   5.814   6.379   5.391
    4U        P  101   5.779   6.220   5.397
    4U      OP1  102   5.704   6.184   5.272
    4U      OP2  103   5.711   6.192   5.525
    4U      O5'  104   5.921   6.147   5.392
    4U      C5'  105   6.001   6.149   5.275
    4U      H5'  106   6.001   6.245   5.222
    4U     H5''  107   5.965   6.075   5.203
    4U      C4'  108   6.148   6.128   5.316
    4U      H4'  109   6.211   6.136   5.228
    4U      O4'  110   6.184   6.222   5.418
    4U      C1'  111   6.269   6.153   5.507
    4U      H1'  112   6.365   6.202   5.520
    4U       N1  113   6.214   6.154   5.646
    4U       C6  114   6.080   6.157   5.672
    4U       H6  115   6.003   6.170   5.597
    4U       C5  116   6.032   6.137   5.800
    4U       H5  117   5.928   6.145   5.827
    4U       C4  118   6.131   6.120   5.908
    4U       O4  119   6.106   6.118   6.026
    4U       N3  120   6.259   6.125   5.873
    4U       H3  121   6.319   6.153   5.949
    4U       C2  122   6.308   6.141   5.746
    4U       O2  123   6.427   6.137   5.737
    4U      C3'  124   6.167   5.981   5.375
    4U      H3'  125   6.076   5.961   5.431
    4U      C2'  126   6.288   6.003   5.465
    4U      H2'  127   6.288   5.932   5.547
    4U      O2'  128   6.416   5.991   5.397
    4U     HO2'  129   6.401   5.972   5.304
    4U      O3'  130   6.188   5.891   5.270
    5U        P  131   6.188   5.735   5.293
    5U      OP1  132   6.172   5.676   5.155
    5U      OP2  133   6.087   5.708   5.392
    5U      O5'  134   6.335   5.690   5.355
    5U      C5'  135   6.447   5.684   5.271
    5U      H5'  136   6.462   5.784   5.228
    5U     H5''  137   6.426   5.610   5.194
    5U      C4'  138   6.577   5.637   5.332
    5U      H4'  139   6.641   5.617   5.246
    5U      O4'  140   6.639   5.733   5.418
    5U      C1'  141   6.690   5.659   5.533
    5U      H1'  142   6.791   5.694   5.552
    5U       N1  143   6.616   5.692   5.657
    5U       C6  144   6.511   5.778   5.655
    5U       H6  145   6.479   5.807   5.556
    5U       C5  146   6.452   5.813   5.777
    5U       H5  147   6.374   5.888   5.767
    5U       C4  148   6.496   5.759   5.901
    5U       O4  149   6.443   5.791   6.012
    5U       N3  150   6.605   5.681   5.892
    5U       H3  151   6.626   5.628   5.976
    5U       C2  152   6.667   5.641   5.776
    5U       O2  153   6.763   5.570   5.785
    5U      C3'  154   6.548   5.509   5.412
    5U      H3'  155   6.458   5.524   5.471
    5U      C2'  156   6.679   5.505   5.499
    5U      H2'  157   6.660   5.437   5.581
    5U      O2'  158   6.784   5.472   5.416
    5U     HO2'  159   6.750   5.411   5.349
    5U      O3'  160   6.528   5.400   5.330
    6A        P  161   6.433   5.279   5.376
    6A      OP1  162   6.472   5.159   5.295
    6A      OP2  163   6.297   5.331   5.376
    6A      O5'  164   6.471   5.257   5.535
    6A      C5'  165   6.580   5.180   5.564
    6A      H5'  166   6.659   5.224   5.502
    6A     H5''  167   6.563   5.077   5.535
    6A      C4'  168   6.596   5.174   5.717
    6A      H4'  169   6.679   5.109   5.745
    6A      O4'  170   6.627   5.297   5.780
    6A      C1'  171   6.545   5.315   5.905
    6A      H1'  172   6.602   5.359   5.987
    6A       N9  173   6.432   5.406   5.879
    6A       C8  174   6.397   5.456   5.757
    6A       H8  175   6.448   5.437   5.664
    6A       N7  176   6.303   5.548   5.763
    6A       C5  177   6.270   5.548   5.899
    6A       C6  178   6.181   5.622   5.982
    6A       N6  179   6.097   5.722   5.941
    6A      H61  180   6.044   5.763   6.017
    6A      H62  181   6.113   5.770   5.853
    6A       N1  182   6.176   5.609   6.111
    6A       C2  183   6.264   5.521   6.164
    6A       H2  184   6.252   5.513   6.271
    6A       N3  185   6.361   5.452   6.104
    6A       C4  186   6.352   5.465   5.969
    6A      C3'  187   6.474   5.111   5.793
    6A      H3'  188   6.380   5.142   5.747
    6A      C2'  189   6.493   5.174   5.930
    6A      H2'  190   6.404   5.173   5.994
    6A      O2'  191   6.589   5.100   5.999
    6A     HO2'  192   6.566   5.097   6.093
    6A      O3'  193   6.472   4.970   5.802
    7G        P  194   6.340   4.890   5.757
    7G      OP1  195   6.348   4.743   5.763
    7G      OP2  196   6.289   4.952   5.640
    7G      O5'  197   6.243   4.930   5.871
    7G      C5'  198   6.267   4.907   6.009
    7G      H5'  199   6.359   4.952   6.044
    7G     H5''  200   6.271   4.800   6.029
    7G      C4'  201   6.153   4.967   6.093
    7G      H4'  202   6.166   4.927   6.193
    7G      O4'  203   6.163   5.106   6.107
    7G      C1'  204   6.037   5.170   6.087
    7G      H1'  205   6.007   5.235   6.169
    7G       N9  206   6.031   5.243   5.954
    7G       C8  207   6.110   5.223   5.839
    7G       H8  208   6.185   5.146   5.841
    7G       N7  209   6.085   5.310   5.745
    7G       C5  210   5.990   5.396   5.803
    7G       C6  211   5.924   5.510   5.754
    7G       O6  212   5.925   5.554   5.637
    7G       N1  213   5.843   5.572   5.849
    7G       H1  214   5.798   5.658   5.821
    7G       C2  215   5.819   5.517   5.969
    7G       N2  216   5.738   5.589   6.030
    7G      H21  217   5.716   5.685   6.008
    7G      H22  218   5.704   5.551   6.117
    7G       N3  219   5.867   5.403   6.019
    7G       C4  220   5.954   5.352   5.932
    7G      C3'  221   6.008   4.939   6.033
    7G      H3'  222   6.008   4.950   5.925
    7G      C2'  223   5.936   5.059   6.097
    7G      H2'  224   5.843   5.084   6.044
    7G      O2'  225   5.916   5.044   6.238
    7G     HO2'  226   5.879   4.958   6.256
    7G      O3'  227   5.958   4.816   6.072
    8G        P  228   5.839   4.749   5.993
    8G      OP1  229   5.797   4.629   6.074
    8G      OP2  230   5.891   4.725   5.861
    8G      O5'  231   5.718   4.842   5.971
    8G      C5'  232   5.606   4.851   6.052
    8G      H5'  233   5.631   4.877   6.155
    8G     H5''  234   5.544   4.761   6.049
    8G      C4'  235   5.523   4.969   6.015
    8G      H4'  236   5.445   4.982   6.089
    8G      O4'  237   5.603   5.082   6.005
    8G      C1'  238   5.562   5.167   5.899
    8G      H1'  239   5.544   5.270   5.928
    8G       N9  240   5.665   5.181   5.797
    8G       C8  241   5.756   5.089   5.753
    8G       H8  242   5.768   4.990   5.795
    8G       N7  243   5.825   5.122   5.652
    8G       C5  244   5.764   5.243   5.605
    8G       C6  245   5.784   5.318   5.492
    8G       O6  246   5.866   5.284   5.406
    8G       N1  247   5.707   5.426   5.480
    8G       H1  248   5.694   5.453   5.384
    8G       C2  249   5.612   5.464   5.573
    8G       N2  250   5.531   5.562   5.533
    8G      H21  251   5.555   5.618   5.453
    8G      H22  252   5.444   5.567   5.585
    8G       N3  253   5.582   5.390   5.684
    8G       C4  254   5.663   5.278   5.695
    8G      C3'  255   5.469   4.950   5.871
    8G      H3'  256   5.548   4.903   5.812
    8G      C2'  257   5.443   5.092   5.839
    8G      H2'  258   5.433   5.100   5.731
    8G      O2'  259   5.316   5.128   5.899
    8G     HO2'  260   5.274   5.043   5.912
    8G      O3'  261   5.347   4.872   5.869
    9G        P  262   5.320   4.769   5.753
    9G      OP1  263   5.202   4.680   5.786
    9G      OP2  264   5.447   4.715   5.707
    9G      O5'  265   5.272   4.876   5.637
    9G      C5'  266   5.148   4.933   5.645
    9G      H5'  267   5.123   4.963   5.746
    9G     H5''  268   5.071   4.864   5.611
    9G      C4'  269   5.138   5.063   5.559
    9G      H4'  270   5.046   5.114   5.586
    9G      O4'  271   5.252   5.149   5.579
    9G      C1'  272   5.302   5.196   5.449
    9G      H1'  273   5.297   5.305   5.455
    9G       N9  274   5.437   5.150   5.417
    9G       C8  275   5.512   5.052   5.477
    9G       H8  276   5.478   4.989   5.558
    9G       N7  277   5.624   5.030   5.406
    9G       C5  278   5.616   5.118   5.304
    9G       C6  279   5.712   5.147   5.201
    9G       O6  280   5.826   5.093   5.181
    9G       N1  281   5.676   5.244   5.111
    9G       H1  282   5.740   5.263   5.035
    9G       C2  283   5.553   5.310   5.115
    9G       N2  284   5.521   5.382   5.004
    9G      H21  285   5.584   5.375   4.926
    9G      H22  286   5.438   5.439   5.005
    9G       N3  287   5.465   5.292   5.212
    9G       C4  288   5.502   5.194   5.303
    9G      C3'  289   5.140   5.027   5.416
    9G      H3'  290   5.211   4.945   5.410
    9G      C2'  291   5.193   5.154   5.352
    9G      H2'  292   5.230   5.145   5.250
    9G      O2'  293   5.096   5.259   5.347
    9G     HO2'  294   5.029   5.251   5.415
    9G      O3'  295   5.009   4.994   5.381
   10U        P  296   4.975   4.923   5.248
   10U      OP1  297   4.827   4.945   5.224
   10U      OP2  298   5.017   4.779   5.259
   10U      O5'  299   5.046   4.978   5.112
   10U      C5'  300   4.985   5.078   5.037
   10U      H5'  301   4.980   5.170   5.095
   10U     H5''  302   4.892   5.039   4.997
   10U      C4'  303   5.070   5.121   4.920
   10U      H4'  304   5.024   5.206   4.870
   10U      O4'  305   5.200   5.150   4.974
   10U      C1'  306   5.298   5.126   4.869
   10U      H1'  307   5.335   5.215   4.819
   10U       N1  308   5.409   5.034   4.922
   10U       C6  309   5.387   4.954   5.033
   10U       H6  310   5.296   4.969   5.089
   10U       C5  311   5.477   4.865   5.077
   10U       H5  312   5.455   4.811   5.168
   10U       C4  313   5.610   4.846   5.007
   10U       O4  314   5.693   4.764   5.034
   10U       N3  315   5.620   4.929   4.899
   10U       H3  316   5.710   4.930   4.852
   10U       C2  317   5.532   5.028   4.860
   10U       O2  318   5.565   5.106   4.775
   10U      C3'  319   5.100   4.999   4.834
   10U      H3'  320   5.121   4.915   4.900
   10U      C2'  321   5.225   5.049   4.756
   10U      H2'  322   5.287   4.966   4.722
   10U      O2'  323   5.197   5.149   4.663
   10U     HO2'  324   5.141   5.109   4.596
   10U      O3'  325   4.991   4.982   4.738
   11U        P  326   4.965   4.830   4.679
   11U      OP1  327   4.854   4.835   4.584
   11U      OP2  328   4.959   4.737   4.792
   11U      O5'  329   5.112   4.806   4.608
   11U      C5'  330   5.130   4.836   4.473
   11U      H5'  331   5.122   4.944   4.457
   11U     H5''  332   5.048   4.792   4.417
   11U      C4'  333   5.269   4.787   4.432
   11U      H4'  334   5.289   4.810   4.327
   11U      O4'  335   5.370   4.821   4.528
   11U      C1'  336   5.461   4.714   4.546
   11U      H1'  337   5.567   4.733   4.530
   11U       N1  338   5.464   4.662   4.690
   11U       C6  339   5.351   4.639   4.761
   11U       H6  340   5.256   4.681   4.730
   11U       C5  341   5.357   4.582   4.885
   11U       H5  342   5.265   4.576   4.942
   11U       C4  343   5.473   4.524   4.939
   11U       O4  344   5.478   4.454   5.041
   11U       N3  345   5.580   4.542   4.860
   11U       H3  346   5.661   4.484   4.874
   11U       C2  347   5.588   4.608   4.741
   11U       O2  348   5.699   4.622   4.694
   11U      C3'  349   5.271   4.636   4.432
   11U      H3'  350   5.208   4.595   4.511
   11U      C2'  351   5.417   4.596   4.457
   11U      H2'  352   5.424   4.498   4.503
   11U      O2'  353   5.503   4.620   4.345
   11U     HO2'  354   5.460   4.599   4.263
   11U      O3'  355   5.223   4.574   4.311
   12A        P  356   5.158   4.435   4.322
   12A      OP1  357   5.107   4.407   4.190
   12A      OP2  358   5.070   4.431   4.440
   12A      O5'  359   5.276   4.336   4.348
   12A      C5'  360   5.374   4.297   4.255
   12A      H5'  361   5.436   4.382   4.228
   12A     H5''  362   5.327   4.261   4.163
   12A      C4'  363   5.463   4.189   4.308
   12A      H4'  364   5.551   4.177   4.245
   12A      O4'  365   5.511   4.227   4.438
   12A      C1'  366   5.553   4.108   4.504
   12A      H1'  367   5.660   4.088   4.511
   12A       N9  368   5.489   4.113   4.636
   12A       C8  369   5.417   4.215   4.690
   12A       H8  370   5.396   4.302   4.630
   12A       N7  371   5.375   4.197   4.811
   12A       C5  372   5.437   4.075   4.849
   12A       C6  373   5.442   4.002   4.965
   12A       N6  374   5.395   4.044   5.083
   12A      H61  375   5.396   3.992   5.169
   12A      H62  376   5.352   4.135   5.088
   12A       N1  377   5.511   3.888   4.968
   12A       C2  378   5.579   3.848   4.864
   12A       H2  379   5.638   3.757   4.863
   12A       N3  380   5.579   3.911   4.742
   12A       C4  381   5.509   4.027   4.745
   12A      C3'  382   5.389   4.057   4.335
   12A      H3'  383   5.305   4.086   4.398
   12A      C2'  384   5.493   3.986   4.424
   12A      H2'  385   5.462   3.896   4.477
   12A      O2'  386   5.613   3.941   4.359
   12A     HO2'  387   5.649   3.880   4.425
   12A      O3'  388   5.342   3.978   4.227
   13G        P  389   5.215   3.888   4.251
   13G      OP1  390   5.180   3.821   4.123
   13G      OP2  391   5.107   3.968   4.314
   13G      O5'  392   5.262   3.774   4.358
   13G      C5'  393   5.358   3.669   4.329
   13G      H5'  394   5.450   3.714   4.294
   13G     H5''  395   5.322   3.611   4.245
   13G      C4'  396   5.389   3.593   4.455
   13G      H4'  397   5.470   3.522   4.437
   13G      O4'  398   5.430   3.681   4.558
   13G      C1'  399   5.371   3.642   4.677
   13G      H1'  400   5.450   3.621   4.749
   13G       N9  401   5.280   3.743   4.736
   13G       C8  402   5.229   3.855   4.672
   13G       H8  403   5.256   3.876   4.570
   13G       N7  404   5.152   3.935   4.738
   13G       C5  405   5.145   3.875   4.863
   13G       C6  406   5.082   3.913   4.982
   13G       O6  407   5.016   4.017   5.002
   13G       N1  408   5.068   3.811   5.073
   13G       H1  409   5.009   3.825   5.154
   13G       C2  410   5.133   3.694   5.053
   13G       N2  411   5.134   3.617   5.159
   13G      H21  412   5.093   3.656   5.242
   13G      H22  413   5.183   3.529   5.156
   13G       N3  414   5.211   3.656   4.957
   13G       C4  415   5.210   3.750   4.855
   13G      C3'  416   5.258   3.524   4.511
   13G      H3'  417   5.171   3.591   4.507
   13G      C2'  418   5.301   3.511   4.654
   13G      H2'  419   5.217   3.488   4.719
   13G      O2'  420   5.392   3.410   4.669
   13G     HO2'  421   5.387   3.373   4.581
   13G      O3'  422   5.225   3.401   4.452
   14G        P  423   5.086   3.376   4.397
   14G      OP1  424   5.092   3.264   4.302
   14G      OP2  425   5.031   3.499   4.356
   14G      O5'  426   4.997   3.330   4.520
   14G      C5'  427   5.024   3.207   4.592
   14G      H5'  428   5.131   3.183   4.595
   14G     H5''  429   4.969   3.128   4.541
   14G      C4'  430   4.971   3.230   4.736
   14G      H4'  431   4.980   3.138   4.794
   14G      O4'  432   5.031   3.337   4.806
   14G      C1'  433   4.929   3.407   4.881
   14G      H1'  434   4.951   3.424   4.986
   14G       N9  435   4.897   3.538   4.826
   14G       C8  436   4.936   3.599   4.704
   14G       H8  437   4.987   3.543   4.627
   14G       N7  438   4.904   3.726   4.688
   14G       C5  439   4.833   3.753   4.811
   14G       C6  440   4.773   3.872   4.853
   14G       O6  441   4.756   3.976   4.789
   14G       N1  442   4.726   3.862   4.985
   14G       H1  443   4.658   3.929   5.016
   14G       C2  444   4.734   3.748   5.050
   14G       N2  445   4.670   3.745   5.166
   14G      H21  446   4.632   3.831   5.204
   14G      H22  447   4.675   3.661   5.222
   14G       N3  448   4.781   3.630   5.014
   14G       C4  449   4.830   3.638   4.889
   14G      C3'  450   4.822   3.260   4.736
   14G      H3'  451   4.804   3.340   4.665
   14G      C2'  452   4.804   3.316   4.875
   14G      H2'  453   4.716   3.378   4.892
   14G      O2'  454   4.809   3.214   4.973
   14G     HO2'  455   4.898   3.194   5.003
   14G      O3'  456   4.740   3.147   4.726
   15G        P  457   4.597   3.154   4.656
   15G      OP1  458   4.535   3.020   4.664
   15G      OP2  459   4.598   3.209   4.520
   15G      O5'  460   4.517   3.263   4.748
   15G      C5'  461   4.454   3.225   4.873
   15G      H5'  462   4.533   3.175   4.928
   15G     H5''  463   4.365   3.167   4.846
   15G      C4'  464   4.397   3.351   4.939
   15G      H4'  465   4.359   3.318   5.036
   15G      O4'  466   4.499   3.452   4.960
   15G      C1'  467   4.445   3.582   4.927
   15G      H1'  468   4.464   3.652   5.009
   15G       N9  469   4.491   3.642   4.800
   15G       C8  470   4.558   3.580   4.692
   15G       H8  471   4.586   3.476   4.694
   15G       N7  472   4.593   3.661   4.594
   15G       C5  473   4.529   3.781   4.629
   15G       C6  474   4.508   3.906   4.555
   15G       O6  475   4.539   3.935   4.437
   15G       N1  476   4.449   4.002   4.632
   15G       H1  477   4.435   4.086   4.578
   15G       C2  478   4.395   3.978   4.759
   15G       N2  479   4.318   4.075   4.813
   15G      H21  480   4.286   4.157   4.764
   15G      H22  481   4.319   4.072   4.914
   15G       N3  482   4.418   3.870   4.829
   15G       C4  483   4.483   3.774   4.759
   15G      C3'  484   4.286   3.432   4.863
   15G      H3'  485   4.306   3.437   4.756
   15G      C2'  486   4.293   3.569   4.916
   15G      H2'  487   4.251   3.640   4.845
   15G      O2'  488   4.231   3.575   5.045
   15G     HO2'  489   4.208   3.666   5.068
   15G      O3'  490   4.155   3.375   4.864
   16U        P  491   4.060   3.390   4.738
   16U      OP1  492   3.944   3.310   4.783
   16U      OP2  493   4.125   3.360   4.609
   16U      O5'  494   4.020   3.545   4.728
   16U      C5'  495   3.961   3.620   4.836
   16U      H5'  496   4.019   3.610   4.928
   16U     H5''  497   3.860   3.589   4.865
   16U      C4'  498   3.968   3.767   4.796
   16U      H4'  499   3.954   3.826   4.887
   16U      O4'  500   4.093   3.808   4.743
   16U      C1'  501   4.067   3.897   4.634
   16U      H1'  502   4.105   3.988   4.681
   16U       N1  503   4.153   3.869   4.520
   16U       C6  504   4.182   3.742   4.478
   16U       H6  505   4.157   3.656   4.538
   16U       C5  506   4.254   3.716   4.363
   16U       H5  507   4.292   3.616   4.351
   16U       C4  508   4.289   3.820   4.272
   16U       O4  509   4.346   3.798   4.165
   16U       N3  510   4.260   3.944   4.315
   16U       H3  511   4.276   4.026   4.258
   16U       C2  512   4.203   3.977   4.442
   16U       O2  513   4.198   4.094   4.468
   16U      C3'  514   3.859   3.786   4.691
   16U      H3'  515   3.837   3.699   4.629
   16U      C2'  516   3.918   3.905   4.608
   16U      H2'  517   3.893   3.894   4.502
   16U      O2'  518   3.868   4.027   4.658
   16U     HO2'  519   3.774   4.008   4.666
   16U      O3'  520   3.736   3.824   4.758
   17U        P  521   3.602   3.831   4.676
   17U      OP1  522   3.497   3.770   4.754
   17U      OP2  523   3.629   3.775   4.543
   17U      O5'  524   3.584   3.989   4.677
   17U      C5'  525   3.520   4.052   4.791
   17U      H5'  526   3.573   4.022   4.881
   17U     H5''  527   3.421   4.007   4.801
   17U      C4'  528   3.511   4.204   4.763
   17U      H4'  529   3.465   4.251   4.850
   17U      O4'  530   3.629   4.276   4.735
   17U      C1'  531   3.626   4.330   4.596
   17U      H1'  532   3.674   4.427   4.602
   17U       N1  533   3.715   4.246   4.507
   17U       C6  534   3.678   4.132   4.441
   17U       H6  535   3.579   4.096   4.464
   17U       C5  536   3.749   4.062   4.358
   17U       H5  537   3.705   3.970   4.324
   17U       C4  538   3.880   4.108   4.322
   17U       O4  539   3.949   4.046   4.241
   17U       N3  540   3.925   4.221   4.396
   17U       H3  541   4.017   4.253   4.368
   17U       C2  542   3.852   4.290   4.494
   17U       O2  543   3.903   4.381   4.557
   17U      C3'  544   3.421   4.220   4.645
   17U      H3'  545   3.418   4.138   4.574
   17U      C2'  546   3.482   4.347   4.572
   17U      H2'  547   3.457   4.342   4.466
   17U      O2'  548   3.438   4.475   4.624
   17U     HO2'  549   3.465   4.488   4.715
   17U      O3'  550   3.288   4.246   4.684
   18A        P  551   3.161   4.175   4.625
   18A      OP1  552   3.053   4.177   4.724
   18A      OP2  553   3.213   4.044   4.570
   18A      O5'  554   3.133   4.274   4.504
   18A      C5'  555   3.050   4.388   4.533
   18A      H5'  556   3.099   4.445   4.612
   18A     H5''  557   2.951   4.359   4.566
   18A      C4'  558   3.040   4.486   4.411
   18A      H4'  559   2.974   4.568   4.441
   18A      O4'  560   3.177   4.535   4.392
   18A      C1'  561   3.209   4.534   4.249
   18A      H1'  562   3.248   4.630   4.214
   18A       N9  563   3.309   4.434   4.199
   18A       C8  564   3.314   4.303   4.226
   18A       H8  565   3.230   4.254   4.274
   18A       N7  566   3.425   4.242   4.188
   18A       C5  567   3.497   4.352   4.135
   18A       C6  568   3.623   4.365   4.074
   18A       N6  569   3.714   4.268   4.074
   18A      H61  570   3.807   4.285   4.040
   18A      H62  571   3.687   4.175   4.103
   18A       N1  572   3.669   4.483   4.031
   18A       C2  573   3.594   4.585   4.046
   18A       H2  574   3.631   4.678   4.006
   18A       N3  575   3.467   4.591   4.091
   18A       C4  576   3.429   4.468   4.131
   18A      C3'  577   2.992   4.427   4.293
   18A      H3'  578   3.005   4.319   4.291
   18A      C2'  579   3.075   4.501   4.184
   18A      H2'  580   3.080   4.428   4.102
   18A      O2'  581   3.013   4.618   4.145
   18A     HO2'  582   2.946   4.594   4.082
   18A      O3'  583   2.853   4.444   4.260
   19G        P  584   2.783   4.359   4.140
   19G      OP1  585   2.632   4.358   4.162
   19G      OP2  586   2.852   4.233   4.117
   19G      O5'  587   2.803   4.456   4.012
   19G      C5'  588   2.712   4.571   3.991
   19G      H5'  589   2.706   4.640   4.075
   19G     H5''  590   2.609   4.537   3.977
   19G      C4'  591   2.765   4.651   3.868
   19G      H4'  592   2.713   4.746   3.868
   19G      O4'  593   2.907   4.677   3.887
   19G      C1'  594   2.967   4.666   3.764
   19G      H1'  595   3.019   4.756   3.731
   19G       N9  596   3.072   4.557   3.766
   19G       C8  597   3.056   4.424   3.812
   19G       H8  598   2.960   4.381   3.838
   19G       N7  599   3.167   4.357   3.823
   19G       C5  600   3.267   4.445   3.783
   19G       C6  601   3.410   4.420   3.778
   19G       O6  602   3.474   4.314   3.807
   19G       N1  603   3.473   4.530   3.733
   19G       H1  604   3.571   4.525   3.709
   19G       C2  605   3.411   4.645   3.691
   19G       N2  606   3.491   4.748   3.663
   19G      H21  607   3.592   4.744   3.660
   19G      H22  608   3.447   4.835   3.636
   19G       N3  609   3.284   4.681   3.698
   19G       C4  610   3.216   4.567   3.751
   19G      C3'  611   2.756   4.572   3.737
   19G      H3'  612   2.779   4.466   3.746
   19G      C2'  613   2.869   4.625   3.652
   19G      H2'  614   2.918   4.562   3.578
   19G      O2'  615   2.814   4.737   3.601
   19G     HO2'  616   2.727   4.713   3.567
   19G      O3'  617   2.624   4.596   3.692
   20G        P  618   2.560   4.501   3.574
   20G      OP1  619   2.411   4.522   3.566
   20G      OP2  620   2.613   4.363   3.585
   20G      O5'  621   2.625   4.566   3.443
   20G      C5'  622   2.571   4.692   3.394
   20G      H5'  623   2.558   4.758   3.479
   20G     H5''  624   2.468   4.674   3.362
   20G      C4'  625   2.656   4.757   3.282
   20G      H4'  626   2.603   4.851   3.272
   20G      O4'  627   2.795   4.796   3.315
   20G      C1'  628   2.886   4.752   3.217
   20G      H1'  629   2.954   4.823   3.171
   20G       N9  630   2.965   4.639   3.270
   20G       C8  631   2.931   4.506   3.304
   20G       H8  632   2.832   4.464   3.301
   20G       N7  633   3.029   4.430   3.345
   20G       C5  634   3.136   4.521   3.340
   20G       C6  635   3.269   4.492   3.373
   20G       O6  636   3.322   4.385   3.406
   20G       N1  637   3.343   4.607   3.392
   20G       H1  638   3.443   4.601   3.408
   20G       C2  639   3.303   4.726   3.345
   20G       N2  640   3.386   4.818   3.334
   20G      H21  641   3.482   4.802   3.359
   20G      H22  642   3.360   4.900   3.281
   20G       N3  643   3.179   4.754   3.304
   20G       C4  644   3.096   4.648   3.309
   20G      C3'  645   2.660   4.675   3.156
   20G      H3'  646   2.666   4.568   3.174
   20G      C2'  647   2.799   4.707   3.100
   20G      H2'  648   2.833   4.609   3.068
   20G      O2'  649   2.818   4.813   3.011
   20G     HO2'  650   2.763   4.791   2.935
   20G      O3'  651   2.553   4.702   3.067
   21G3       P  652   2.538   4.623   2.930
   21G3     OP1  653   2.401   4.643   2.878
   21G3     OP2  654   2.583   4.484   2.952
   21G3     O5'  655   2.648   4.693   2.832
   21G3     C5'  656   2.623   4.814   2.762
   21G3     H5'  657   2.591   4.891   2.831
   21G3    H5''  658   2.538   4.793   2.697
   21G3     C4'  659   2.730   4.872   2.679
   21G3     H4'  660   2.687   4.963   2.636
   21G3     O4'  661   2.853   4.903   2.747
   21G3     C1'  662   2.952   4.829   2.693
   21G3     H1'  663   3.039   4.892   2.676
   21G3      N9  664   2.995   4.712   2.780
   21G3      C8  665   2.941   4.585   2.790
   21G3      H8  666   2.852   4.550   2.738
   21G3      N7  667   3.013   4.505   2.872
   21G3      C5  668   3.124   4.579   2.907
   21G3      C6  669   3.233   4.550   2.996
   21G3      O6  670   3.260   4.444   3.061
   21G3      N1  671   3.323   4.655   3.005
   21G3      H1  672   3.397   4.653   3.074
   21G3      C2  673   3.288   4.780   2.957
   21G3      N2  674   3.369   4.876   2.986
   21G3     H21  675   3.461   4.845   3.016
   21G3     H22  676   3.363   4.971   2.952
   21G3      N3  677   3.194   4.816   2.870
   21G3      C4  678   3.112   4.708   2.855
   21G3     C3'  679   2.756   4.780   2.557
   21G3     H3'  680   2.741   4.673   2.571
   21G3     C2'  681   2.909   4.790   2.552
   21G3     H2'  682   2.944   4.689   2.529
   21G3     O2'  683   2.950   4.892   2.458
   21G3    HO2'  684   2.888   4.887   2.385
   21G3     O3'  685   2.693   4.824   2.435
   21G3    HO3'  686   2.601   4.798   2.441
   22Cl-    Cl-  687   7.096   1.797   8.216
   23Cl-    Cl-  688   2.494   2.832   2.186
   24Cl-    Cl-  689   9.798   1.203   1.152
   25Cl-    Cl-  690   9.286   7.711   0.994
   26Cl-    Cl-  691   2.531   9.454   6.089
   27Cl-    Cl-  692   6.404   8.682   4.611
   28Cl-    Cl-  693   5.038   0.907   1.970
   29Cl-    Cl-  694   0.714   5.872   5.351
   30Cl-    Cl-  695   5.775   2.687   7.951
   31Cl-    Cl-  696   9.216   7.835   4.137
   32Cl-    Cl-  697   8.631   4.112   6.842
   33Cl-    Cl-  698   7.900   0.475   3.882
   34Cl-    Cl-  699   1.196   3.371   0.560
   35Cl-    Cl-  700   0.461   9.294   9.509
   36Cl-    Cl-  701   4.205   2.116   6.508
   37Cl-    Cl-  702   7.415   6.915   9.437
   38Cl-    Cl-  703   7.443   6.788   6.803
   39Cl-    Cl-  704   2.729   8.220   9.338
   40Cl-    Cl-  705   7.460   7.389   5.777
   41Cl-    Cl-  706   3.385   4.226   5.519
   42Cl-    Cl-  707   6.250   6.302   7.635
   43Cl-    Cl-  708   2.051   1.312   9.459
   44Cl-    Cl-  709   2.997   6.511   9.671
   45Cl-    Cl-  710   0.130   6.057   2.205
   46Cl-    Cl-  711   3.497   8.675   3.762
   47Cl-    Cl-  712   0.105   2.253   5.990
   48Cl-    Cl-  713   5.972   1.723   8.600
   49Cl-    Cl-  714   9.075   3.614   5.392
   50Cl-    Cl-  715   7.863   6.170   3.213
   51Cl-    Cl-  716   2.727   5.803   0.170
   52Cl-    Cl-  717   3.464   2.932   1.898
   53Cl-    Cl-  718   4.556   8.487   6.323
   54Cl-    Cl-  719   7.096   8.723   8.928
   55Cl-    Cl-  720   9.106   4.494   2.943
   56Cl-    Cl-  721   9.173   1.371   3.967
   57Cl-    Cl-  722   1.164   9.205   5.599
   58Cl-    Cl-  723   8.355   3.049   6.637
   59Cl-    Cl-  724   7.799   1.898   8.224
   60Cl-    Cl-  725   2.974   7.557   1.638
   61Cl-    Cl-  726   5.527   2.852   2.006
   62Cl-    Cl-  727   0.576   6.918   3.855
   63Cl-    Cl-  728   1.805   7.566   0.129
   64Cl-    Cl-  729   6.735   8.691   7.615
   65Cl-    Cl-  730   9.648   7.319   5.814
   66Cl-    Cl-  731   5.229   3.897   1.167
   67Cl-    Cl-  732   7.516   2.101   2.295
   68Cl-    Cl-  733   9.006   5.429   3.555
   69Cl-    Cl-  734   1.187   4.321   1.825
   70Cl-    Cl-  735   4.922   6.575   1.290
   71Cl-    Cl-  736   1.909   1.914   0.542
   72Cl-    Cl-  737   0.428   4.122   4.538
   73Cl-    Cl-  738   0.575   1.759   8.346
   74Cl-    Cl-  739   3.195   8.216   7.515
   75Cl-    Cl-  740   2.187   7.869   1.260
   76Cl-    Cl-  741   4.382   2.609   8.445
   77Cl-    Cl-  742   0.271   1.277   7.973
   78Cl-    Cl-  743   9.083   1.322   0.745
   79Cl-    Cl-  744   3.680   1.416   7.323
   80Cl-    Cl-  745   4.880   0.287   5.728
   81Cl-    Cl-  746   1.530   3.313   3.873
   82Cl-    Cl-  747   6.344   7.964   0.141
   83Cl-    Cl-  748   2.659   2.874   4.625
   84Cl-    Cl-  749   4.371   0.162   4.138
   85Cl-    Cl-  750   8.285   0.116   0.480
   86Cl-    Cl-  751   6.605   0.310   2.055
   87Cl-    Cl-  752   7.516   4.029   1.807
   88Cl-    Cl-  753   0.850   5.179   3.851
   89Cl-    Cl-  754   3.929   4.160   3.190
   90Cl-    Cl-  755   6.669   5.428   2.642
   91Cl-    Cl-  756   9.193   9.694   4.602
   92Cl-    Cl-  757   4.755   4.516   0.700
   93Cl-    Cl-  758   4.084   5.651   1.697
   94Cl-    Cl-  759   9.023   3.428   8.303
   95Cl-    Cl-  760   5.705   0.374   5.849
   96Cl-    Cl-  761   5.375   7.862   9.871
   97Cl-    Cl-  762   4.376   2.190   4.865
   98Cl-    Cl-  763   3.380   9.243   0.310
   99Cl-    Cl-  764   6.902   5.935   2.216
  100Cl-    Cl-  765   7.945   4.252   3.699
  101Cl-    Cl-  766   2.171   6.332   3.779
  102Cl-    Cl-  767   3.057   7.562   5.824
  103Cl-    Cl-  768   6.567   3.535   1.087
  104Cl-    Cl-  769   8.978   9.817   0.879
  105Cl-    Cl-  770   5.630   5.890   1.460
  106Cl-    Cl-  771   2.859   4.892   5.329
  107K+      K+  772   6.975   2.769   5.293
  108K+      K+  773   8.732   1.102   1.074
  109K+      K+  774   0.022   3.533   9.851
  110K+      K+  775   4.473   1.303   5.441
  111K+      K+  776   3.965   2.718   8.796
  112K+      K+  777   3.338   4.457   5.334
  113K+      K+  778   8.644   4.481   2.745
  114K+      K+  779   2.741   6.722   8.000
  115K+      K+  780   8.819   7.698   2.586
  116K+      K+  781   9.417   1.054   6.761
  117K+      K+  782   4.999   8.408   8.421
  118K+      K+  783   4.801   3.658   4.418
  119K+      K+  784   9.231   6.469   5.193
  120K+      K+  785   6.112   2.348   5.939
  121K+      K+  786   6.157   5.492   5.527
  122K+      K+  787   1.804   6.589   9.579
  123K+      K+  788   1.210   0.895   1.628
  124K+      K+  789   3.236   6.650   4.818
  125K+      K+  790   2.755   1.203   8.350
  126K+      K+  791   6.311   6.581   6.451
  127K+      K+  792   4.660   4.687   3.755
  128K+      K+  793   3.930   2.704   4.357
  129K+      K+  794   3.208   3.793   4.476
  130K+      K+  795   6.076   5.187   5.265
  131K+      K+  796   3.486   8.443   0.604
  132K+      K+  797   4.744   3.663   4.038
  133K+      K+  798   8.842   8.697   9.306
  134K+      K+  799   0.680   4.839   4.502
  135K+      K+  800   8.844   5.139   9.171
  136K+      K+  801   6.755   3.169   9.560
  137K+      K+  802   5.526   0.319   5.521
  138K+      K+  803   2.278   4.665   7.019
  139K+      K+  804   5.409   9.370   8.737
  140K+      K+  805   3.248   4.099   3.849
  141K+      K+  806   5.960   4.059   3.125
  142K+      K+  807   9.643   8.028   7.351
  143K+      K+  808   7.208   6.482   4.227
  144K+      K+  809   0.323   3.075   6.498
  145K+      K+  810   0.856   6.237   5.117
  146K+      K+  811   4.343   7.094   1.936
  147K+      K+  812   4.233   1.485   6.853
  148K+      K+  813   5.364   2.645   0.741
  149K+      K+  814   6.056   6.342   6.194
  150K+      K+  815   1.549   4.869   1.881
  151K+      K+  816   6.615   7.673   9.331
  152K+      K+  817   8.849   3.404   2.278
  153K+      K+  818   4.848   4.212   5.105
  154K+      K+  819   0.285   1.270   7.479
  155K+      K+  820   7.056   5.470   5.412
  156K+      K+  821   5.488   4.176   1.491
  157K+      K+  822   4.439   3.153   3.398
  158K+      K+  823   9.078   5.981   0.584
  159K+      K+  824   2.885   0.489   8.120
  160K+      K+  825   2.556   3.158   3.765
  161K+      K+  826   5.374   5.784   4.930
  162K+      K+  827   6.045   3.482   1.521
  163K+      K+  828   6.801   5.575   1.943
  164K+      K+  829   8.136   2.205   4.867
  165K+      K+  830   6.060   2.079   7.881
  166K+      K+  831   6.109   2.124   3.231
  167K+      K+  832   8.650   4.180   7.221
  168K+      K+  833   7.199   6.252   9.782
  169K+      K+  834   1.753   4.718   5.097
  170K+      K+  835   0.357   4.750   6.468
  171K+      K+  836   7.609   5.938   7.424
  172K+      K+  837   5.920   2.216   1.885
  173K+      K+  838   5.079   4.222   4.802
  174K+      K+  839   5.302   2.470   4.981
  175K+      K+  840   0.895   3.370   3.717
  176K+      K+  841   0.083   0.159   0.957
  177K+      K+  842   4.830   8.041   0.955
  178K+      K+  843   5.868   4.897   5.482
  179K+      K+  844   4.742   8.066   0.462
  180K+      K+  845   7.065   5.779   2.766
  181K+      K+  846   1.759   3.051   2.505
  182K+      K+  847   1.668   9.151   2.590
  183K+      K+  848   0.348   0.416   1.791
  184K+      K+  849   4.977   1.390   4.402
  185K+      K+  850   1.488   2.274   3.413
  186K+      K+  851   5.890   3.190   8.454
  187K+      K+  852   5.845   9.152   7.471
  188K+      K+  853   9.741   0.944   9.767
  189K+      K+  854   8.273   0.316   1.688
  190K+      K+  855   4.155   9.348   6.979
  191K+      K+  856   8.514   7.672   0.858
  192K+      K+  857   2.253   7.803   1.799
  193K+      K+  858   4.009   3.178   5.020
  194K+      K+  859   2.402   4.952   4.066
  195K+      K+  860   2.444   4.108   1.977
  196K+      K+  861   3.636   5.584   4.546
  197K+      K+  862   3.062   5.414   0.236
  198K+      K+  863   8.742   5.467   3.156
  199K+      K+  864   7.984   7.951   3.943
  200K+      K+  865   4.536   7.650   6.780
  201K+      K+  866   7.803   0.608   4.466
  202K+      K+  867   7.029   8.639   8.534
  203K+      K+  868   9.506   8.942   6.215
  204K+      K+  869   6.792   8.659   0.620
  205K+      K+  870   5.395   3.855   3.951
  206K+      K+  871   5.934   1.019   0.723
  207K+      K+  872   3.802   6.203   0.667
  208K+      K+  873   3.617   5.184   5.806
  209K+      K+  874   2.290   1.760   1.191
  210K+      K+  875   9.873   8.061   1.783
  211K+      K+  876   6.170   7.508   1.882
  212WAT      O  877   2.378   9.787   6.791
  212WAT     H1  878   2.383   9.885   6.775
  212WAT     H2  879   2.282   9.758   6.787
  213WAT      O  880   0.378   4.479   9.075
  213WAT     H1  881   0.441   4.414   9.119
  213WAT     H2  882   0.294   4.431   9.049
  214WAT      O  883   2.934   1.047   7.088
  214WAT     H1  884   2.990   0.987   7.145
  214WAT     H2  885   2.843   1.008   7.077
  215WAT      O  886   6.434   3.350   2.371
  215WAT     H1  887   6.339   3.354   2.400
  215WAT     H2  888   6.454   3.261   2.331
  216WAT      O  889   6.320   4.658   9.575
  216WAT     H1  890   6.265   4.577   9.560
  216WAT     H2  891   6.369   4.650   9.661
  217WAT      O  892   5.772   7.123   2.863
  217WAT     H1  893   5.799   7.190   2.932
  217WAT     H2  894   5.685   7.151   2.822
  218WAT      O  895   8.498   6.893   2.370
  218WAT     H1  896   8.554   6.820   2.411
  218WAT     H2  897   8.497   6.972   2.430
  219WAT      O  898   6.349   2.391   6.276
  219WAT     H1  899   6.311   2.468   6.225
  219WAT     H2  900   6.447   2.405   6.291
  220WAT      O  901   6.137   6.921   0.933
  220WAT     H1  902   6.176   6.835   0.967
  220WAT     H2  903   6.093   6.905   0.845
  221WAT      O  904   2.099   0.165   6.894
  221WAT     H1  905   2.031   0.236   6.914
  221WAT     H2  906   2.173   0.205   6.840
  222WAT      O  907   8.806   9.816   0.616
  222WAT     H1  908   8.848   9.814   0.707
  222WAT     H2  909   8.715   9.857   0.621
  223WAT      O  910   8.103   5.346   2.711
  223WAT     H1  911   8.134   5.437   2.684
  223WAT     H2  912   8.057   5.302   2.634
  224WAT      O  913   2.217   1.519   1.688
  224WAT     H1  914   2.128   1.473   1.693
  224WAT     H2  915   2.204   1.614   1.660
  225WAT      O  916   1.506   7.968   7.230
  225WAT     H1  917   1.491   8.053   7.178
  225WAT     H2  918   1.419   7.927   7.253
  226WAT      O  919   9.297   7.837   7.372
  226WAT     H1  920   9.211   7.786   7.371
  226WAT     H2  921   9.300   7.900   7.294
  227WAT      O  922   5.901   2.882   8.908
  227WAT     H1  923   5.824   2.850   8.852
  227WAT     H2  924   5.923   2.976   8.883
  228WAT      O  925   4.628   0.492   2.534
  228WAT     H1  926   4.542   0.453   2.565
  228WAT     H2  927   4.695   0.420   2.521
  229WAT      O  928   4.016   5.927   8.081
  229WAT     H1  929   3.942   5.916   8.147
  229WAT     H2  930   3.986   5.894   7.991
  230WAT      O  931   8.146   2.804   6.615
  230WAT     H1  932   8.194   2.723   6.649
  230WAT     H2  933   8.196   2.886   6.641
  231WAT      O  934   2.239   7.070   6.559
  231WAT     H1  935   2.328   7.032   6.535
  231WAT     H2  936   2.242   7.104   6.653
  232WAT      O  937   8.685   3.895   9.204
  232WAT     H1  938   8.611   3.953   9.237
  232WAT     H2  939   8.655   3.800   9.200
  233WAT      O  940   1.293   2.493   5.516
  233WAT     H1  941   1.317   2.483   5.613
  233WAT     H2  942   1.275   2.589   5.496
  234WAT      O  943   9.670   4.347   5.904
  234WAT     H1  944   9.583   4.350   5.954
  234WAT     H2  945   9.691   4.252   5.880
  235WAT      O  946   8.162   1.597   2.265
  235WAT     H1  947   8.229   1.671   2.257
  235WAT     H2  948   8.209   1.509   2.265
  236WAT      O  949   5.988   3.564   1.273
  236WAT     H1  950   6.029   3.594   1.187
  236WAT     H2  951   5.895   3.599   1.279
  237WAT      O  952   1.564   2.283   8.651
  237WAT     H1  953   1.484   2.241   8.694
  237WAT     H2  954   1.551   2.382   8.646
  238WAT      O  955   3.843   5.779   4.591
  238WAT     H1  956   3.886   5.697   4.628
  238WAT     H2  957   3.857   5.856   4.653
  239WAT      O  958   9.503   0.899   6.984
  239WAT     H1  959   9.578   0.835   6.966
  239WAT     H2  960   9.440   0.859   7.051
  240WAT      O  961   5.162   1.952   4.642
  240WAT     H1  962   5.100   1.970   4.718
  240WAT     H2  963   5.109   1.923   4.562
  241WAT      O  964   5.970   3.259   6.144
  241WAT     H1  965   5.888   3.223   6.189
  241WAT     H2  966   5.966   3.359   6.143
  242WAT      O  967   0.191   0.095   7.340
  242WAT     H1  968   0.261   0.039   7.385
  242WAT     H2  969   0.224   0.189   7.332
  243WAT      O  970   8.023   6.903   5.102
  243WAT     H1  971   8.009   6.805   5.115
  243WAT     H2  972   8.066   6.942   5.184
  244WAT      O  973   0.129   5.390   6.950
  244WAT     H1  974   0.041   5.436   6.937
  244WAT     H2  975   0.117   5.309   7.007
  245WAT      O  976   6.216   9.454   4.751
  245WAT     H1  977   6.240   9.425   4.843
  245WAT     H2  978   6.167   9.541   4.755
  246WAT      O  979   1.472   6.070   9.547
  246WAT     H1  980   1.440   6.065   9.642
  246WAT     H2  981   1.568   6.099   9.546
  247WAT      O  982   3.926   8.133   0.175
  247WAT     H1  983   3.833   8.106   0.200
  247WAT     H2  984   3.936   8.232   0.189
  248WAT      O  985   7.057   9.306   8.595
  248WAT     H1  986   7.135   9.290   8.534
  248WAT     H2  987   7.047   9.404   8.613
  249WAT      O  988   3.285   3.051   3.767
  249WAT     H1  989   3.229   3.050   3.684
  249WAT     H2  990   3.225   3.047   3.847
  250WAT      O  991   7.197   5.020   3.422
  250WAT     H1  992   7.238   5.046   3.334
  250WAT     H2  993   7.267   5.018   3.493
  251WAT      O  994   6.027   4.504   5.236
  251WAT     H1  995   6.080   4.522   5.318
  251WAT     H2  996   6.010   4.589   5.187
  252WAT      O  997   6.869   3.092   1.961
  252WAT     H1  998   6.802   3.063   2.029
  252WAT     H2  999   6.822   3.121   1.877
  253WAT      O 1000   1.909   4.832   1.730
  253WAT     H1 1001   1.914   4.735   1.707
  253WAT     H2 1002   1.996   4.876   1.709
  254WAT      O 1003   8.150   1.300   8.667
  254WAT     H1 1004   8.102   1.378   8.626
  254WAT     H2 1005   8.242   1.295   8.630
  255WAT      O 1006   3.786   1.737   2.717
  255WAT     H1 1007   3.714   1.754   2.649
  255WAT     H2 1008   3.747   1.741   2.809
  256WAT      O 1009   7.741   4.221   6.898
  256WAT     H1 1010   7.712   4.251   6.807
  256WAT     H2 1011   7.669   4.241   6.964
  257WAT      O 1012   8.426   6.517   2.733
  257WAT     H1 1013   8.465   6.444   2.676
  257WAT     H2 1014   8.450   6.502   2.828
  258WAT      O 1015   2.508   1.586   4.266
  258WAT     H1 1016   2.581   1.539   4.216
  258WAT     H2 1017   2.455   1.521   4.319
  259WAT      O 1018   7.412   5.256   2.190
  259WAT     H1 1019   7.372   5.176   2.145
  259WAT     H2 1020   7.418   5.332   2.125
  260WAT      O 1021   6.539   1.047   8.845
  260WAT     H1 1022   6.493   1.135   8.859
  260WAT     H2 1023   6.602   1.054   8.767
  261WAT      O 1024   3.210   6.032   0.584
  261WAT     H1 1025   3.130   5.974   0.601
  261WAT     H2 1026   3.243   6.067   0.672
  262WAT      O 1027   8.594   0.356   3.226
  262WAT     H1 1028   8.534   0.292   3.273
  262WAT     H2 1029   8.553   0.383   3.139
  263WAT      O 1030   7.774   5.460   2.367
  263WAT     H1 1031   7.792   5.420   2.457
  263WAT     H2 1032   7.677   5.483   2.360
  264WAT      O 1033   8.466   8.989   5.724
  264WAT     H1 1034   8.377   8.961   5.757
  264WAT     H2 1035   8.518   9.032   5.798
  265WAT      O 1036   6.281   8.902   2.439
  265WAT     H1 1037   6.255   8.995   2.416
  265WAT     H2 1038   6.202   8.841   2.430
  266WAT      O 1039   2.575   1.814   1.165
  266WAT     H1 1040   2.637   1.795   1.241
  266WAT     H2 1041   2.613   1.774   1.081
  267WAT      O 1042   5.323   8.150   5.030
  267WAT     H1 1043   5.301   8.160   5.127
  267WAT     H2 1044   5.244   8.179   4.976
  268WAT      O 1045   6.582   4.291   4.972
  268WAT     H1 1046   6.547   4.198   4.968
  268WAT     H2 1047   6.679   4.290   4.996
  269WAT      O 1048   9.084   9.203   0.567
  269WAT     H1 1049   9.115   9.212   0.472
  269WAT     H2 1050   9.055   9.293   0.601
  270WAT      O 1051   6.815   5.717   2.805
  270WAT     H1 1052   6.739   5.665   2.766
  270WAT     H2 1053   6.779   5.791   2.862
  271WAT      O 1054   6.418   1.682   9.632
  271WAT     H1 1055   6.421   1.782   9.637
  271WAT     H2 1056   6.380   1.646   9.717
  272WAT      O 1057   5.592   4.135   5.683
  272WAT     H1 1058   5.535   4.129   5.765
  272WAT     H2 1059   5.536   4.120   5.602
  273WAT      O 1060   0.500   5.330   3.447
  273WAT     H1 1061   0.536   5.344   3.354
  273WAT     H2 1062   0.570   5.286   3.503
  274WAT      O 1063   3.659   3.575   2.178
  274WAT     H1 1064   3.715   3.646   2.134
  274WAT     H2 1065   3.565   3.607   2.186
  275WAT      O 1066   0.636   7.055   3.308
  275WAT     H1 1067   0.702   7.122   3.341
  275WAT     H2 1068   0.685   6.981   3.261
  276WAT      O 1069   7.872   9.669   5.883
  276WAT     H1 1070   7.817   9.633   5.958
  276WAT     H2 1071   7.875   9.769   5.889
  277WAT      O 1072   6.994   8.098   5.333
  277WAT     H1 1073   7.036   8.049   5.409
  277WAT     H2 1074   7.064   8.132   5.271
  278WAT      O 1075   2.224   9.665   0.799
  278WAT     H1 1076   2.286   9.693   0.873
  278WAT     H2 1077   2.211   9.742   0.736
  279WAT      O 1078   1.162   1.178   9.294
  279WAT     H1 1079   1.252   1.152   9.259
  279WAT     H2 1080   1.107   1.096   9.308
  280WAT      O 1081   1.617   1.238   2.918
  280WAT     H1 1082   1.561   1.253   2.836
  280WAT     H2 1083   1.648   1.326   2.954
  281WAT      O 1084   7.610   4.390   1.493
  281WAT     H1 1085   7.603   4.294   1.468
  281WAT     H2 1086   7.552   4.445   1.434
  282WAT      O 1087   3.300   9.176   3.213
  282WAT     H1 1088   3.272   9.247   3.278
  282WAT     H2 1089   3.399   9.174   3.207
  283WAT      O 1090   6.354   2.895   7.784
  283WAT     H1 1091   6.350   2.959   7.860
  283WAT     H2 1092   6.432   2.833   7.796
  284WAT      O 1093   2.633   9.824   6.104
  284WAT     H1 1094   2.649   9.733   6.144
  284WAT     H2 1095   2.697   9.889   6.144
  285WAT      O 1096   5.577   0.049   2.426
  285WAT     H1 1097   5.619  -0.037   2.455
  285WAT     H2 1098   5.552   0.103   2.506
  286WAT      O 1099   6.726   1.592   5.871
  286WAT     H1 1100   6.724   1.663   5.942
  286WAT     H2 1101   6.633   1.562   5.851
  287WAT      O 1102   9.398   6.150   4.209
  287WAT     H1 1103   9.340   6.083   4.162
  287WAT     H2 1104   9.400   6.129   4.307
  288WAT      O 1105   7.356   7.595   6.369
  288WAT     H1 1106   7.339   7.504   6.406
  288WAT     H2 1107   7.447   7.626   6.396
  289WAT      O 1108   4.734   6.802   2.658
  289WAT     H1 1109   4.683   6.826   2.575
  289WAT     H2 1110   4.714   6.869   2.729
  290WAT      O 1111   8.616   0.388   6.897
  290WAT     H1 1112   8.706   0.346   6.884
  290WAT     H2 1113   8.623   0.487   6.886
  291WAT      O 1114   0.440   0.941   4.075
  291WAT     H1 1115   0.508   0.869   4.082
  291WAT     H2 1116   0.480   1.029   4.102
  292WAT      O 1117   7.116   9.329   0.973
  292WAT     H1 1118   7.196   9.371   1.017
  292WAT     H2 1119   7.133   9.321   0.875
  293WAT      O 1120   5.528   9.490   5.355
  293WAT     H1 1121   5.430   9.493   5.334
  293WAT     H2 1122   5.578   9.446   5.280
  294WAT      O 1123   3.159   2.212   6.605
  294WAT     H1 1124   3.237   2.233   6.664
  294WAT     H2 1125   3.093   2.155   6.655
  295WAT      O 1126   7.693   7.721   5.560
  295WAT     H1 1127   7.774   7.752   5.510
  295WAT     H2 1128   7.711   7.728   5.659
  296WAT      O 1129   9.330   6.406   9.528
  296WAT     H1 1130   9.323   6.352   9.612
  296WAT     H2 1131   9.378   6.491   9.548
  297WAT      O 1132   3.901   8.218   5.384
  297WAT     H1 1133   3.974   8.220   5.316
  297WAT     H2 1134   3.872   8.311   5.406
  298WAT      O 1135   7.435   7.743   6.996
  298WAT     H1 1136   7.390   7.776   6.913
  298WAT     H2 1137   7.520   7.697   6.972
  299WAT      O 1138   0.074   0.663   1.767
  299WAT     H1 1139  -0.013   0.683   1.812
  299WAT     H2 1140   0.147   0.662   1.836
  300WAT      O 1141   0.642   9.002   0.284
  300WAT     H1 1142   0.594   8.945   0.350
  300WAT     H2 1143   0.577   9.062   0.238
  301WAT      O 1144   3.498   0.942   2.987
  301WAT     H1 1145   3.446   0.871   2.940
  301WAT     H2 1146   3.467   0.950   3.082
  302WAT      O 1147   8.819   0.943   8.965
  302WAT     H1 1148   8.844   0.848   8.943
  302WAT     H2 1149   8.730   0.944   9.011
  303WAT      O 1150   3.151   0.286   7.415
  303WAT     H1 1151   3.062   0.293   7.371
  303WAT     H2 1152   3.223   0.308   7.349
  304WAT      O 1153   5.923   8.285   0.645
  304WAT     H1 1154   5.907   8.348   0.569
  304WAT     H2 1155   5.978   8.207   0.614
  305WAT      O 1156   9.232   6.745   7.980
  305WAT     H1 1157   9.218   6.720   8.075
  305WAT     H2 1158   9.220   6.843   7.968
  306WAT      O 1159   8.139   3.887   4.259
  306WAT     H1 1160   8.210   3.907   4.327
  306WAT     H2 1161   8.054   3.861   4.305
  307WAT      O 1162   1.654   8.909   8.606
  307WAT     H1 1163   1.638   8.997   8.562
  307WAT     H2 1164   1.566   8.864   8.623
  308WAT      O 1165   9.840   1.012   9.136
  308WAT     H1 1166   9.795   1.054   9.215
  308WAT     H2 1167   9.869   1.084   9.072
  309WAT      O 1168   8.682   4.930   9.510
  309WAT     H1 1169   8.668   5.026   9.534
  309WAT     H2 1170   8.761   4.894   9.561
  310WAT      O 1171   4.247   1.117   4.521
  310WAT     H1 1172   4.325   1.123   4.583
  310WAT     H2 1173   4.273   1.062   4.441
  311WAT      O 1174   5.727   6.455   0.870
  311WAT     H1 1175   5.722   6.435   0.772
  311WAT     H2 1176   5.668   6.392   0.920
  312WAT      O 1177   1.605   5.405   5.586
  312WAT     H1 1178   1.565   5.313   5.583
  312WAT     H2 1179   1.651   5.418   5.674
  313WAT      O 1180   1.730   8.927   8.130
  313WAT     H1 1181   1.659   8.995   8.149
  313WAT     H2 1182   1.734   8.861   8.205
  314WAT      O 1183   4.793   2.848   0.216
  314WAT     H1 1184   4.834   2.817   0.302
  314WAT     H2 1185   4.866   2.881   0.155
  315WAT      O 1186   8.766   2.900   4.100
  315WAT     H1 1187   8.847   2.957   4.084
  315WAT     H2 1188   8.741   2.854   4.015
  316WAT      O 1189   0.323   4.981   3.262
  316WAT     H1 1190   0.408   4.996   3.312
  316WAT     H2 1191   0.249   4.964   3.326
  317WAT      O 1192   8.225   0.248   0.046
  317WAT     H1 1193   8.170   0.166   0.035
  317WAT     H2 1194   8.304   0.244  -0.015
  318WAT      O 1195   9.240   6.848   3.849
  318WAT     H1 1196   9.211   6.808   3.936
  318WAT     H2 1197   9.182   6.926   3.826
  319WAT      O 1198   8.546   1.975   2.082
  319WAT     H1 1199   8.605   2.035   2.135
  319WAT     H2 1200   8.601   1.908   2.032
  320WAT      O 1201   7.048   9.686   6.244
  320WAT     H1 1202   6.962   9.668   6.196
  320WAT     H2 1203   7.055   9.626   6.323
  321WAT      O 1204   6.881   1.826   1.008
  321WAT     H1 1205   6.945   1.817   1.083
  321WAT     H2 1206   6.927   1.804   0.922
  322WAT      O 1207   4.131   6.436   4.273
  322WAT     H1 1208   4.189   6.491   4.212
  322WAT     H2 1209   4.112   6.488   4.356
  323WAT      O 1210   7.585   0.228   2.371
  323WAT     H1 1211   7.550   0.134   2.373
  323WAT     H2 1212   7.676   0.230   2.411
  324WAT      O 1213   1.043   8.335   8.329
  324WAT     H1 1214   0.958   8.382   8.354
  324WAT     H2 1215   1.104   8.400   8.284
  325WAT      O 1216   0.404   6.183   6.994
  325WAT     H1 1217   0.470   6.229   6.934
  325WAT     H2 1218   0.347   6.252   7.040
  326WAT      O 1219   8.388   8.938   1.789
  326WAT     H1 1220   8.296   8.966   1.819
  326WAT     H2 1221   8.406   8.845   1.822
  327WAT      O 1222   0.513   5.017   4.615
  327WAT     H1 1223   0.524   5.116   4.620
  327WAT     H2 1224   0.432   4.990   4.669
  328WAT      O 1225   7.334   3.439   5.503
  328WAT     H1 1226   7.290   3.364   5.453
  328WAT     H2 1227   7.317   3.525   5.457
  329WAT      O 1228   3.902   7.375   7.644
  329WAT     H1 1229   3.878   7.469   7.670
  329WAT     H2 1230   3.887   7.314   7.721
  330WAT      O 1231   7.407   6.017   4.560
  330WAT     H1 1232   7.477   6.050   4.498
  330WAT     H2 1233   7.345   5.956   4.511
  331WAT      O 1234   9.178   6.926   3.550
  331WAT     H1 1235   9.202   7.015   3.511
  331WAT     H2 1236   9.229   6.854   3.503
  332WAT      O 1237   9.354   1.207   5.201
  332WAT     H1 1238   9.412   1.280   5.165
  332WAT     H2 1239   9.376   1.121   5.153
  333WAT      O 1240   3.520   7.666   9.596
  333WAT     H1 1241   3.586   7.732   9.559
  333WAT     H2 1242   3.438   7.714   9.627
  334WAT      O 1243   0.802   2.745   9.547
  334WAT     H1 1244   0.786   2.843   9.535
  334WAT     H2 1245   0.742   2.693   9.486
  335WAT      O 1246   0.381   9.142   6.163
  335WAT     H1 1247   0.396   9.113   6.258
  335WAT     H2 1248   0.368   9.061   6.106
  336WAT      O 1249   3.666   1.885   0.152
  336WAT     H1 1250   3.587   1.889   0.090
  336WAT     H2 1251   3.707   1.793   0.147
  337WAT      O 1252   0.239   3.066   6.226
  337WAT     H1 1253   0.201   2.974   6.211
  337WAT     H2 1254   0.266   3.105   6.138
  338WAT      O 1255   2.669   6.322   2.071
  338WAT     H1 1256   2.731   6.388   2.029
  338WAT     H2 1257   2.687   6.319   2.170
  339WAT      O 1258   8.972   7.634   6.093
  339WAT     H1 1259   9.028   7.552   6.087
  339WAT     H2 1260   9.026   7.714   6.065
  340WAT      O 1261   2.212   6.988   3.234
  340WAT     H1 1262   2.118   6.954   3.246
  340WAT     H2 1263   2.212   7.088   3.235
  341WAT      O 1264   3.599   4.429   1.585
  341WAT     H1 1265   3.691   4.449   1.554
  341WAT     H2 1266   3.596   4.434   1.685
  342WAT      O 1267   8.034   1.439   4.616
  342WAT     H1 1268   8.085   1.353   4.623
  342WAT     H2 1269   8.004   1.451   4.521
  343WAT      O 1270   6.595   7.131   5.983
  343WAT     H1 1271   6.577   7.161   5.890
  343WAT     H2 1272   6.607   7.032   5.985
  344WAT      O 1273   4.055   6.475   0.523
  344WAT     H1 1274   4.002   6.537   0.465
  344WAT     H2 1275   4.139   6.521   0.552
  345WAT      O 1276   4.589   7.405   2.405
  345WAT     H1 1277   4.621   7.369   2.318
  345WAT     H2 1278   4.611   7.503   2.411
  346WAT      O 1279   5.672   3.006   9.639
  346WAT     H1 1280   5.695   2.956   9.555
  346WAT     H2 1281   5.697   3.102   9.628
  347WAT      O 1282   4.119   8.464   3.758
  347WAT     H1 1283   4.177   8.416   3.692
  347WAT     H2 1284   4.037   8.409   3.776
  348WAT      O 1285   5.268   2.532   8.890
  348WAT     H1 1286   5.258   2.432   8.893
  348WAT     H2 1287   5.289   2.560   8.796
  349WAT      O 1288   4.330   6.729   9.185
  349WAT     H1 1289   4.269   6.658   9.148
  349WAT     H2 1290   4.280   6.783   9.253
  350WAT      O 1291   5.406   3.522   6.525
  350WAT     H1 1292   5.488   3.562   6.484
  350WAT     H2 1293   5.403   3.424   6.505
  351WAT      O 1294   8.512   1.694   3.814
  351WAT     H1 1295   8.421   1.693   3.856
  351WAT     H2 1296   8.521   1.775   3.755
  352WAT      O 1297   1.060   8.826   9.284
  352WAT     H1 1298   1.143   8.842   9.337
  352WAT     H2 1299   1.080   8.840   9.187
  353WAT      O 1300   4.340   3.655   7.069
  353WAT     H1 1301   4.393   3.740   7.065
  353WAT     H2 1302   4.359   3.608   7.156
  354WAT      O 1303   2.479   9.798   0.180
  354WAT     H1 1304   2.406   9.739   0.145
  354WAT     H2 1305   2.511   9.764   0.268
  355WAT      O 1306   4.305   5.024   9.618
  355WAT     H1 1307   4.384   5.069   9.576
  355WAT     H2 1308   4.329   4.931   9.644
  356WAT      O 1309   3.011   7.109   5.196
  356WAT     H1 1310   3.022   7.020   5.150
  356WAT     H2 1311   3.066   7.110   5.279
  357WAT      O 1312   6.199   2.518   9.837
  357WAT     H1 1313   6.104   2.501   9.862
  357WAT     H2 1314   6.205   2.534   9.738
  358WAT      O 1315   9.687   0.820   4.109
  358WAT     H1 1316   9.672   0.913   4.141
  358WAT     H2 1317   9.693   0.758   4.188
  359WAT      O 1318   3.920   3.725   7.154
  359WAT     H1 1319   3.935   3.736   7.055
  359WAT     H2 1320   3.825   3.746   7.175
  360WAT      O 1321   9.814   4.340   1.314
  360WAT     H1 1322   9.800   4.435   1.285
  360WAT     H2 1323   9.827   4.336   1.413
  361WAT      O 1324   2.506   5.960   4.664
  361WAT     H1 1325   2.426   5.997   4.711
  361WAT     H2 1326   2.497   5.975   4.566
  362WAT      O 1327   9.868   4.728   9.066
  362WAT     H1 1328   9.916   4.803   9.021
  362WAT     H2 1329   9.791   4.763   9.118
  363WAT      O 1330   3.581   2.918   0.477
  363WAT     H1 1331   3.547   2.830   0.444
  363WAT     H2 1332   3.679   2.911   0.494
  364WAT      O 1333   7.879   3.031   4.476
  364WAT     H1 1334   7.949   2.963   4.499
  364WAT     H2 1335   7.910   3.086   4.398
  365WAT      O 1336   7.724   6.785   4.588
  365WAT     H1 1337   7.738   6.706   4.528
  365WAT     H2 1338   7.812   6.814   4.627
  366WAT      O 1339   0.352   4.920   4.796
  366WAT     H1 1340   0.366   4.844   4.860
  366WAT     H2 1341   0.260   4.958   4.811
  367WAT      O 1342   4.627   7.911   6.198
  367WAT     H1 1343   4.659   7.819   6.222
  367WAT     H2 1344   4.604   7.914   6.101
  368WAT      O 1345   3.830   8.287   9.053
  368WAT     H1 1346   3.776   8.287   9.137
  368WAT     H2 1347   3.926   8.302   9.075
  369WAT      O 1348   9.841   7.455   6.239
  369WAT     H1 1349   9.792   7.378   6.198
  369WAT     H2 1350   9.779   7.506   6.299
  370WAT      O 1351   6.442   6.031   5.087
  370WAT     H1 1352   6.376   5.966   5.049
  370WAT     H2 1353   6.528   6.024   5.037
  371WAT      O 1354   3.729   9.027   0.814
  371WAT     H1 1355   3.683   9.085   0.746
  371WAT     H2 1356   3.821   9.064   0.831
  372WAT      O 1357   0.351   9.211   0.727
  372WAT     H1 1358   0.448   9.186   0.728
  372WAT     H2 1359   0.327   9.248   0.637
  373WAT      O 1360   7.871   7.515   1.969
  373WAT     H1 1361   7.932   7.495   2.046
  373WAT     H2 1362   7.904   7.595   1.920
  374WAT      O 1363   0.069   5.003   5.365
  374WAT     H1 1364   0.057   5.041   5.457
  374WAT     H2 1365   0.002   5.044   5.303
  375WAT      O 1366   8.463   5.528   7.128
  375WAT     H1 1367   8.409   5.515   7.045
  375WAT     H2 1368   8.523   5.449   7.140
  376WAT      O 1369   7.640   5.285   7.430
  376WAT     H1 1370   7.702   5.264   7.355
  376WAT     H2 1371   7.547   5.259   7.405
  377WAT      O 1372   7.402   1.217   2.886
  377WAT     H1 1373   7.430   1.312   2.903
  377WAT     H2 1374   7.412   1.164   2.971
  378WAT      O 1375   0.289   3.041   0.166
  378WAT     H1 1376   0.212   3.057   0.105
  378WAT     H2 1377   0.261   2.977   0.238
  379WAT      O 1378   1.721   5.796   5.915
  379WAT     H1 1379   1.639   5.739   5.907
  379WAT     H2 1380   1.755   5.791   6.009
  380WAT      O 1381   9.032   8.518   8.361
  380WAT     H1 1382   9.063   8.450   8.295
  380WAT     H2 1383   8.991   8.595   8.313
  381WAT      O 1384   7.296   3.696   2.683
  381WAT     H1 1385   7.200   3.671   2.693
  381WAT     H2 1386   7.318   3.708   2.586
  382WAT      O 1387   6.532   6.904   3.917
  382WAT     H1 1388   6.520   6.821   3.862
  382WAT     H2 1389   6.456   6.912   3.981
  383WAT      O 1390   4.760   8.162   1.347
  383WAT     H1 1391   4.745   8.145   1.445
  383WAT     H2 1392   4.849   8.126   1.321
  384WAT      O 1393   0.696   6.671   8.024
  384WAT     H1 1394   0.635   6.740   7.984
  384WAT     H2 1395   0.672   6.659   8.121
  385WAT      O 1396   9.327   3.881   4.399
  385WAT     H1 1397   9.348   3.907   4.305
  385WAT     H2 1398   9.344   3.783   4.412
  386WAT      O 1399   3.441   7.545   4.253
  386WAT     H1 1400   3.386   7.507   4.327
  386WAT     H2 1401   3.501   7.474   4.215
  387WAT      O 1402   7.198   2.593   3.261
  387WAT     H1 1403   7.211   2.687   3.292
  387WAT     H2 1404   7.248   2.579   3.175
  388WAT      O 1405   7.388   2.511   4.631
  388WAT     H1 1406   7.365   2.414   4.624
  388WAT     H2 1407   7.476   2.528   4.586
  389WAT      O 1408   4.306   5.220   1.283
  389WAT     H1 1409   4.254   5.266   1.211
  389WAT     H2 1410   4.246   5.161   1.336
  390WAT      O 1411   3.529   3.408   9.265
  390WAT     H1 1412   3.621   3.371   9.253
  390WAT     H2 1413   3.470   3.339   9.306
  391WAT      O 1414   3.575   3.260   4.028
  391WAT     H1 1415   3.568   3.203   4.109
  391WAT     H2 1416   3.668   3.252   3.990
  392WAT      O 1417   8.077   3.184   6.734
  392WAT     H1 1418   8.166   3.139   6.727
  392WAT     H2 1419   8.076   3.264   6.674
  393WAT      O 1420   6.118   0.215   7.735
  393WAT     H1 1421   6.120   0.296   7.794
  393WAT     H2 1422   6.143   0.241   7.642
  394WAT      O 1423   4.915   1.398   3.279
  394WAT     H1 1424   4.850   1.343   3.226
  394WAT     H2 1425   4.990   1.427   3.220
  395WAT      O 1426   0.495   4.448   6.885
  395WAT     H1 1427   0.440   4.366   6.871
  395WAT     H2 1428   0.439   4.520   6.926
  396WAT      O 1429   0.597   8.850   7.086
  396WAT     H1 1430   0.556   8.855   7.178
  396WAT     H2 1431   0.648   8.933   7.068
  397WAT      O 1432   0.466   2.825   3.539
  397WAT     H1 1433   0.500   2.837   3.445
  397WAT     H2 1434   0.387   2.884   3.554
  398WAT      O 1435   4.492   3.377   2.955
  398WAT     H1 1436   4.534   3.357   2.867
  398WAT     H2 1437   4.542   3.329   3.027
  399WAT      O 1438   2.846   7.892   9.370
  399WAT     H1 1439   2.761   7.844   9.391
  399WAT     H2 1440   2.824   7.980   9.327
  400WAT      O 1441   4.122   9.173   5.531
  400WAT     H1 1442   4.033   9.218   5.533
  400WAT     H2 1443   4.137   9.133   5.441
  401WAT      O 1444   0.413   1.137   8.547
  401WAT     H1 1445   0.314   1.134   8.529
  401WAT     H2 1446   0.455   1.207   8.490
  402WAT      O 1447   1.219   6.549   6.958
  402WAT     H1 1448   1.250   6.640   6.986
  402WAT     H2 1449   1.259   6.525   6.869
  403WAT      O 1450   5.889   8.152   9.675
  403WAT     H1 1451   5.818   8.220   9.654
  403WAT     H2 1452   5.899   8.145   9.775
  404WAT      O 1453   7.897   6.686   1.235
  404WAT     H1 1454   7.953   6.733   1.303
  404WAT     H2 1455   7.956   6.632   1.175
  405WAT      O 1456   5.825   4.360   2.711
  405WAT     H1 1457   5.830   4.261   2.728
  405WAT     H2 1458   5.915   4.392   2.680
  406WAT      O 1459   2.313   9.662   8.468
  406WAT     H1 1460   2.242   9.717   8.423
  406WAT     H2 1461   2.373   9.623   8.399
  407WAT      O 1462   6.029   0.395   9.177
  407WAT     H1 1463   6.040   0.394   9.078
  407WAT     H2 1464   6.091   0.462   9.218
  408WAT      O 1465   0.798   2.962   6.423
  408WAT     H1 1466   0.841   2.893   6.365
  408WAT     H2 1467   0.781   2.924   6.514
  409WAT      O 1468   9.216   3.068   9.693
  409WAT     H1 1469   9.282   3.101   9.626
  409WAT     H2 1470   9.138   3.027   9.646
  410WAT      O 1471   0.265   1.523   4.389
  410WAT     H1 1472   0.174   1.496   4.355
  410WAT     H2 1473   0.310   1.580   4.321
  411WAT      O 1474   1.496   3.126   4.722
  411WAT     H1 1475   1.455   3.042   4.684
  411WAT     H2 1476   1.514   3.190   4.648
  412WAT      O 1477   4.746   5.092   4.785
  412WAT     H1 1478   4.840   5.057   4.778
  412WAT     H2 1479   4.729   5.156   4.710
  413WAT      O 1480   4.016   4.224   7.087
  413WAT     H1 1481   4.034   4.149   7.023
  413WAT     H2 1482   3.929   4.208   7.133
  414WAT      O 1483   8.801   1.036   4.044
  414WAT     H1 1484   8.874   1.094   4.082
  414WAT     H2 1485   8.758   0.985   4.118
  415WAT      O 1486   1.506   6.174   0.321
  415WAT     H1 1487   1.497   6.159   0.419
  415WAT     H2 1488   1.558   6.098   0.280
  416WAT      O 1489   6.256   8.959   7.581
  416WAT     H1 1490   6.352   8.984   7.593
  416WAT     H2 1491   6.247   8.860   7.582
  417WAT      O 1492   3.368   3.223   9.375
  417WAT     H1 1493   3.281   3.234   9.422
  417WAT     H2 1494   3.438   3.195   9.441
  418WAT      O 1495   0.793   8.021   8.751
  418WAT     H1 1496   0.822   8.025   8.847
  418WAT     H2 1497   0.718   7.956   8.742
  419WAT      O 1498   5.712   1.416   5.693
  419WAT     H1 1499   5.684   1.375   5.780
  419WAT     H2 1500   5.809   1.437   5.696
  420WAT      O 1501   9.550   3.079   1.236
  420WAT     H1 1502   9.473   3.134   1.268
  420WAT     H2 1503   9.570   3.008   1.302
  421WAT      O 1504   9.625   3.963   1.637
  421WAT     H1 1505   9.689   4.039   1.623
  421WAT     H2 1506   9.666   3.879   1.603
  422WAT      O 1507   6.694   3.689   9.039
  422WAT     H1 1508   6.663   3.596   9.018
  422WAT     H2 1509   6.780   3.707   8.991
  423WAT      O 1510   5.535   5.586   2.613
  423WAT     H1 1511   5.524   5.544   2.523
  423WAT     H2 1512   5.480   5.537   2.681
  424WAT      O 1513   4.358   8.552   0.498
  424WAT     H1 1514   4.307   8.466   0.496
  424WAT     H2 1515   4.344   8.601   0.412
  425WAT      O 1516   2.165   0.642   5.297
  425WAT     H1 1517   2.157   0.543   5.306
  425WAT     H2 1518   2.142   0.669   5.203
  426WAT      O 1519   3.684   2.541   5.707
  426WAT     H1 1520   3.747   2.517   5.634
  426WAT     H2 1521   3.635   2.459   5.738
  427WAT      O 1522   7.624   8.932   2.646
  427WAT     H1 1523   7.633   8.947   2.548
  427WAT     H2 1524   7.531   8.956   2.676
  428WAT      O 1525   8.430   1.953   6.898
  428WAT     H1 1526   8.408   2.003   6.815
  428WAT     H2 1527   8.345   1.917   6.938
  429WAT      O 1528   7.719   7.941   1.518
  429WAT     H1 1529   7.741   7.843   1.512
  429WAT     H2 1530   7.648   7.963   1.452
  430WAT      O 1531   7.193   5.757   8.098
  430WAT     H1 1532   7.235   5.714   8.177
  430WAT     H2 1533   7.128   5.827   8.128
  431WAT      O 1534   7.057   7.918   4.956
  431WAT     H1 1535   7.148   7.894   4.989
  431WAT     H2 1536   6.989   7.902   5.028
  432WAT      O 1537   8.504   3.970   5.521
  432WAT     H1 1538   8.538   3.884   5.484
  432WAT     H2 1539   8.416   3.991   5.479
  433WAT      O 1540   9.229   8.732   4.691
  433WAT     H1 1541   9.316   8.683   4.701
  433WAT     H2 1542   9.187   8.707   4.604
  434WAT      O 1543   1.734   8.767   6.342
  434WAT     H1 1544   1.811   8.825   6.312
  434WAT     H2 1545   1.769   8.678   6.370
  435WAT      O 1546   8.630   4.578   4.326
  435WAT     H1 1547   8.537   4.577   4.362
  435WAT     H2 1548   8.628   4.572   4.226
  436WAT      O 1549   6.789   0.526   3.614
  436WAT     H1 1550   6.876   0.480   3.630
  436WAT     H2 1551   6.800   0.597   3.544
  437WAT      O 1552   1.466   3.795   1.107
  437WAT     H1 1553   1.459   3.865   1.036
  437WAT     H2 1554   1.477   3.840   1.196
  438WAT      O 1555   8.693   2.008   3.641
  438WAT     H1 1556   8.756   2.036   3.569
  438WAT     H2 1557   8.742   2.004   3.728
  439WAT      O 1558   5.211   6.362   5.875
  439WAT     H1 1559   5.212   6.313   5.963
  439WAT     H2 1560   5.305   6.388   5.851
  440WAT      O 1561   3.950   3.939   1.663
  440WAT     H1 1562   3.870   3.946   1.723
  440WAT     H2 1563   3.963   4.026   1.616
  441WAT      O 1564   1.268   9.479   8.707
  441WAT     H1 1565   1.192   9.492   8.771
  441WAT     H2 1566   1.233   9.450   8.618
  442WAT      O 1567   3.995   2.249   5.680
  442WAT     H1 1568   4.052   2.318   5.723
  442WAT     H2 1569   3.999   2.164   5.734
  443WAT      O 1570   7.882   0.950   9.461
  443WAT     H1 1571   7.857   0.897   9.380
  443WAT     H2 1572   7.800   0.970   9.515
  444WAT      O 1573   5.316   6.365   7.111
  444WAT     H1 1574   5.366   6.446   7.141
  444WAT     H2 1575   5.307   6.367   7.011
  445WAT      O 1576   2.162   3.191   4.172
  445WAT     H1 1577   2.229   3.263   4.187
  445WAT     H2 1578   2.118   3.205   4.083
  446WAT      O 1579   1.365   6.388   6.670
  446WAT     H1 1580   1.401   6.441   6.593
  446WAT     H2 1581   1.415   6.413   6.753
  447WAT      O 1582   5.392   7.029   2.838
  447WAT     H1 1583   5.383   6.993   2.745
  447WAT     H2 1584   5.463   7.099   2.841
  448WAT      O 1585   3.141   3.760   0.457
  448WAT     H1 1586   3.232   3.750   0.497
  448WAT     H2 1587   3.085   3.681   0.483
  449WAT      O 1588   4.048   1.203   1.328
  449WAT     H1 1589   3.998   1.165   1.250
  449WAT     H2 1590   4.126   1.144   1.349
  450WAT      O 1591   6.603   4.068   0.691
  450WAT     H1 1592   6.639   4.030   0.606
  450WAT     H2 1593   6.645   4.019   0.768
  451WAT      O 1594   0.599   1.529   5.178
  451WAT     H1 1595   0.547   1.510   5.095
  451WAT     H2 1596   0.536   1.552   5.252
  452WAT      O 1597   4.124   6.841   6.698
  452WAT     H1 1598   4.116   6.812   6.793
  452WAT     H2 1599   4.106   6.939   6.691
  453WAT      O 1600   9.370   0.850   2.817
  453WAT     H1 1601   9.393   0.771   2.873
  453WAT     H2 1602   9.274   0.846   2.791
  454WAT      O 1603   8.390   8.496   0.245
  454WAT     H1 1604   8.344   8.444   0.317
  454WAT     H2 1605   8.365   8.459   0.156
  455WAT      O 1606   5.030   9.347   4.662
  455WAT     H1 1607   5.074   9.421   4.611
  455WAT     H2 1608   5.002   9.275   4.598
  456WAT      O 1609   5.745   6.384   0.577
  456WAT     H1 1610   5.801   6.306   0.549
  456WAT     H2 1611   5.794   6.469   0.556
  457WAT      O 1612   2.671   5.455   6.668
  457WAT     H1 1613   2.713   5.533   6.716
  457WAT     H2 1614   2.665   5.476   6.570
  458WAT      O 1615   2.006   4.362   1.571
  458WAT     H1 1616   1.965   4.453   1.561
  458WAT     H2 1617   2.104   4.368   1.553
  459WAT      O 1618   5.759   7.682   8.128
  459WAT     H1 1619   5.692   7.610   8.108
  459WAT     H2 1620   5.820   7.651   8.200
  460WAT      O 1621   7.375   3.502   9.816
  460WAT     H1 1622   7.359   3.508   9.914
  460WAT     H2 1623   7.420   3.415   9.794
  461WAT      O 1624   4.816   7.470   4.347
  461WAT     H1 1625   4.734   7.442   4.396
  461WAT     H2 1626   4.897   7.433   4.393
  462WAT      O 1627   8.862   8.314   0.711
  462WAT     H1 1628   8.940   8.369   0.681
  462WAT     H2 1629   8.893   8.221   0.732
  463WAT      O 1630   8.066   0.272   3.712
  463WAT     H1 1631   8.131   0.339   3.676
  463WAT     H2 1632   8.006   0.317   3.778
  464WAT      O 1633   5.253   9.398   6.010
  464WAT     H1 1634   5.281   9.344   6.089
  464WAT     H2 1635   5.257   9.342   5.927
  465WAT      O 1636   2.882   4.417   9.536
  465WAT     H1 1637   2.874   4.342   9.470
  465WAT     H2 1638   2.945   4.390   9.609
  466WAT      O 1639   9.327   9.609   0.304
  466WAT     H1 1640   9.369   9.696   0.331
  466WAT     H2 1641   9.289   9.618   0.212
  467WAT      O 1642   3.196   4.463   8.680
  467WAT     H1 1643   3.135   4.393   8.644
  467WAT     H2 1644   3.224   4.439   8.773
  468WAT      O 1645   7.524   7.712   3.765
  468WAT     H1 1646   7.492   7.739   3.674
  468WAT     H2 1647   7.481   7.770   3.834
  469WAT      O 1648   0.037   4.971   2.178
  469WAT     H1 1649   0.083   4.885   2.156
  469WAT     H2 1650   0.101   5.047   2.169
  470WAT      O 1651   7.613   8.113   8.322
  470WAT     H1 1652   7.609   8.156   8.232
  470WAT     H2 1653   7.539   8.047   8.332
  471WAT      O 1654   2.911   5.105   4.401
  471WAT     H1 1655   2.814   5.098   4.374
  471WAT     H2 1656   2.946   5.014   4.421
  472WAT      O 1657   8.647   5.055   7.100
  472WAT     H1 1658   8.570   4.995   7.079
  472WAT     H2 1659   8.612   5.145   7.128
  473WAT      O 1660   0.327   9.153   5.752
  473WAT     H1 1661   0.426   9.151   5.737
  473WAT     H2 1662   0.306   9.202   5.836
  474WAT      O 1663   7.473   4.161   1.085
  474WAT     H1 1664   7.542   4.207   1.142
  474WAT     H2 1665   7.386   4.209   1.094
  475WAT      O 1666   7.116   7.098   8.109
  475WAT     H1 1667   7.214   7.101   8.129
  475WAT     H2 1668   7.084   7.003   8.114
  476WAT      O 1669   2.304   7.494   0.506
  476WAT     H1 1670   2.362   7.484   0.425
  476WAT     H2 1671   2.287   7.404   0.546
  477WAT      O 1672   3.365   2.340   6.987
  477WAT     H1 1673   3.438   2.314   7.051
  477WAT     H2 1674   3.277   2.312   7.025
  478WAT      O 1675   0.993   7.524   8.608
  478WAT     H1 1676   1.064   7.593   8.593
  478WAT     H2 1677   0.958   7.493   8.520
  479WAT      O 1678   3.774   9.315   9.108
  479WAT     H1 1679   3.709   9.391   9.102
  479WAT     H2 1680   3.856   9.345   9.157
  480WAT      O 1681   3.788   2.286   0.408
  480WAT     H1 1682   3.714   2.222   0.428
  480WAT     H2 1683   3.811   2.281   0.311
  481WAT      O 1684   0.137   2.335   4.801
  481WAT     H1 1685   0.190   2.378   4.874
  481WAT     H2 1686   0.041   2.363   4.810
  482WAT      O 1687   4.402   5.342   2.749
  482WAT     H1 1688   4.442   5.287   2.822
  482WAT     H2 1689   4.463   5.418   2.727
  483WAT      O 1690   1.659   4.481   9.672
  483WAT     H1 1691   1.745   4.504   9.718
  483WAT     H2 1692   1.660   4.385   9.645
  484WAT      O 1693   2.777   8.598   8.154
  484WAT     H1 1694   2.716   8.657   8.101
  484WAT     H2 1695   2.724   8.521   8.191
  485WAT      O 1696   2.636   7.693   4.209
  485WAT     H1 1697   2.613   7.745   4.127
  485WAT     H2 1698   2.552   7.669   4.258
  486WAT      O 1699   4.783   6.247   2.184
  486WAT     H1 1700   4.695   6.203   2.167
  486WAT     H2 1701   4.824   6.274   2.096
  487WAT      O 1702   7.387   6.855   1.588
  487WAT     H1 1703   7.331   6.774   1.567
  487WAT     H2 1704   7.479   6.842   1.551
  488WAT      O 1705   9.863   2.355   7.171
  488WAT     H1 1706   9.792   2.318   7.110
  488WAT     H2 1707   9.953   2.327   7.138
  489WAT      O 1708   4.294   7.820   9.867
  489WAT     H1 1709   4.241   7.902   9.888
  489WAT     H2 1710   4.262   7.780   9.781
  490WAT      O 1711   6.530   8.285   6.999
  490WAT     H1 1712   6.615   8.291   6.947
  490WAT     H2 1713   6.549   8.299   7.096
  491WAT      O 1714   0.637   0.238   1.583
  491WAT     H1 1715   0.644   0.318   1.523
  491WAT     H2 1716   0.727   0.218   1.622
  492WAT      O 1717   1.138   8.048   9.160
  492WAT     H1 1718   1.171   8.141   9.145
  492WAT     H2 1719   1.123   8.004   9.071
  493WAT      O 1720   6.333   4.713   6.867
  493WAT     H1 1721   6.244   4.739   6.829
  493WAT     H2 1722   6.333   4.615   6.887
  494WAT      O 1723   9.122   8.691   3.706
  494WAT     H1 1724   9.169   8.776   3.681
  494WAT     H2 1725   9.119   8.630   3.627
  495WAT      O 1726   0.956   4.005   3.279
  495WAT     H1 1727   0.978   4.100   3.259
  495WAT     H2 1728   0.883   4.000   3.347
  496WAT      O 1729   5.204   7.166   4.187
  496WAT     H1 1730   5.231   7.253   4.146
  496WAT     H2 1731   5.285   7.114   4.212
  497WAT      O 1732   2.415   0.336   8.163
  497WAT     H1 1733   2.488   0.274   8.134
  497WAT     H2 1734   2.334   0.282   8.187
  498WAT      O 1735   9.600   4.318   1.132
  498WAT     H1 1736   9.529   4.354   1.193
  498WAT     H2 1737   9.689   4.324   1.177
  499WAT      O 1738   7.934   6.322   9.612
  499WAT     H1 1739   7.859   6.350   9.552
  499WAT     H2 1740   7.981   6.243   9.572
  500WAT      O 1741   4.251   4.074   5.112
  500WAT     H1 1742   4.157   4.097   5.138
  500WAT     H2 1743   4.315   4.126   5.168
  501WAT      O 1744   8.476   6.614   7.363
  501WAT     H1 1745   8.440   6.558   7.438
  501WAT     H2 1746   8.525   6.556   7.298
  502WAT      O 1747   2.798   6.513   2.709
  502WAT     H1 1748   2.896   6.526   2.696
  502WAT     H2 1749   2.761   6.459   2.633
  503WAT      O 1750   2.284   6.098   5.433
  503WAT     H1 1751   2.243   6.046   5.508
  503WAT     H2 1752   2.214   6.156   5.390
  504WAT      O 1753   5.873   4.682   0.469
  504WAT     H1 1754   5.888   4.736   0.552
  504WAT     H2 1755   5.950   4.696   0.406
  505WAT      O 1756   6.176   0.243   5.534
  505WAT     H1 1757   6.134   0.260   5.623
  505WAT     H2 1758   6.217   0.152   5.532
  506WAT      O 1759   5.720   1.806   6.749
  506WAT     H1 1760   5.676   1.753   6.677
  506WAT     H2 1761   5.793   1.752   6.791
  507WAT      O 1762   3.630   6.972   6.871
  507WAT     H1 1763   3.705   7.011   6.817
  507WAT     H2 1764   3.548   7.028   6.858
  508WAT      O 1765   9.722   8.786   0.598
  508WAT     H1 1766   9.728   8.698   0.644
  508WAT     H2 1767   9.795   8.846   0.629
  509WAT      O 1768   1.725   3.826   5.563
  509WAT     H1 1769   1.817   3.844   5.600
  509WAT     H2 1770   1.661   3.892   5.601
  510WAT      O 1771   7.402   9.395   7.612
  510WAT     H1 1772   7.324   9.337   7.636
  510WAT     H2 1773   7.403   9.409   7.513
  511WAT      O 1774   6.271   8.328   6.737
  511WAT     H1 1775   6.302   8.311   6.643
  511WAT     H2 1776   6.280   8.244   6.790
  512WAT      O 1777   0.435   7.926   3.239
  512WAT     H1 1778   0.518   7.982   3.235
  512WAT     H2 1779   0.433   7.876   3.326
  513WAT      O 1780   5.547   8.233   1.921
  513WAT     H1 1781   5.472   8.238   1.986
  513WAT     H2 1782   5.627   8.280   1.957
  514WAT      O 1783   6.625   2.488   8.483
  514WAT     H1 1784   6.650   2.583   8.503
  514WAT     H2 1785   6.552   2.487   8.414
  515WAT      O 1786   0.793   1.022   9.318
  515WAT     H1 1787   0.843   0.946   9.360
  515WAT     H2 1788   0.833   1.108   9.349
  516WAT      O 1789   5.136   7.649   2.874
  516WAT     H1 1790   5.109   7.558   2.842
  516WAT     H2 1791   5.114   7.658   2.971
  517WAT      O 1792   4.991   5.867   6.103
  517WAT     H1 1793   5.060   5.797   6.123
  517WAT     H2 1794   5.033   5.957   6.100
  518WAT      O 1795   2.189   5.998   2.102
  518WAT     H1 1796   2.185   5.960   2.194
  518WAT     H2 1797   2.258   5.949   2.049
  519WAT      O 1798   1.909   1.202   1.971
  519WAT     H1 1799   1.844   1.262   2.019
  519WAT     H2 1800   1.995   1.251   1.956
  520WAT      O 1801   4.733   6.868   6.005
  520WAT     H1 1802   4.833   6.859   6.003
  520WAT     H2 1803   4.708   6.951   6.056
  521WAT      O 1804   9.885   5.242   0.110
  521WAT     H1 1805   9.821   5.180   0.066
  521WAT     H2 1806   9.972   5.242   0.060
  522WAT      O 1807   3.930   1.316   1.829
  522WAT     H1 1808   3.948   1.331   1.732
  522WAT     H2 1809   3.885   1.396   1.868
  523WAT      O 1810   9.307   2.888   7.510
  523WAT     H1 1811   9.225   2.931   7.545
  523WAT     H2 1812   9.387   2.920   7.561
  524WAT      O 1813   4.704   7.344   8.311
  524WAT     H1 1814   4.687   7.316   8.406
  524WAT     H2 1815   4.617   7.354   8.264
  525WAT      O 1816   1.991   1.800   5.554
  525WAT     H1 1817   1.994   1.840   5.645
  525WAT     H2 1818   1.906   1.749   5.542
  526WAT      O 1819   8.011   6.452   5.400
  526WAT     H1 1820   8.022   6.397   5.318
  526WAT     H2 1821   7.916   6.449   5.430
  527WAT      O 1822   6.526   6.449   8.740
  527WAT     H1 1823   6.533   6.362   8.789
  527WAT     H2 1824   6.615   6.474   8.703
  528WAT      O 1825   1.105   6.357   6.663
  528WAT     H1 1826   1.059   6.422   6.723
  528WAT     H2 1827   1.202   6.379   6.658
  529WAT      O 1828   0.846   1.092   1.226
  529WAT     H1 1829   0.797   1.136   1.302
  529WAT     H2 1830   0.921   1.036   1.262
  530WAT      O 1831   7.097   2.686   1.893
  530WAT     H1 1832   7.119   2.589   1.895
  530WAT     H2 1833   7.008   2.702   1.936
  531WAT      O 1834   3.432   2.493   3.153
  531WAT     H1 1835   3.387   2.540   3.228
  531WAT     H2 1836   3.431   2.551   3.071
  532WAT      O 1837   8.163   8.112   9.042
  532WAT     H1 1838   8.189   8.018   9.020
  532WAT     H2 1839   8.243   8.172   9.033
  533WAT      O 1840   5.813   7.654   4.066
  533WAT     H1 1841   5.895   7.709   4.054
  533WAT     H2 1842   5.793   7.645   4.164
  534WAT      O 1843   0.753   0.416   6.922
  534WAT     H1 1844   0.838   0.384   6.879
  534WAT     H2 1845   0.681   0.423   6.853
  535WAT      O 1846   7.439   8.797   7.830
  535WAT     H1 1847   7.441   8.848   7.916
  535WAT     H2 1848   7.382   8.845   7.763
  536WAT      O 1849   5.044   4.511   1.968
  536WAT     H1 1850   5.094   4.597   1.964
  536WAT     H2 1851   5.019   4.482   1.876
  537WAT      O 1852   0.958   5.390   4.245
  537WAT     H1 1853   0.881   5.454   4.241
  537WAT     H2 1854   0.924   5.299   4.271
  538WAT      O 1855   1.616   7.049   8.149
  538WAT     H1 1856   1.704   7.052   8.102
  538WAT     H2 1857   1.542   7.061   8.083
  539WAT      O 1858   9.620   0.071   3.225
  539WAT     H1 1859   9.533   0.025   3.208
  539WAT     H2 1860   9.691   0.030   3.169
  540WAT      O 1861   0.866   5.498   1.319
  540WAT     H1 1862   0.826   5.522   1.230
  540WAT     H2 1863   0.795   5.460   1.378
  541WAT      O 1864   6.219   9.344   6.851
  541WAT     H1 1865   6.162   9.277   6.804
  541WAT     H2 1866   6.300   9.300   6.888
  542WAT      O 1867   1.228   1.658   3.483
  542WAT     H1 1868   1.326   1.679   3.487
  542WAT     H2 1869   1.210   1.573   3.533
  543WAT      O 1870   7.248   4.292   6.069
  543WAT     H1 1871   7.159   4.337   6.063
  543WAT     H2 1872   7.317   4.348   6.022
  544WAT      O 1873   6.841   5.482   8.067
  544WAT     H1 1874   6.814   5.555   8.130
  544WAT     H2 1875   6.772   5.472   7.995
  545WAT      O 1876   2.440   0.621   1.149
  545WAT     H1 1877   2.357   0.618   1.206
  545WAT     H2 1878   2.473   0.715   1.144
  546WAT      O 1879   8.165   9.015   1.894
  546WAT     H1 1880   8.103   8.945   1.928
  546WAT     H2 1881   8.112   9.091   1.856
  547WAT      O 1882   6.895   6.064   7.628
  547WAT     H1 1883   6.807   6.028   7.595
  547WAT     H2 1884   6.907   6.157   7.596
  548WAT      O 1885   5.966   4.441   7.784
  548WAT     H1 1886   5.906   4.414   7.859
  548WAT     H2 1887   5.943   4.534   7.755
  549WAT      O 1888   8.725   9.399   3.351
  549WAT     H1 1889   8.635   9.402   3.308
  549WAT     H2 1890   8.724   9.450   3.436
  550WAT      O 1891   5.399   1.770   7.632
  550WAT     H1 1892   5.352   1.707   7.570
  550WAT     H2 1893   5.438   1.845   7.579
  551WAT      O 1894   2.426   6.344   4.631
  551WAT     H1 1895   2.417   6.432   4.584
  551WAT     H2 1896   2.414   6.270   4.566
  552WAT      O 1897   7.440   2.091   0.131
  552WAT     H1 1898   7.515   2.140   0.175
  552WAT     H2 1899   7.407   2.144   0.052
  553WAT      O 1900   5.986   1.346   3.361
  553WAT     H1 1901   5.898   1.318   3.323
  553WAT     H2 1902   6.054   1.276   3.342
  554WAT      O 1903   9.254   3.391   7.403
  554WAT     H1 1904   9.209   3.335   7.473
  554WAT     H2 1905   9.249   3.344   7.314
  555WAT      O 1906   4.678   4.285   0.025
  555WAT     H1 1907   4.592   4.303   0.073
  555WAT     H2 1908   4.747   4.257   0.092
  556WAT      O 1909   5.885   4.706   6.671
  556WAT     H1 1910   5.979   4.741   6.667
  556WAT     H2 1911   5.885   4.614   6.711
  557WAT      O 1912   9.836   8.297   5.390
  557WAT     H1 1913   9.813   8.302   5.293
  557WAT     H2 1914   9.856   8.389   5.424
  558WAT      O 1915   9.557   1.440   0.190
  558WAT     H1 1916   9.627   1.379   0.228
  558WAT     H2 1917   9.584   1.468   0.098
  559WAT      O 1918   5.397   0.395   3.658
  559WAT     H1 1919   5.334   0.443   3.598
  559WAT     H2 1920   5.470   0.354   3.604
  560WAT      O 1921   6.496   3.929   5.196
  560WAT     H1 1922   6.475   3.856   5.131
  560WAT     H2 1923   6.419   3.940   5.259
  561WAT      O 1924   2.548   8.371   2.051
  561WAT     H1 1925   2.594   8.283   2.041
  561WAT     H2 1926   2.453   8.356   2.080
  562WAT      O 1927   8.259   8.523   0.555
  562WAT     H1 1928   8.352   8.556   0.570
  562WAT     H2 1929   8.262   8.436   0.505
  563WAT      O 1930   9.615   5.539   5.113
  563WAT     H1 1931   9.635   5.628   5.072
  563WAT     H2 1932   9.627   5.467   5.044
  564WAT      O 1933   3.570   0.721   9.745
  564WAT     H1 1934   3.640   0.652   9.767
  564WAT     H2 1935   3.519   0.692   9.664
  565WAT      O 1936   6.820   4.743   0.380
  565WAT     H1 1937   6.866   4.712   0.297
  565WAT     H2 1938   6.728   4.706   0.383
  566WAT      O 1939   3.122   6.716   8.340
  566WAT     H1 1940   3.100   6.647   8.408
  566WAT     H2 1941   3.117   6.807   8.382
  567WAT      O 1942   4.736   0.404   0.778
  567WAT     H1 1943   4.816   0.355   0.743
  567WAT     H2 1944   4.653   0.367   0.735
  568WAT      O 1945   0.423   2.442   6.366
  568WAT     H1 1946   0.492   2.513   6.353
  568WAT     H2 1947   0.467   2.356   6.392
  569WAT      O 1948   0.383   7.497   4.895
  569WAT     H1 1949   0.324   7.420   4.919
  569WAT     H2 1950   0.475   7.481   4.932
  570WAT      O 1951   7.000   7.713   4.346
  570WAT     H1 1952   6.921   7.651   4.357
  570WAT     H2 1953   7.080   7.660   4.320
  571WAT      O 1954   9.110   8.923   4.860
  571WAT     H1 1955   9.160   8.853   4.810
  571WAT     H2 1956   9.127   9.013   4.819
  572WAT      O 1957   7.474   5.500   9.600
  572WAT     H1 1958   7.426   5.466   9.520
  572WAT     H2 1959   7.549   5.438   9.623
  573WAT      O 1960   2.610   6.981   8.803
  573WAT     H1 1961   2.700   6.954   8.768
  573WAT     H2 1962   2.621   7.035   8.886
  574WAT      O 1963   2.225   2.940   5.021
  574WAT     H1 1964   2.300   2.919   4.958
  574WAT     H2 1965   2.191   2.855   5.062
  575WAT      O 1966   5.321   7.486   9.744
  575WAT     H1 1967   5.355   7.554   9.679
  575WAT     H2 1968   5.388   7.474   9.817
  576WAT      O 1969   3.205   4.689   7.573
  576WAT     H1 1970   3.232   4.753   7.644
  576WAT     H2 1971   3.246   4.599   7.591
  577WAT      O 1972   3.094   9.156   7.930
  577WAT     H1 1973   3.014   9.102   7.956
  577WAT     H2 1974   3.151   9.173   8.010
  578WAT      O 1975   7.259   6.217   9.511
  578WAT     H1 1976   7.275   6.147   9.441
  578WAT     H2 1977   7.340   6.276   9.517
  579WAT      O 1978   8.446   7.833   4.631
  579WAT     H1 1979   8.447   7.879   4.542
  579WAT     H2 1980   8.439   7.734   4.617
  580WAT      O 1981   4.050   7.770   6.062
  580WAT     H1 1982   3.996   7.781   6.145
  580WAT     H2 1983   4.022   7.838   5.995
  581WAT      O 1984   3.146   9.694   6.198
  581WAT     H1 1985   3.108   9.609   6.233
  581WAT     H2 1986   3.144   9.763   6.271
  582WAT      O 1987   1.059   8.122   9.421
  582WAT     H1 1988   1.042   8.090   9.327
  582WAT     H2 1989   1.034   8.049   9.485
  583WAT      O 1990   0.658   7.792   8.735
  583WAT     H1 1991   0.605   7.787   8.820
  583WAT     H2 1992   0.646   7.707   8.684
  584WAT      O 1993   2.139   5.176   1.027
  584WAT     H1 1994   2.060   5.121   1.001
  584WAT     H2 1995   2.207   5.118   1.072
  585WAT      O 1996   2.682   1.091   1.897
  585WAT     H1 1997   2.730   1.112   1.982
  585WAT     H2 1998   2.592   1.052   1.917
  586WAT      O 1999   2.447   3.030   9.837
  586WAT     H1 2000   2.394   2.946   9.822
  586WAT     H2 2001   2.386   3.101   9.872
  587WAT      O 2002   5.696   3.127   1.257
  587WAT     H1 2003   5.757   3.203   1.232
  587WAT     H2 2004   5.641   3.155   1.336
  588WAT      O 2005   3.229   8.470   7.053
  588WAT     H1 2006   3.260   8.394   6.995
  588WAT     H2 2007   3.296   8.487   7.124
  589WAT      O 2008   9.126   1.539   3.721
  589WAT     H1 2009   9.078   1.622   3.750
  589WAT     H2 2010   9.131   1.474   3.796
  590WAT      O 2011   8.433   6.411   9.488
  590WAT     H1 2012   8.505   6.396   9.555
  590WAT     H2 2013   8.467   6.467   9.413
  591WAT      O 2014   6.585   8.678   6.654
  591WAT     H1 2015   6.495   8.709   6.685
  591WAT     H2 2016   6.574   8.601   6.591
  592WAT      O 2017   5.670   2.136   0.576
  592WAT     H1 2018   5.603   2.206   0.554
  592WAT     H2 2019   5.760   2.163   0.541
  593WAT      O 2020   0.422   2.881   4.924
  593WAT     H1 2021   0.424   2.798   4.869
  593WAT     H2 2022   0.406   2.857   5.020
  594WAT      O 2023   4.262   9.351   0.344
  594WAT     H1 2024   4.231   9.433   0.296
  594WAT     H2 2025   4.251   9.271   0.284
  595WAT      O 2026   6.540   0.656   0.588
  595WAT     H1 2027   6.564   0.722   0.659
  595WAT     H2 2028   6.602   0.578   0.592
  596WAT      O 2029   7.017   5.694   2.097
  596WAT     H1 2030   7.025   5.622   2.165
  596WAT     H2 2031   6.988   5.779   2.141
  597WAT      O 2032   7.308   2.952   7.949
  597WAT     H1 2033   7.350   2.926   8.036
  597WAT     H2 2034   7.317   3.051   7.935
  598WAT      O 2035   3.425   9.004   3.513
  598WAT     H1 2036   3.410   9.102   3.502
  598WAT     H2 2037   3.364   8.969   3.584
  599WAT      O 2038   6.059   4.119   0.181
  599WAT     H1 2039   6.096   4.143   0.271
  599WAT     H2 2040   6.085   4.026   0.157
  600WAT      O 2041   8.508   6.699   0.547
  600WAT     H1 2042   8.569   6.683   0.469
  600WAT     H2 2043   8.527   6.633   0.619
  601WAT      O 2044   2.463   5.357   3.469
  601WAT     H1 2045   2.477   5.292   3.543
  601WAT     H2 2046   2.549   5.371   3.419
  602WAT      O 2047   9.654   5.978   7.003
  602WAT     H1 2048   9.657   6.069   7.044
  602WAT     H2 2049   9.605   5.915   7.063
  603WAT      O 2050   2.208   8.876   4.244
  603WAT     H1 2051   2.225   8.974   4.227
  603WAT     H2 2052   2.184   8.863   4.340
  604WAT      O 2053   2.238   9.423   8.225
  604WAT     H1 2054   2.212   9.479   8.304
  604WAT     H2 2055   2.156   9.394   8.175
  605WAT      O 2056   4.398   5.609   0.634
  605WAT     H1 2057   4.444   5.552   0.702
  605WAT     H2 2058   4.463   5.676   0.597
  606WAT      O 2059   7.899   1.482   9.160
  606WAT     H1 2060   7.994   1.458   9.182
  606WAT     H2 2061   7.895   1.578   9.132
  607WAT      O 2062   3.824   4.672   0.779
  607WAT     H1 2063   3.731   4.657   0.813
  607WAT     H2 2064   3.825   4.656   0.680
  608WAT      O 2065   0.545   7.412   3.121
  608WAT     H1 2066   0.578   7.397   3.027
  608WAT     H2 2067   0.554   7.327   3.172
  609WAT      O 2068   4.530   7.455   7.603
  609WAT     H1 2069   4.528   7.493   7.511
  609WAT     H2 2070   4.489   7.520   7.667
  610WAT      O 2071   7.522   0.498   2.435
  610WAT     H1 2072   7.538   0.399   2.433
  610WAT     H2 2073   7.431   0.518   2.400
  611WAT      O 2074   1.453   9.711   1.842
  611WAT     H1 2075   1.457   9.611   1.851
  611WAT     H2 2076   1.534   9.752   1.883
  612WAT      O 2077   8.412   7.769   1.918
  612WAT     H1 2078   8.328   7.725   1.885
  612WAT     H2 2079   8.408   7.867   1.901
  613WAT      O 2080   3.200   1.133   4.930
  613WAT     H1 2081   3.282   1.144   4.985
  613WAT     H2 2082   3.126   1.189   4.967
  614WAT      O 2083   5.488   7.404   3.284
  614WAT     H1 2084   5.433   7.487   3.296
  614WAT     H2 2085   5.548   7.392   3.364
  615WAT      O 2086   1.866   6.449   5.394
  615WAT     H1 2087   1.870   6.515   5.468
  615WAT     H2 2088   1.770   6.431   5.370
  616WAT      O 2089   9.401   5.806   6.477
  616WAT     H1 2090   9.309   5.836   6.452
  616WAT     H2 2091   9.394   5.732   6.544
  617WAT      O 2092   8.247   2.537   0.036
  617WAT     H1 2093   8.252   2.542   0.136
  617WAT     H2 2094   8.176   2.472   0.009
  618WAT      O 2095   1.809   3.280   0.170
  618WAT     H1 2096   1.772   3.191   0.146
  618WAT     H2 2097   1.852   3.322   0.090
  619WAT      O 2098   0.452   8.748   3.255
  619WAT     H1 2099   0.431   8.754   3.158
  619WAT     H2 2100   0.475   8.838   3.290
  620WAT      O 2101   3.997   3.109   6.163
  620WAT     H1 2102   3.899   3.120   6.183
  620WAT     H2 2103   4.008   3.046   6.086
  621WAT      O 2104   3.661   1.969   3.659
  621WAT     H1 2105   3.566   1.974   3.688
  621WAT     H2 2106   3.682   1.877   3.627
  622WAT      O 2107   6.110   3.099   7.376
  622WAT     H1 2108   6.097   3.000   7.375
  622WAT     H2 2109   6.201   3.122   7.343
  623WAT      O 2110   0.854   7.041   0.241
  623WAT     H1 2111   0.848   7.120   0.180
  623WAT     H2 2112   0.762   7.006   0.259
  624WAT      O 2113   6.394   2.075   3.106
  624WAT     H1 2114   6.433   2.008   3.043
  624WAT     H2 2115   6.441   2.162   3.097
  625WAT      O 2116   1.385   8.474   3.192
  625WAT     H1 2117   1.430   8.405   3.136
  625WAT     H2 2118   1.288   8.451   3.203
  626WAT      O 2119   6.721   7.445   0.890
  626WAT     H1 2120   6.726   7.484   0.798
  626WAT     H2 2121   6.636   7.393   0.900
  627WAT      O 2122   0.764   9.582   2.130
  627WAT     H1 2123   0.712   9.632   2.060
  627WAT     H2 2124   0.712   9.582   2.216
  628WAT      O 2125   5.956   1.633   4.471
  628WAT     H1 2126   5.958   1.608   4.374
  628WAT     H2 2127   5.874   1.596   4.514
  629WAT      O 2128   0.904   6.135   7.864
  629WAT     H1 2129   0.961   6.058   7.892
  629WAT     H2 2130   0.837   6.155   7.936
  630WAT      O 2131   4.682   7.728   9.590
  630WAT     H1 2132   4.717   7.684   9.508
  630WAT     H2 2133   4.634   7.812   9.565
  631WAT      O 2134   7.510   0.770   5.262
  631WAT     H1 2135   7.430   0.730   5.307
  631WAT     H2 2136   7.588   0.708   5.271
  632WAT      O 2137   2.844   2.060   7.415
  632WAT     H1 2138   2.758   2.111   7.418
  632WAT     H2 2139   2.852   2.013   7.328
  633WAT      O 2140   0.040   7.679   6.114
  633WAT     H1 2141   0.008   7.688   6.020
  633WAT     H2 2142   0.009   7.592   6.152
  634WAT      O 2143   3.376   0.090   3.981
  634WAT     H1 2144   3.396   0.093   4.079
  634WAT     H2 2145   3.454   0.053   3.932
  635WAT      O 2146   8.180   7.109   7.921
  635WAT     H1 2147   8.268   7.082   7.880
  635WAT     H2 2148   8.113   7.037   7.904
  636WAT      O 2149   0.090   7.216   2.557
  636WAT     H1 2150   0.130   7.144   2.613
  636WAT     H2 2151   0.163   7.275   2.521
  637WAT      O 2152   1.578   9.672   6.740
  637WAT     H1 2153   1.637   9.657   6.820
  637WAT     H2 2154   1.573   9.589   6.686
  638WAT      O 2155   3.060   5.371   7.469
  638WAT     H1 2156   3.056   5.284   7.519
  638WAT     H2 2157   3.156   5.394   7.451
  639WAT      O 2158   9.885   4.551   4.016
  639WAT     H1 2159   9.941   4.611   4.073
  639WAT     H2 2160   9.890   4.457   4.050
  640WAT      O 2161   1.472   3.029   7.563
  640WAT     H1 2162   1.523   3.105   7.605
  640WAT     H2 2163   1.379   3.059   7.543
  641WAT      O 2164   0.327   7.328   6.567
  641WAT     H1 2165   0.340   7.252   6.504
  641WAT     H2 2166   0.411   7.344   6.618
  642WAT      O 2167   6.674   1.981   4.738
  642WAT     H1 2168   6.590   1.989   4.685
  642WAT     H2 2169   6.728   2.065   4.727
  643WAT      O 2170   8.702   6.775   3.824
  643WAT     H1 2171   8.618   6.745   3.779
  643WAT     H2 2172   8.753   6.695   3.857
  644WAT      O 2173   6.114   4.808   6.650
  644WAT     H1 2174   6.143   4.895   6.690
  644WAT     H2 2175   6.162   4.792   6.564
  645WAT      O 2176   5.217   5.159   8.823
  645WAT     H1 2177   5.130   5.151   8.775
  645WAT     H2 2178   5.201   5.166   8.921
  646WAT      O 2179   7.292   1.773   2.576
  646WAT     H1 2180   7.332   1.761   2.485
  646WAT     H2 2181   7.270   1.870   2.589
  647WAT      O 2182   6.583   6.564   6.129
  647WAT     H1 2183   6.492   6.600   6.148
  647WAT     H2 2184   6.577   6.466   6.113
  648WAT      O 2185   6.284   2.409   6.539
  648WAT     H1 2186   6.257   2.324   6.583
  648WAT     H2 2187   6.296   2.394   6.441
  649WAT      O 2188   8.956   0.676   1.866
  649WAT     H1 2189   8.974   0.763   1.912
  649WAT     H2 2190   8.879   0.687   1.803
  650WAT      O 2191   3.912   2.917   7.772
  650WAT     H1 2192   3.902   2.817   7.779
  650WAT     H2 2193   3.850   2.952   7.702
  651WAT      O 2194   1.912   8.776   4.369
  651WAT     H1 2195   1.959   8.856   4.407
  651WAT     H2 2196   1.947   8.694   4.414
  652WAT      O 2197   5.308   7.423   2.583
  652WAT     H1 2198   5.336   7.362   2.509
  652WAT     H2 2199   5.388   7.443   2.641
  653WAT      O 2200   8.432   0.413   6.399
  653WAT     H1 2201   8.447   0.424   6.498
  653WAT     H2 2202   8.348   0.361   6.384
  654WAT      O 2203   6.215   9.269   0.964
  654WAT     H1 2204   6.286   9.205   0.937
  654WAT     H2 2205   6.147   9.222   1.021
  655WAT      O 2206   0.931   2.075   1.025
  655WAT     H1 2207   0.836   2.050   1.040
  655WAT     H2 2208   0.991   2.014   1.077
  656WAT      O 2209   3.467   0.932   6.003
  656WAT     H1 2210   3.454   0.975   6.092
  656WAT     H2 2211   3.417   0.984   5.933
  657WAT      O 2212   2.262   5.532   8.530
  657WAT     H1 2213   2.233   5.627   8.534
  657WAT     H2 2214   2.193   5.478   8.480
  658WAT      O 2215   7.490   5.916   4.090
  658WAT     H1 2216   7.473   5.870   4.003
  658WAT     H2 2217   7.588   5.929   4.102
  659WAT      O 2218   9.470   2.269   5.052
  659WAT     H1 2219   9.516   2.210   4.985
  659WAT     H2 2220   9.405   2.215   5.105
  660WAT      O 2221   0.706   1.292   3.492
  660WAT     H1 2222   0.726   1.335   3.580
  660WAT     H2 2223   0.610   1.309   3.468
  661WAT      O 2224   5.318   3.211   2.860
  661WAT     H1 2225   5.312   3.193   2.958
  661WAT     H2 2226   5.411   3.191   2.828
  662WAT      O 2227   9.745   5.386   5.288
  662WAT     H1 2228   9.702   5.471   5.257
  662WAT     H2 2229   9.817   5.406   5.354
  663WAT      O 2230   0.125   9.508   6.411
  663WAT     H1 2231   0.172   9.529   6.325
  663WAT     H2 2232   0.125   9.589   6.470
  664WAT      O 2233   7.686   5.150   1.824
  664WAT     H1 2234   7.757   5.136   1.755
  664WAT     H2 2235   7.670   5.064   1.873
  665WAT      O 2236   9.559   1.915   8.139
  665WAT     H1 2237   9.613   1.933   8.221
  665WAT     H2 2238   9.572   1.990   8.074
  666WAT      O 2239   9.825   8.526   2.203
  666WAT     H1 2240   9.727   8.530   2.221
  666WAT     H2 2241   9.875   8.544   2.287
  667WAT      O 2242   8.313   5.442   7.835
  667WAT     H1 2243   8.382   5.420   7.766
  667WAT     H2 2244   8.288   5.538   7.828
  668WAT      O 2245   6.550   9.340   6.427
  668WAT     H1 2246   6.568   9.262   6.486
  668WAT     H2 2247   6.455   9.338   6.397
  669WAT      O 2248   2.803   5.551   7.044
  669WAT     H1 2249   2.801   5.457   7.010
  669WAT     H2 2250   2.797   5.550   7.144
  670WAT      O 2251   8.176   4.947   3.688
  670WAT     H1 2252   8.083   4.912   3.682
  670WAT     H2 2253   8.196   5.005   3.609
  671WAT      O 2254   4.147   9.192   1.975
  671WAT     H1 2255   4.169   9.228   1.885
  671WAT     H2 2256   4.181   9.099   1.984
  672WAT      O 2257   1.015   5.852   4.538
  672WAT     H1 2258   0.962   5.799   4.605
  672WAT     H2 2259   1.080   5.911   4.586
  673WAT      O 2260   9.776   9.714   9.825
  673WAT     H1 2261   9.872   9.709   9.797
  673WAT     H2 2262   9.739   9.804   9.805
  674WAT      O 2263   3.501   1.326   1.085
  674WAT     H1 2264   3.549   1.375   1.159
  674WAT     H2 2265   3.403   1.334   1.099
  675WAT      O 2266   1.967   0.550   6.218
  675WAT     H1 2267   2.002   0.497   6.295
  675WAT     H2 2268   2.042   0.603   6.177
  676WAT      O 2269   1.570   5.353   6.385
  676WAT     H1 2270   1.580   5.264   6.430
  676WAT     H2 2271   1.648   5.411   6.408
  677WAT      O 2272   0.023   0.929   5.876
  677WAT     H1 2273   0.007   0.947   5.974
  677WAT     H2 2274  -0.016   0.841   5.852
  678WAT      O 2275   9.727   0.401   5.249
  678WAT     H1 2276   9.716   0.390   5.348
  678WAT     H2 2277   9.813   0.359   5.221
  679WAT      O 2278   3.106   3.436   2.438
  679WAT     H1 2279   3.132   3.432   2.342
  679WAT     H2 2280   3.188   3.442   2.495
  680WAT      O 2281   8.988   3.200   3.337
  680WAT     H1 2282   8.890   3.190   3.354
  680WAT     H2 2283   9.020   3.288   3.372
  681WAT      O 2284   7.353   8.762   8.787
  681WAT     H1 2285   7.266   8.748   8.834
  681WAT     H2 2286   7.427   8.759   8.854
  682WAT      O 2287   8.381   6.443   6.637
  682WAT     H1 2288   8.291   6.424   6.597
  682WAT     H2 2289   8.388   6.397   6.725
  683WAT      O 2290   3.548   3.182   8.942
  683WAT     H1 2291   3.571   3.277   8.961
  683WAT     H2 2292   3.598   3.122   9.004
  684WAT      O 2293   5.608   2.074   7.058
  684WAT     H1 2294   5.571   2.162   7.027
  684WAT     H2 2295   5.559   2.000   7.013
  685WAT      O 2296   6.311   8.407   7.302
  685WAT     H1 2297   6.247   8.375   7.372
  685WAT     H2 2298   6.308   8.507   7.296
  686WAT      O 2299   1.567   6.119   8.925
  686WAT     H1 2300   1.564   6.159   9.017
  686WAT     H2 2301   1.517   6.178   8.861
  687WAT      O 2302   3.179   2.732   9.363
  687WAT     H1 2303   3.200   2.657   9.426
  687WAT     H2 2304   3.083   2.726   9.334
  688WAT      O 2305   7.317   1.924   8.701
  688WAT     H1 2306   7.298   2.019   8.677
  688WAT     H2 2307   7.234   1.881   8.737
  689WAT      O 2308   6.102   8.405   6.405
  689WAT     H1 2309   6.036   8.449   6.345
  689WAT     H2 2310   6.055   8.372   6.487
  690WAT      O 2311   9.876   8.290   4.281
  690WAT     H1 2312   9.811   8.266   4.209
  690WAT     H2 2313   9.917   8.206   4.318
  691WAT      O 2314   4.491   1.024   8.820
  691WAT     H1 2315   4.556   0.983   8.757
  691WAT     H2 2316   4.520   1.117   8.843
  692WAT      O 2317   3.109   0.547   1.423
  692WAT     H1 2318   3.148   0.613   1.487
  692WAT     H2 2319   3.054   0.596   1.355
  693WAT      O 2320   6.979   2.223   8.303
  693WAT     H1 2321   6.930   2.174   8.231
  693WAT     H2 2322   7.034   2.158   8.356
  694WAT      O 2323   3.810   4.297   9.241
  694WAT     H1 2324   3.753   4.367   9.198
  694WAT     H2 2325   3.773   4.273   9.330
  695WAT      O 2326   8.050   1.927   9.673
  695WAT     H1 2327   7.951   1.942   9.675
  695WAT     H2 2328   8.097   2.010   9.705
  696WAT      O 2329   4.005   8.410   0.480
  696WAT     H1 2330   3.970   8.450   0.564
  696WAT     H2 2331   4.016   8.311   0.492
  697WAT      O 2332   9.202   4.778   8.441
  697WAT     H1 2333   9.128   4.844   8.445
  697WAT     H2 2334   9.275   4.806   8.503
  698WAT      O 2335   1.223   1.005   4.516
  698WAT     H1 2336   1.215   1.092   4.468
  698WAT     H2 2337   1.307   1.005   4.570
  699WAT      O 2338   8.251   4.803   7.197
  699WAT     H1 2339   8.294   4.726   7.245
  699WAT     H2 2340   8.223   4.872   7.264
  700WAT      O 2341   0.200   6.702   9.034
  700WAT     H1 2342   0.209   6.605   9.054
  700WAT     H2 2343   0.287   6.749   9.051
  701WAT      O 2344   3.784   9.557   2.697
  701WAT     H1 2345   3.843   9.515   2.629
  701WAT     H2 2346   3.739   9.637   2.658
  702WAT      O 2347   4.982   5.914   3.650
  702WAT     H1 2348   4.908   5.958   3.600
  702WAT     H2 2349   5.064   5.910   3.593
  703WAT      O 2350   5.286   8.723   8.094
  703WAT     H1 2351   5.274   8.627   8.069
  703WAT     H2 2352   5.358   8.763   8.038
  704WAT      O 2353   3.772   1.890   3.891
  704WAT     H1 2354   3.834   1.952   3.940
  704WAT     H2 2355   3.725   1.939   3.818
  705WAT      O 2356   9.674   8.087   5.508
  705WAT     H1 2357   9.754   8.028   5.501
  705WAT     H2 2358   9.695   8.176   5.469
  706WAT      O 2359   0.562   9.383   4.677
  706WAT     H1 2360   0.515   9.445   4.739
  706WAT     H2 2361   0.529   9.398   4.584
  707WAT      O 2362   0.765   4.872   8.080
  707WAT     H1 2363   0.785   4.825   7.994
  707WAT     H2 2364   0.731   4.805   8.147
  708WAT      O 2365   1.019   6.194   9.456
  708WAT     H1 2366   1.000   6.142   9.539
  708WAT     H2 2367   1.114   6.226   9.458
  709WAT      O 2368   3.017   2.011   6.779
  709WAT     H1 2369   3.116   2.005   6.793
  709WAT     H2 2370   2.970   1.971   6.858
  710WAT      O 2371   2.589   5.564   9.461
  710WAT     H1 2372   2.626   5.472   9.472
  710WAT     H2 2373   2.513   5.578   9.524
  711WAT      O 2374   2.029   4.401   1.932
  711WAT     H1 2375   2.006   4.350   2.014
  711WAT     H2 2376   2.082   4.483   1.958
  712WAT      O 2377   9.483   8.940   7.000
  712WAT     H1 2378   9.483   9.025   6.947
  712WAT     H2 2379   9.566   8.936   7.056
  713WAT      O 2380   0.671   0.105   8.829
  713WAT     H1 2381   0.717   0.017   8.815
  713WAT     H2 2382   0.584   0.105   8.780
  714WAT      O 2383   5.298   6.659   2.726
  714WAT     H1 2384   5.305   6.680   2.629
  714WAT     H2 2385   5.306   6.744   2.779
  715WAT      O 2386   5.883   5.350   9.074
  715WAT     H1 2387   5.807   5.412   9.049
  715WAT     H2 2388   5.848   5.277   9.132
  716WAT      O 2389   7.794   1.834   4.149
  716WAT     H1 2390   7.756   1.862   4.060
  716WAT     H2 2391   7.751   1.748   4.177
  717WAT      O 2392   8.557   3.851   1.690
  717WAT     H1 2393   8.481   3.813   1.742
  717WAT     H2 2394   8.540   3.838   1.592
  718WAT      O 2395   4.748   5.562   8.007
  718WAT     H1 2396   4.678   5.491   8.012
  718WAT     H2 2397   4.838   5.521   8.019
  719WAT      O 2398   5.128   3.427   0.512
  719WAT     H1 2399   5.218   3.442   0.471
  719WAT     H2 2400   5.137   3.411   0.610
  720WAT      O 2401   9.797   8.791   2.620
  720WAT     H1 2402   9.699   8.796   2.600
  720WAT     H2 2403   9.814   8.714   2.682
  721WAT      O 2404   7.755   8.114   2.466
  721WAT     H1 2405   7.822   8.147   2.532
  721WAT     H2 2406   7.752   8.176   2.388
  722WAT      O 2407   7.703   7.817   8.129
  722WAT     H1 2408   7.635   7.784   8.194
  722WAT     H2 2409   7.739   7.740   8.076
  723WAT      O 2410   0.178   7.275   0.257
  723WAT     H1 2411   0.119   7.215   0.312
  723WAT     H2 2412   0.143   7.279   0.163
  724WAT      O 2413   4.844   3.993   5.728
  724WAT     H1 2414   4.857   3.955   5.636
  724WAT     H2 2415   4.832   4.092   5.722
  725WAT      O 2416   0.987   1.001   1.965
  725WAT     H1 2417   1.081   0.968   1.950
  725WAT     H2 2418   0.980   1.040   2.057
  726WAT      O 2419   8.676   9.111   2.458
  726WAT     H1 2420   8.763   9.149   2.428
  726WAT     H2 2421   8.658   9.138   2.553
  727WAT      O 2422   1.509   8.823   7.207
  727WAT     H1 2423   1.463   8.864   7.129
  727WAT     H2 2424   1.499   8.724   7.203
  728WAT      O 2425   6.420   7.435   4.934
  728WAT     H1 2426   6.431   7.504   5.006
  728WAT     H2 2427   6.498   7.373   4.935
  729WAT      O 2428   8.550   1.710   2.464
  729WAT     H1 2429   8.614   1.782   2.489
  729WAT     H2 2430   8.567   1.629   2.520
  730WAT      O 2431   2.493   9.333   8.315
  730WAT     H1 2432   2.401   9.352   8.282
  730WAT     H2 2433   2.489   9.277   8.398
  731WAT      O 2434   3.745   5.431   2.709
  731WAT     H1 2435   3.826   5.374   2.722
  731WAT     H2 2436   3.759   5.492   2.631
  732WAT      O 2437   8.949   2.324   8.309
  732WAT     H1 2438   8.890   2.336   8.389
  732WAT     H2 2439   9.028   2.269   8.334
  733WAT      O 2440   2.649   4.929   7.321
  733WAT     H1 2441   2.693   5.004   7.370
  733WAT     H2 2442   2.565   4.902   7.369
  734WAT      O 2443   9.108   7.156   5.424
  734WAT     H1 2444   9.019   7.202   5.415
  734WAT     H2 2445   9.105   7.069   5.374
  735WAT      O 2446   8.313   7.528   8.975
  735WAT     H1 2447   8.388   7.500   9.035
  735WAT     H2 2448   8.246   7.453   8.969
  736WAT      O 2449   4.858   5.057   2.358
  736WAT     H1 2450   4.915   4.978   2.337
  736WAT     H2 2451   4.899   5.139   2.317
  737WAT      O 2452   2.272   0.058   3.622
  737WAT     H1 2453   2.293  -0.035   3.653
  737WAT     H2 2454   2.302   0.123   3.691
  738WAT      O 2455   3.845   1.331   6.636
  738WAT     H1 2456   3.855   1.275   6.719
  738WAT     H2 2457   3.748   1.343   6.615
  739WAT      O 2458   6.143   0.533   4.978
  739WAT     H1 2459   6.198   0.463   5.024
  739WAT     H2 2460   6.171   0.540   4.882
  740WAT      O 2461   4.591   6.431   0.392
  740WAT     H1 2462   4.498   6.449   0.362
  740WAT     H2 2463   4.642   6.517   0.398
  741WAT      O 2464   1.710   9.160   0.380
  741WAT     H1 2465   1.610   9.162   0.382
  741WAT     H2 2466   1.745   9.251   0.357
  742WAT      O 2467   6.699   5.524   3.676
  742WAT     H1 2468   6.711   5.428   3.653
  742WAT     H2 2469   6.602   5.546   3.676
  743WAT      O 2470   4.714   4.892   1.262
  743WAT     H1 2471   4.641   4.947   1.303
  743WAT     H2 2472   4.782   4.953   1.221
  744WAT      O 2473   3.663   2.618   2.693
  744WAT     H1 2474   3.580   2.607   2.638
  744WAT     H2 2475   3.642   2.675   2.772
  745WAT      O 2476   1.698   8.628   8.621
  745WAT     H1 2477   1.682   8.721   8.655
  745WAT     H2 2478   1.794   8.603   8.637
  746WAT      O 2479   8.992   8.020   0.482
  746WAT     H1 2480   9.087   7.991   0.477
  746WAT     H2 2481   8.966   8.064   0.396
  747WAT      O 2482   7.060   8.865   1.674
  747WAT     H1 2483   7.037   8.946   1.620
  747WAT     H2 2484   7.154   8.839   1.656
  748WAT      O 2485   8.418   8.440   2.224
  748WAT     H1 2486   8.508   8.484   2.230
  748WAT     H2 2487   8.352   8.505   2.185
  749WAT      O 2488   1.953   3.507   5.334
  749WAT     H1 2489   1.868   3.455   5.327
  749WAT     H2 2490   2.030   3.449   5.307
  750WAT      O 2491   2.471   3.987   6.455
  750WAT     H1 2492   2.513   3.906   6.497
  750WAT     H2 2493   2.444   3.965   6.361
  751WAT      O 2494   1.686   1.374   6.967
  751WAT     H1 2495   1.653   1.393   6.875
  751WAT     H2 2496   1.783   1.354   6.964
  752WAT      O 2497   9.410   2.165   9.745
  752WAT     H1 2498   9.331   2.148   9.687
  752WAT     H2 2499   9.395   2.123   9.835
  753WAT      O 2500   2.554   2.086   7.082
  753WAT     H1 2501   2.601   2.006   7.119
  753WAT     H2 2502   2.622   2.155   7.056
  754WAT      O 2503   0.751   7.522   4.108
  754WAT     H1 2504   0.684   7.479   4.047
  754WAT     H2 2505   0.714   7.607   4.144
  755WAT      O 2506   3.370   7.640   4.904
  755WAT     H1 2507   3.430   7.645   4.824
  755WAT     H2 2508   3.304   7.566   4.891
  756WAT      O 2509   4.691   6.557   0.065
  756WAT     H1 2510   4.678   6.478   0.005
  756WAT     H2 2511   4.780   6.551   0.109
  757WAT      O 2512   7.476   9.807   2.342
  757WAT     H1 2513   7.388   9.763   2.323
  757WAT     H2 2514   7.548   9.761   2.290
  758WAT      O 2515   5.172   9.080   6.092
  758WAT     H1 2516   5.209   9.141   6.162
  758WAT     H2 2517   5.077   9.058   6.115
  759WAT      O 2518   2.995   7.229   5.630
  759WAT     H1 2519   3.044   7.165   5.689
  759WAT     H2 2520   2.990   7.318   5.676
  760WAT      O 2521   9.218   7.741   8.325
  760WAT     H1 2522   9.139   7.787   8.367
  760WAT     H2 2523   9.296   7.748   8.387
  761WAT      O 2524   9.149   0.928   8.691
  761WAT     H1 2525   9.086   0.880   8.631
  761WAT     H2 2526   9.241   0.927   8.651
  762WAT      O 2527   3.756   5.673   5.311
  762WAT     H1 2528   3.791   5.752   5.363
  762WAT     H2 2529   3.672   5.641   5.353
  763WAT      O 2530   0.553   7.232   3.948
  763WAT     H1 2531   0.564   7.243   4.046
  763WAT     H2 2532   0.548   7.134   3.925
  764WAT      O 2533   6.866   1.467   0.210
  764WAT     H1 2534   6.879   1.541   0.277
  764WAT     H2 2535   6.905   1.383   0.247
  765WAT      O 2536   8.598   0.544   1.953
  765WAT     H1 2537   8.549   0.630   1.937
  765WAT     H2 2538   8.661   0.556   2.030
  766WAT      O 2539   2.126   5.834   3.074
  766WAT     H1 2540   2.081   5.746   3.091
  766WAT     H2 2541   2.140   5.882   3.160
  767WAT      O 2542   1.240   4.304   5.494
  767WAT     H1 2543   1.226   4.346   5.583
  767WAT     H2 2544   1.315   4.239   5.498
  768WAT      O 2545   4.608   2.655   3.620
  768WAT     H1 2546   4.594   2.572   3.567
  768WAT     H2 2547   4.702   2.658   3.654
  769WAT      O 2548   9.484   9.457   4.898
  769WAT     H1 2549   9.528   9.453   4.808
  769WAT     H2 2550   9.413   9.528   4.898
  770WAT      O 2551   9.751   0.622   0.382
  770WAT     H1 2552   9.786   0.684   0.453
  770WAT     H2 2553   9.792   0.645   0.294
  771WAT      O 2554   6.990   0.918   3.707
  771WAT     H1 2555   6.924   0.920   3.782
  771WAT     H2 2556   7.023   0.824   3.694
  772WAT      O 2557   6.959   9.373   5.299
  772WAT     H1 2558   6.940   9.451   5.358
  772WAT     H2 2559   7.005   9.302   5.352
  773WAT      O 2560   4.294   3.603   0.040
  773WAT     H1 2561   4.231   3.544   0.091
  773WAT     H2 2562   4.367   3.634   0.101
  774WAT      O 2563   0.775   7.667   6.940
  774WAT     H1 2564   0.815   7.753   6.909
  774WAT     H2 2565   0.825   7.634   7.020
  775WAT      O 2566   0.542   8.554   5.999
  775WAT     H1 2567   0.557   8.619   5.924
  775WAT     H2 2568   0.480   8.595   6.066
  776WAT      O 2569   1.142   1.396   9.525
  776WAT     H1 2570   1.182   1.459   9.459
  776WAT     H2 2571   1.157   1.302   9.495
  777WAT      O 2572   1.731   2.461   1.350
  777WAT     H1 2573   1.798   2.450   1.276
  777WAT     H2 2574   1.656   2.519   1.319
  778WAT      O 2575   9.081   5.088   3.360
  778WAT     H1 2576   9.140   5.168   3.365
  778WAT     H2 2577   9.070   5.060   3.264
  779WAT      O 2578   7.909   1.157   5.614
  779WAT     H1 2579   7.855   1.141   5.531
  779WAT     H2 2580   7.847   1.180   5.689
  780WAT      O 2581   5.837   6.012   3.452
  780WAT     H1 2582   5.832   6.101   3.498
  780WAT     H2 2583   5.779   5.947   3.501
  781WAT      O 2584   5.325   9.477   9.548
  781WAT     H1 2585   5.237   9.520   9.530
  781WAT     H2 2586   5.342   9.405   9.481
  782WAT      O 2587   6.180   6.073   4.889
  782WAT     H1 2588   6.189   5.995   4.951
  782WAT     H2 2589   6.259   6.075   4.827
  783WAT      O 2590   5.288   0.511   9.361
  783WAT     H1 2591   5.372   0.490   9.412
  783WAT     H2 2592   5.286   0.456   9.277
  784WAT      O 2593   1.153   7.052   6.345
  784WAT     H1 2594   1.236   7.077   6.395
  784WAT     H2 2595   1.157   6.954   6.321
  785WAT      O 2596   5.872   6.154   2.711
  785WAT     H1 2597   5.837   6.243   2.683
  785WAT     H2 2598   5.882   6.152   2.811
  786WAT      O 2599   2.600   8.819   8.296
  786WAT     H1 2600   2.522   8.783   8.244
  786WAT     H2 2601   2.663   8.865   8.233
  787WAT      O 2602   5.750   1.297   8.873
  787WAT     H1 2603   5.757   1.291   8.972
  787WAT     H2 2604   5.841   1.293   8.833
  788WAT      O 2605   2.666   6.824   6.541
  788WAT     H1 2606   2.700   6.888   6.611
  788WAT     H2 2607   2.692   6.731   6.565
  789WAT      O 2608   3.660   8.172   0.281
  789WAT     H1 2609   3.621   8.081   0.264
  789WAT     H2 2610   3.602   8.242   0.239
  790WAT      O 2611   5.093   8.185   9.144
  790WAT     H1 2612   5.105   8.168   9.046
  790WAT     H2 2613   4.996   8.180   9.167
  791WAT      O 2614   9.785   3.559   3.872
  791WAT     H1 2615   9.869   3.545   3.923
  791WAT     H2 2616   9.764   3.657   3.867
  792WAT      O 2617   3.794   8.537   1.378
  792WAT     H1 2618   3.716   8.479   1.354
  792WAT     H2 2619   3.825   8.586   1.297
  793WAT      O 2620   4.768   4.930   6.215
  793WAT     H1 2621   4.727   4.888   6.134
  793WAT     H2 2622   4.829   4.865   6.260
  794WAT      O 2623   7.175   8.411   1.129
  794WAT     H1 2624   7.176   8.472   1.209
  794WAT     H2 2625   7.098   8.434   1.070
  795WAT      O 2626   4.273   5.527   8.491
  795WAT     H1 2627   4.314   5.565   8.573
  795WAT     H2 2628   4.191   5.476   8.515
  796WAT      O 2629   7.526   8.779   2.246
  796WAT     H1 2630   7.432   8.746   2.245
  796WAT     H2 2631   7.585   8.711   2.291
  797WAT      O 2632   8.646   8.834   8.674
  797WAT     H1 2633   8.733   8.789   8.693
  797WAT     H2 2634   8.664   8.926   8.637
  798WAT      O 2635   4.478   5.077   1.696
  798WAT     H1 2636   4.567   5.038   1.718
  798WAT     H2 2637   4.476   5.103   1.599
  799WAT      O 2638   7.868   9.288   1.374
  799WAT     H1 2639   7.795   9.264   1.311
  799WAT     H2 2640   7.956   9.285   1.326
  800WAT      O 2641   2.451   5.666   7.644
  800WAT     H1 2642   2.396   5.709   7.572
  800WAT     H2 2643   2.539   5.712   7.650
  801WAT      O 2644   6.187   8.293   3.913
  801WAT     H1 2645   6.122   8.291   3.837
  801WAT     H2 2646   6.280   8.304   3.878
  802WAT      O 2647   6.298   5.273   4.625
  802WAT     H1 2648   6.211   5.320   4.635
  802WAT     H2 2649   6.367   5.318   4.682
  803WAT      O 2650   2.884   8.917   0.324
  803WAT     H1 2651   2.850   8.834   0.279
  803WAT     H2 2652   2.876   8.907   0.423
  804WAT      O 2653   9.083   8.640   2.114
  804WAT     H1 2654   9.050   8.719   2.165
  804WAT     H2 2655   9.115   8.669   2.024
  805WAT      O 2656   2.837   7.054   4.321
  805WAT     H1 2657   2.840   7.016   4.414
  805WAT     H2 2658   2.850   6.980   4.255
  806WAT      O 2659   1.399   5.626   0.788
  806WAT     H1 2660   1.453   5.696   0.741
  806WAT     H2 2661   1.435   5.535   0.765
  807WAT      O 2662   6.535   2.275   7.337
  807WAT     H1 2663   6.504   2.341   7.406
  807WAT     H2 2664   6.601   2.319   7.276
  808WAT      O 2665   9.037   3.549   6.164
  808WAT     H1 2666   9.083   3.501   6.238
  808WAT     H2 2667   8.971   3.614   6.203
  809WAT      O 2668   3.580   2.574   9.661
  809WAT     H1 2669   3.592   2.572   9.562
  809WAT     H2 2670   3.591   2.481   9.698
  810WAT      O 2671   4.002   8.221   3.551
  810WAT     H1 2672   4.001   8.202   3.649
  810WAT     H2 2673   3.967   8.142   3.501
  811WAT      O 2674   3.808   7.103   2.261
  811WAT     H1 2675   3.886   7.042   2.246
  811WAT     H2 2676   3.764   7.080   2.348
  812WAT      O 2677   0.239   9.151   5.192
  812WAT     H1 2678   0.212   9.243   5.163
  812WAT     H2 2679   0.338   9.145   5.196
  813WAT      O 2680   3.778   3.604   2.420
  813WAT     H1 2681   3.766   3.690   2.471
  813WAT     H2 2682   3.720   3.605   2.339
  814WAT      O 2683   3.150   4.303   0.284
  814WAT     H1 2684   3.129   4.360   0.204
  814WAT     H2 2685   3.239   4.260   0.272
  815WAT      O 2686   6.822   3.580   8.473
  815WAT     H1 2687   6.748   3.577   8.541
  815WAT     H2 2688   6.783   3.568   8.382
  816WAT      O 2689   1.176   2.118   3.948
  816WAT     H1 2690   1.205   2.080   3.860
  816WAT     H2 2691   1.172   2.218   3.942
  817WAT      O 2692   7.496   9.341   3.106
  817WAT     H1 2693   7.459   9.414   3.048
  817WAT     H2 2694   7.588   9.318   3.075
  818WAT      O 2695   8.769   2.795   2.289
  818WAT     H1 2696   8.831   2.867   2.321
  818WAT     H2 2697   8.734   2.744   2.367
  819WAT      O 2698   2.316   2.421   6.854
  819WAT     H1 2699   2.296   2.368   6.772
  819WAT     H2 2700   2.230   2.445   6.900
  820WAT      O 2701   1.145   2.943   4.674
  820WAT     H1 2702   1.070   2.949   4.740
  820WAT     H2 2703   1.128   3.007   4.599
  821WAT      O 2704   9.684   3.958   4.173
  821WAT     H1 2705   9.748   3.916   4.109
  821WAT     H2 2706   9.661   4.050   4.142
  822WAT      O 2707   6.509   4.779   8.865
  822WAT     H1 2708   6.497   4.762   8.963
  822WAT     H2 2709   6.425   4.817   8.827
  823WAT      O 2710   7.711   7.418   5.987
  823WAT     H1 2711   7.652   7.412   5.906
  823WAT     H2 2712   7.655   7.418   6.069
  824WAT      O 2713   4.062   0.957   7.787
  824WAT     H1 2714   4.068   1.042   7.840
  824WAT     H2 2715   3.996   0.969   7.713
  825WAT      O 2716   0.279   9.587   6.217
  825WAT     H1 2717   0.255   9.599   6.121
  825WAT     H2 2718   0.378   9.596   6.229
  826WAT      O 2719   9.489   8.151   3.878
  826WAT     H1 2720   9.449   8.092   3.808
  826WAT     H2 2721   9.416   8.198   3.928
  827WAT      O 2722   1.256   8.825   0.791
  827WAT     H1 2723   1.315   8.744   0.796
  827WAT     H2 2724   1.299   8.901   0.839
  828WAT      O 2725   1.474   4.608   3.966
  828WAT     H1 2726   1.389   4.647   4.000
  828WAT     H2 2727   1.474   4.509   3.980
  829WAT      O 2728   6.637   1.356   0.078
  829WAT     H1 2729   6.705   1.413   0.123
  829WAT     H2 2730   6.576   1.316   0.147
  830WAT      O 2731   0.750   5.174   9.119
  830WAT     H1 2732   0.706   5.123   9.193
  830WAT     H2 2733   0.717   5.141   9.031
  831WAT      O 2734   2.876   0.120   2.656
  831WAT     H1 2735   2.839   0.036   2.697
  831WAT     H2 2736   2.921   0.097   2.570
  832WAT      O 2737   3.178   7.656   8.186
  832WAT     H1 2738   3.144   7.563   8.173
  832WAT     H2 2739   3.202   7.669   8.282
  833WAT      O 2740   8.482   0.379   9.744
  833WAT     H1 2741   8.571   0.353   9.707
  833WAT     H2 2742   8.484   0.476   9.771
  834WAT      O 2743   2.299   4.423   3.215
  834WAT     H1 2744   2.266   4.475   3.293
  834WAT     H2 2745   2.384   4.375   3.240
  835WAT      O 2746   6.804   7.581   3.197
  835WAT     H1 2747   6.756   7.493   3.193
  835WAT     H2 2748   6.851   7.589   3.286
  836WAT      O 2749   6.793   2.771   9.259
  836WAT     H1 2750   6.739   2.776   9.342
  836WAT     H2 2751   6.766   2.690   9.206
  837WAT      O 2752   3.757   6.701   3.907
  837WAT     H1 2753   3.794   6.786   3.869
  837WAT     H2 2754   3.675   6.675   3.856
  838WAT      O 2755   3.587   0.572   5.122
  838WAT     H1 2756   3.661   0.608   5.179
  838WAT     H2 2757   3.510   0.546   5.180
  839WAT      O 2758   4.774   5.974   3.497
  839WAT     H1 2759   4.795   5.877   3.509
  839WAT     H2 2760   4.762   5.993   3.400
  840WAT      O 2761   6.815   1.247   5.612
  840WAT     H1 2762   6.884   1.184   5.646
  840WAT     H2 2763   6.779   1.213   5.525
  841WAT      O 2764   2.082   8.112   4.993
  841WAT     H1 2765   2.178   8.131   5.016
  841WAT     H2 2766   2.032   8.089   5.077
  842WAT      O 2767   1.703   4.827   0.962
  842WAT     H1 2768   1.767   4.875   1.022
  842WAT     H2 2769   1.753   4.786   0.886
  843WAT      O 2770   3.866   7.454   4.059
  843WAT     H1 2771   3.782   7.493   4.021
  843WAT     H2 2772   3.877   7.485   4.153
  844WAT      O 2773   0.582   7.553   5.061
  844WAT     H1 2774   0.668   7.542   5.111
  844WAT     H2 2775   0.572   7.649   5.034
  845WAT      O 2776   2.616   9.500   1.852
  845WAT     H1 2777   2.600   9.418   1.796
  845WAT     H2 2778   2.693   9.551   1.815
  846WAT      O 2779   2.370   9.719   4.447
  846WAT     H1 2780   2.448   9.672   4.490
  846WAT     H2 2781   2.370   9.815   4.474
  847WAT      O 2782   1.671   0.328   9.507
  847WAT     H1 2783   1.683   0.247   9.450
  847WAT     H2 2784   1.725   0.318   9.591
  848WAT      O 2785   2.413   7.072   5.909
  848WAT     H1 2786   2.363   7.140   5.855
  848WAT     H2 2787   2.410   6.984   5.862
  849WAT      O 2788   2.144   2.888   2.179
  849WAT     H1 2789   2.237   2.916   2.157
  849WAT     H2 2790   2.133   2.791   2.159
  850WAT      O 2791   5.422   1.310   0.903
  850WAT     H1 2792   5.444   1.378   0.833
  850WAT     H2 2793   5.428   1.353   0.993
  851WAT      O 2794   7.098   4.041   5.200
  851WAT     H1 2795   7.122   3.971   5.133
  851WAT     H2 2796   7.181   4.086   5.232
  852WAT      O 2797   2.073   0.917   8.960
  852WAT     H1 2798   2.009   0.919   9.037
  852WAT     H2 2799   2.022   0.927   8.875
  853WAT      O 2800   1.430   4.049   8.023
  853WAT     H1 2801   1.400   4.120   7.959
  853WAT     H2 2802   1.350   3.999   8.056
  854WAT      O 2803   0.133   2.468   9.635
  854WAT     H1 2804   0.221   2.423   9.618
  854WAT     H2 2805   0.078   2.412   9.697
  855WAT      O 2806   2.371   9.374   8.015
  855WAT     H1 2807   2.332   9.387   8.106
  855WAT     H2 2808   2.305   9.401   7.945
  856WAT      O 2809   2.682   2.344   4.517
  856WAT     H1 2810   2.601   2.299   4.480
  856WAT     H2 2811   2.679   2.342   4.617
  857WAT      O 2812   0.526   1.189   1.769
  857WAT     H1 2813   0.618   1.151   1.762
  857WAT     H2 2814   0.459   1.123   1.733
  858WAT      O 2815   2.660   5.300   9.496
  858WAT     H1 2816   2.730   5.299   9.567
  858WAT     H2 2817   2.571   5.279   9.536
  859WAT      O 2818   3.820   3.539   1.675
  859WAT     H1 2819   3.829   3.494   1.764
  859WAT     H2 2820   3.901   3.518   1.619
  860WAT      O 2821   3.756   1.373   2.817
  860WAT     H1 2822   3.818   1.449   2.797
  860WAT     H2 2823   3.666   1.410   2.843
  861WAT      O 2824   7.881   6.922   0.874
  861WAT     H1 2825   7.814   6.901   0.945
  861WAT     H2 2826   7.842   6.988   0.810
  862WAT      O 2827   3.625   7.990   7.744
  862WAT     H1 2828   3.595   7.920   7.680
  862WAT     H2 2829   3.719   7.971   7.773
  863WAT      O 2830   7.455   5.183   4.617
  863WAT     H1 2831   7.424   5.098   4.574
  863WAT     H2 2832   7.448   5.258   4.552
  864WAT      O 2833   8.379   1.255   3.255
  864WAT     H1 2834   8.471   1.293   3.242
  864WAT     H2 2835   8.311   1.327   3.243
  865WAT      O 2836   6.418   8.693   0.417
  865WAT     H1 2837   6.428   8.595   0.400
  865WAT     H2 2838   6.446   8.744   0.335
  866WAT      O 2839   5.667   6.951   3.446
  866WAT     H1 2840   5.690   7.038   3.490
  866WAT     H2 2841   5.704   6.950   3.353
  867WAT      O 2842   5.185   7.007   5.299
  867WAT     H1 2843   5.089   7.031   5.292
  867WAT     H2 2844   5.229   7.019   5.210
  868WAT      O 2845   5.039   8.649   6.563
  868WAT     H1 2846   5.079   8.717   6.625
  868WAT     H2 2847   4.960   8.688   6.516
  869WAT      O 2848   9.369   7.534   3.680
  869WAT     H1 2849   9.311   7.594   3.735
  869WAT     H2 2850   9.346   7.438   3.700
  870WAT      O 2851   1.330   7.419   0.508
  870WAT     H1 2852   1.234   7.390   0.516
  870WAT     H2 2853   1.340   7.475   0.426
  871WAT      O 2854   4.972   3.525   5.650
  871WAT     H1 2855   4.879   3.561   5.657
  871WAT     H2 2856   4.980   3.444   5.708
  872WAT      O 2857   8.606   6.035   4.805
  872WAT     H1 2858   8.656   5.951   4.783
  872WAT     H2 2859   8.568   6.074   4.721
  873WAT      O 2860   1.489   8.404   0.659
  873WAT     H1 2861   1.531   8.334   0.601
  873WAT     H2 2862   1.548   8.485   0.661
  874WAT      O 2863   6.920   9.740   9.273
  874WAT     H1 2864   6.938   9.782   9.184
  874WAT     H2 2865   6.989   9.770   9.338
  875WAT      O 2866   2.133   2.799   7.764
  875WAT     H1 2867   2.223   2.758   7.776
  875WAT     H2 2868   2.140   2.877   7.702
  876WAT      O 2869   6.615   4.262   3.832
  876WAT     H1 2870   6.686   4.330   3.812
  876WAT     H2 2871   6.639   4.176   3.786
  877WAT      O 2872   2.843   1.443   2.369
  877WAT     H1 2873   2.877   1.360   2.414
  877WAT     H2 2874   2.750   1.426   2.334
  878WAT      O 2875   1.428   4.526   5.733
  878WAT     H1 2876   1.447   4.517   5.830
  878WAT     H2 2877   1.341   4.482   5.710
  879WAT      O 2878   5.823   2.176   0.202
  879WAT     H1 2879   5.733   2.172   0.245
  879WAT     H2 2880   5.872   2.257   0.236
  880WAT      O 2881   6.548   7.695   5.773
  880WAT     H1 2882   6.586   7.708   5.682
  880WAT     H2 2883   6.483   7.768   5.793
  881WAT      O 2884   3.360   4.808   0.313
  881WAT     H1 2885   3.410   4.780   0.395
  881WAT     H2 2886   3.282   4.747   0.298
  882WAT      O 2887   8.260   9.488   6.782
  882WAT     H1 2888   8.284   9.585   6.783
  882WAT     H2 2889   8.342   9.433   6.798
  883WAT      O 2890   2.286   2.196   7.911
  883WAT     H1 2891   2.341   2.133   7.966
  883WAT     H2 2892   2.198   2.211   7.956
  884WAT      O 2893   4.860   3.178   0.080
  884WAT     H1 2894   4.790   3.213   0.143
  884WAT     H2 2895   4.940   3.238   0.084
  885WAT      O 2896   3.560   3.760   4.135
  885WAT     H1 2897   3.654   3.791   4.130
  885WAT     H2 2898   3.558   3.661   4.146
  886WAT      O 2899   2.581   9.041   0.097
  886WAT     H1 2900   2.498   9.093   0.120
  886WAT     H2 2901   2.661   9.093   0.127
  887WAT      O 2902   7.525   2.010   3.825
  887WAT     H1 2903   7.507   2.024   3.728
  887WAT     H2 2904   7.439   1.988   3.872
  888WAT      O 2905   3.363   1.581   8.048
  888WAT     H1 2906   3.325   1.659   7.998
  888WAT     H2 2907   3.333   1.496   8.004
  889WAT      O 2908   1.978   2.977   4.869
  889WAT     H1 2909   2.071   2.994   4.902
  889WAT     H2 2910   1.924   2.934   4.941
  890WAT      O 2911   5.129   0.270   0.572
  890WAT     H1 2912   5.042   0.264   0.621
  890WAT     H2 2913   5.205   0.263   0.636
  891WAT      O 2914   1.910   9.098   2.207
  891WAT     H1 2915   1.888   9.188   2.244
  891WAT     H2 2916   1.890   9.097   2.109
  892WAT      O 2917   2.760   5.145   7.415
  892WAT     H1 2918   2.773   5.204   7.336
  892WAT     H2 2919   2.752   5.201   7.497
  893WAT      O 2920   2.075   2.369   1.766
  893WAT     H1 2921   1.985   2.399   1.736
  893WAT     H2 2922   2.067   2.282   1.814
  894WAT      O 2923   9.624   1.991   8.410
  894WAT     H1 2924   9.719   2.004   8.439
  894WAT     H2 2925   9.607   1.893   8.396
  895WAT      O 2926   5.261   3.792   6.067
  895WAT     H1 2927   5.229   3.789   5.972
  895WAT     H2 2928   5.333   3.724   6.079
  896WAT      O 2929   0.176   5.882   7.462
  896WAT     H1 2930   0.256   5.922   7.507
  896WAT     H2 2931   0.172   5.913   7.368
  897WAT      O 2932   8.330   8.087   9.481
  897WAT     H1 2933   8.387   8.165   9.455
  897WAT     H2 2934   8.351   8.009   9.420
  898WAT      O 2935   2.426   7.711   0.654
  898WAT     H1 2936   2.361   7.661   0.596
  898WAT     H2 2937   2.510   7.729   0.602
  899WAT      O 2938   9.740   9.555   7.339
  899WAT     H1 2939   9.838   9.553   7.358
  899WAT     H2 2940   9.689   9.568   7.424
  900WAT      O 2941   0.779   5.459   4.502
  900WAT     H1 2942   0.692   5.451   4.455
  900WAT     H2 2943   0.831   5.375   4.490
  901WAT      O 2944   2.754   3.038   2.970
  901WAT     H1 2945   2.670   3.093   2.960
  901WAT     H2 2946   2.736   2.945   2.938
  902WAT      O 2947   9.695   7.159   6.713
  902WAT     H1 2948   9.637   7.235   6.743
  902WAT     H2 2949   9.787   7.171   6.750
  903WAT      O 2950   5.852   5.464   3.735
  903WAT     H1 2951   5.894   5.439   3.823
  903WAT     H2 2952   5.869   5.391   3.669
  904WAT      O 2953   6.476   2.222   0.404
  904WAT     H1 2954   6.538   2.145   0.402
  904WAT     H2 2955   6.524   2.303   0.437
  905WAT      O 2956   1.677   6.924   4.090
  905WAT     H1 2957   1.713   6.947   4.181
  905WAT     H2 2958   1.669   7.007   4.035
  906WAT      O 2959   4.046   6.744   7.915
  906WAT     H1 2960   4.036   6.799   7.832
  906WAT     H2 2961   4.130   6.691   7.910
  907WAT      O 2962   1.541   9.322   7.640
  907WAT     H1 2963   1.562   9.295   7.734
  907WAT     H2 2964   1.447   9.297   7.617
  908WAT      O 2965   1.968   4.626   0.881
  908WAT     H1 2966   2.017   4.696   0.933
  908WAT     H2 2967   1.929   4.667   0.799
  909WAT      O 2968   9.460   6.631   8.986
  909WAT     H1 2969   9.373   6.591   8.957
  909WAT     H2 2970   9.464   6.635   9.086
  910WAT      O 2971   9.735   7.125   9.201
  910WAT     H1 2972   9.785   7.052   9.154
  910WAT     H2 2973   9.799   7.190   9.240
  911WAT      O 2974   8.574   6.858   9.003
  911WAT     H1 2975   8.616   6.818   8.922
  911WAT     H2 2976   8.644   6.873   9.073
  912WAT      O 2977   4.955   6.651   6.773
  912WAT     H1 2978   4.930   6.728   6.714
  912WAT     H2 2979   5.050   6.662   6.803
  913WAT      O 2980   6.728   0.673   7.239
  913WAT     H1 2981   6.733   0.575   7.253
  913WAT     H2 2982   6.658   0.712   7.299
  914WAT      O 2983   0.843   3.547   4.398
  914WAT     H1 2984   0.902   3.555   4.318
  914WAT     H2 2985   0.895   3.507   4.474
  915WAT      O 2986   7.532   2.734   4.969
  915WAT     H1 2987   7.458   2.758   4.907
  915WAT     H2 2988   7.619   2.769   4.933
  916WAT      O 2989   8.992   6.100   7.337
  916WAT     H1 2990   9.086   6.130   7.352
  916WAT     H2 2991   8.960   6.132   7.248
  917WAT      O 2992   0.485   2.339   0.132
  917WAT     H1 2993   0.566   2.289   0.160
  917WAT     H2 2994   0.461   2.407   0.202
  918WAT      O 2995   5.161   4.491   2.606
  918WAT     H1 2996   5.088   4.559   2.605
  918WAT     H2 2997   5.190   4.474   2.700
  919WAT      O 2998   2.250   5.619   8.141
  919WAT     H1 2999   2.160   5.629   8.183
  919WAT     H2 3000   2.242   5.635   8.043
  920WAT      O 3001   4.419   7.654   4.274
  920WAT     H1 3002   4.380   7.740   4.242
  920WAT     H2 3003   4.481   7.673   4.351
  921WAT      O 3004   7.257   1.261   5.502
  921WAT     H1 3005   7.323   1.320   5.455
  921WAT     H2 3006   7.169   1.266   5.454
  922WAT      O 3007   3.041   5.009   4.710
  922WAT     H1 3008   2.984   5.085   4.740
  922WAT     H2 3009   3.099   5.040   4.634
  923WAT      O 3010   5.065   2.323   2.500
  923WAT     H1 3011   5.046   2.295   2.594
  923WAT     H2 3012   5.130   2.259   2.459
  924WAT      O 3013   4.760   5.660   6.876
  924WAT     H1 3014   4.775   5.639   6.779
  924WAT     H2 3015   4.845   5.644   6.927
  925WAT      O 3016   0.042   3.332   3.102
  925WAT     H1 3017   0.054   3.430   3.083
  925WAT     H2 3018   0.132   3.290   3.113
  926WAT      O 3019   8.315   2.960   8.914
  926WAT     H1 3020   8.354   2.979   9.004
  926WAT     H2 3021   8.226   3.005   8.906
  927WAT      O 3022   9.843   5.497   1.200
  927WAT     H1 3023   9.845   5.402   1.166
  927WAT     H2 3024   9.842   5.496   1.300
  928WAT      O 3025   7.413   4.825   2.612
  928WAT     H1 3026   7.457   4.841   2.524
  928WAT     H2 3027   7.451   4.887   2.680
  929WAT      O 3028   7.547   2.480   7.858
  929WAT     H1 3029   7.564   2.439   7.769
  929WAT     H2 3030   7.467   2.539   7.853
  930WAT      O 3031   0.068   1.062   0.523
  930WAT     H1 3032   0.003   1.103   0.586
  930WAT     H2 3033   0.143   1.020   0.575
  931WAT      O 3034   5.722   0.285   1.765
  931WAT     H1 3035   5.635   0.248   1.731
  931WAT     H2 3036   5.772   0.212   1.812
  932WAT      O 3037   9.276   6.529   0.388
  932WAT     H1 3038   9.190   6.488   0.355
  932WAT     H2 3039   9.316   6.585   0.316
  933WAT      O 3040   5.229   4.878   6.489
  933WAT     H1 3041   5.263   4.920   6.405
  933WAT     H2 3042   5.136   4.910   6.508
  934WAT      O 3043   1.079   6.066   2.699
  934WAT     H1 3044   1.083   6.105   2.792
  934WAT     H2 3045   1.067   6.140   2.633
  935WAT      O 3046   5.010   8.707   6.918
  935WAT     H1 3047   5.067   8.751   6.848
  935WAT     H2 3048   5.068   8.676   6.993
  936WAT      O 3049   9.509   3.947   8.126
  936WAT     H1 3050   9.591   3.931   8.182
  936WAT     H2 3051   9.503   4.045   8.104
  937WAT      O 3052   6.562   9.283   4.775
  937WAT     H1 3053   6.525   9.372   4.749
  937WAT     H2 3054   6.523   9.212   4.716
  938WAT      O 3055   6.157   2.533   6.144
  938WAT     H1 3056   6.085   2.497   6.202
  938WAT     H2 3057   6.153   2.633   6.143
  939WAT      O 3058   2.764   6.611   4.324
  939WAT     H1 3059   2.809   6.522   4.319
  939WAT     H2 3060   2.665   6.598   4.314
  940WAT      O 3061   9.323   6.559   2.989
  940WAT     H1 3062   9.378   6.557   2.906
  940WAT     H2 3063   9.365   6.620   3.056
  941WAT      O 3064   1.544   6.917   3.332
  941WAT     H1 3065   1.488   6.982   3.383
  941WAT     H2 3066   1.618   6.966   3.285
  942WAT      O 3067   6.431   6.274   4.221
  942WAT     H1 3068   6.332   6.283   4.229
  942WAT     H2 3069   6.475   6.351   4.269
  943WAT      O 3070   0.550   1.280   3.797
  943WAT     H1 3071   0.623   1.214   3.816
  943WAT     H2 3072   0.585   1.352   3.737
  944WAT      O 3073   1.308   7.885   8.328
  944WAT     H1 3074   1.272   7.870   8.236
  944WAT     H2 3075   1.291   7.979   8.356
  945WAT      O 3076   8.190   2.800   9.320
  945WAT     H1 3077   8.253   2.811   9.396
  945WAT     H2 3078   8.102   2.841   9.343
  946WAT      O 3079   5.392   8.737   0.957
  946WAT     H1 3080   5.352   8.754   1.047
  946WAT     H2 3081   5.486   8.703   0.969
  947WAT      O 3082   6.123   8.994   7.131
  947WAT     H1 3083   6.212   9.005   7.086
  947WAT     H2 3084   6.052   9.038   7.077
  948WAT      O 3085   6.949   9.404   8.202
  948WAT     H1 3086   6.958   9.425   8.104
  948WAT     H2 3087   7.001   9.470   8.256
  949WAT      O 3088   0.446   3.611   1.813
  949WAT     H1 3089   0.391   3.680   1.765
  949WAT     H2 3090   0.542   3.622   1.789
  950WAT      O 3091   2.648   5.029   7.984
  950WAT     H1 3092   2.732   5.083   7.990
  950WAT     H2 3093   2.626   5.013   7.887
  951WAT      O 3094   3.756   4.972   0.420
  951WAT     H1 3095   3.810   5.009   0.344
  951WAT     H2 3096   3.764   4.873   0.422
  952WAT      O 3097   6.392   6.889   4.407
  952WAT     H1 3098   6.332   6.824   4.454
  952WAT     H2 3099   6.422   6.959   4.471
  953WAT      O 3100   3.392   8.952   5.370
  953WAT     H1 3101   3.359   9.046   5.373
  953WAT     H2 3102   3.346   8.898   5.440
  954WAT      O 3103   3.381   6.925   5.919
  954WAT     H1 3104   3.363   6.955   5.825
  954WAT     H2 3105   3.421   7.000   5.971
  955WAT      O 3106   1.205   3.404   6.687
  955WAT     H1 3107   1.246   3.492   6.709
  955WAT     H2 3108   1.240   3.372   6.599
  956WAT      O 3109   6.863   4.006   3.325
  956WAT     H1 3110   6.948   4.057   3.309
  956WAT     H2 3111   6.874   3.949   3.407
  957WAT      O 3112   5.383   4.033   6.114
  957WAT     H1 3113   5.331   3.953   6.083
  957WAT     H2 3114   5.424   4.078   6.035
  958WAT      O 3115   1.699   4.829   8.021
  958WAT     H1 3116   1.661   4.743   8.052
  958WAT     H2 3117   1.662   4.904   8.076
  959WAT      O 3118   8.358   5.730   9.597
  959WAT     H1 3119   8.327   5.642   9.561
  959WAT     H2 3120   8.453   5.722   9.627
  960WAT      O 3121   8.831   9.353   3.841
  960WAT     H1 3122   8.872   9.271   3.881
  960WAT     H2 3123   8.903   9.417   3.814
  961WAT      O 3124   8.027   5.195   6.794
  961WAT     H1 3125   8.057   5.147   6.711
  961WAT     H2 3126   7.932   5.223   6.783
  962WAT      O 3127   7.004   1.530   1.324
  962WAT     H1 3128   7.004   1.486   1.413
  962WAT     H2 3129   7.037   1.466   1.255
  963WAT      O 3130   8.339   8.311   9.007
  963WAT     H1 3131   8.417   8.305   8.944
  963WAT     H2 3132   8.288   8.395   8.990
  964WAT      O 3133   8.486   2.528   4.325
  964WAT     H1 3134   8.525   2.587   4.396
  964WAT     H2 3135   8.457   2.584   4.247
  965WAT      O 3136   1.865   0.738   3.883
  965WAT     H1 3137   1.955   0.752   3.925
  965WAT     H2 3138   1.877   0.726   3.784
  966WAT      O 3139   3.251   1.572   2.363
  966WAT     H1 3140   3.154   1.588   2.342
  966WAT     H2 3141   3.308   1.629   2.304
  967WAT      O 3142   3.103   4.858   1.430
  967WAT     H1 3143   3.183   4.895   1.477
  967WAT     H2 3144   3.029   4.842   1.495
  968WAT      O 3145   2.770   3.428   4.009
  968WAT     H1 3146   2.708   3.350   4.007
  968WAT     H2 3147   2.844   3.414   3.944
  969WAT      O 3148   9.642   0.122   0.309
  969WAT     H1 3149   9.548   0.090   0.304
  969WAT     H2 3150   9.646   0.219   0.285
  970WAT      O 3151   4.539   4.686   1.920
  970WAT     H1 3152   4.631   4.723   1.931
  970WAT     H2 3153   4.505   4.653   2.008
  971WAT      O 3154   3.479   1.487   4.075
  971WAT     H1 3155   3.486   1.447   4.167
  971WAT     H2 3156   3.386   1.475   4.041
  972WAT      O 3157   6.263   8.171   5.932
  972WAT     H1 3158   6.170   8.179   5.897
  972WAT     H2 3159   6.311   8.258   5.920
  973WAT      O 3160   5.813   0.293   1.348
  973WAT     H1 3161   5.833   0.303   1.446
  973WAT     H2 3162   5.896   0.311   1.295
  974WAT      O 3163   8.115   0.490   0.790
  974WAT     H1 3164   8.118   0.480   0.690
  974WAT     H2 3165   8.129   0.401   0.833
  975WAT      O 3166   1.392   9.008   2.886
  975WAT     H1 3167   1.296   9.006   2.913
  975WAT     H2 3168   1.445   8.950   2.948
  976WAT      O 3169   4.576   7.857   7.411
  976WAT     H1 3170   4.484   7.875   7.448
  976WAT     H2 3171   4.632   7.939   7.421
  977WAT      O 3172   1.015   2.400   6.567
  977WAT     H1 3173   1.098   2.443   6.531
  977WAT     H2 3174   1.010   2.305   6.535
  978WAT      O 3175   0.628   9.677   0.486
  978WAT     H1 3176   0.667   9.630   0.565
  978WAT     H2 3177   0.543   9.722   0.513
  979WAT      O 3178   6.651   2.693   1.599
  979WAT     H1 3179   6.609   2.677   1.510
  979WAT     H2 3180   6.684   2.788   1.603
  980WAT      O 3181   0.364   2.322   4.243
  980WAT     H1 3182   0.348   2.225   4.262
  980WAT     H2 3183   0.305   2.351   4.168
  981WAT      O 3184   8.547   2.434   9.134
  981WAT     H1 3185   8.599   2.509   9.093
  981WAT     H2 3186   8.585   2.412   9.224
  982WAT      O 3187   6.274   0.012   9.146
  982WAT     H1 3188   6.284   0.036   9.049
  982WAT     H2 3189   6.234   0.088   9.196
  983WAT      O 3190   4.130   8.899   5.639
  983WAT     H1 3191   4.148   8.996   5.621
  983WAT     H2 3192   4.059   8.890   5.708
  984WAT      O 3193   4.346   2.253   1.532
  984WAT     H1 3194   4.378   2.341   1.565
  984WAT     H2 3195   4.306   2.201   1.607
  985WAT      O 3196   7.750   3.368   4.675
  985WAT     H1 3197   7.695   3.393   4.755
  985WAT     H2 3198   7.689   3.345   4.599
  986WAT      O 3199   0.064   0.041   5.810
  986WAT     H1 3200   0.010  -0.043   5.815
  986WAT     H2 3201   0.062   0.077   5.717
  987WAT      O 3202   2.912   0.201   6.147
  987WAT     H1 3203   2.919   0.254   6.063
  987WAT     H2 3204   2.836   0.235   6.202
  988WAT      O 3205   3.084   0.417   0.790
  988WAT     H1 3206   3.012   0.450   0.852
  988WAT     H2 3207   3.076   0.318   0.779
  989WAT      O 3208   6.675   4.465   1.713
  989WAT     H1 3209   6.608   4.401   1.676
  989WAT     H2 3210   6.644   4.559   1.699
  990WAT      O 3211   7.993   8.269   0.409
  990WAT     H1 3212   8.046   8.252   0.325
  990WAT     H2 3213   8.055   8.272   0.487
  991WAT      O 3214   1.102   4.689   1.769
  991WAT     H1 3215   1.171   4.746   1.726
  991WAT     H2 3216   1.061   4.628   1.701
  992WAT      O 3217   5.846   4.827   9.715
  992WAT     H1 3218   5.888   4.769   9.646
  992WAT     H2 3219   5.879   4.799   9.806
  993WAT      O 3220   9.568   2.998   3.601
  993WAT     H1 3221   9.599   3.058   3.528
  993WAT     H2 3222   9.471   2.977   3.588
  994WAT      O 3223   4.196   3.885   3.635
  994WAT     H1 3224   4.163   3.957   3.573
  994WAT     H2 3225   4.292   3.902   3.658
  995WAT      O 3226   4.097   6.652   3.910
  995WAT     H1 3227   4.092   6.678   3.814
  995WAT     H2 3228   4.025   6.586   3.931
  996WAT      O 3229   4.959   9.451   6.369
  996WAT     H1 3230   4.862   9.449   6.389
  996WAT     H2 3231   4.974   9.492   6.279
  997WAT      O 3232   5.664   1.571   8.978
  997WAT     H1 3233   5.695   1.641   8.913
  997WAT     H2 3234   5.678   1.480   8.939
  998WAT      O 3235   4.945   9.286   9.464
  998WAT     H1 3236   4.898   9.373   9.475
  998WAT     H2 3237   5.022   9.296   9.400
  999WAT      O 3238   5.337   7.701   8.322
  999WAT     H1 3239   5.382   7.654   8.398
  999WAT     H2 3240   5.241   7.673   8.317
 1000WAT      O 3241   4.469   2.215   7.622
 1000WAT     H1 3242   4.399   2.264   7.674
 1000WAT     H2 3243   4.538   2.280   7.590
 1001WAT      O 3244   7.572   3.551   3.817
 1001WAT     H1 3245   7.665   3.546   3.854
 1001WAT     H2 3246   7.569   3.618   3.743
 1002WAT      O 3247   5.831   9.286   0.915
 1002WAT     H1 3248   5.802   9.222   0.844
 1002WAT     H2 3249   5.864   9.235   0.994
 1003WAT      O 3250   1.170   9.490   0.033
 1003WAT     H1 3251   1.109   9.454  -0.038
 1003WAT     H2 3252   1.116   9.538   0.102
 1004WAT      O 3253   8.539   3.309   5.019
 1004WAT     H1 3254   8.634   3.335   5.000
 1004WAT     H2 3255   8.478   3.359   4.958
 1005WAT      O 3256   0.144   6.869   2.062
 1005WAT     H1 3257   0.066   6.806   2.068
 1005WAT     H2 3258   0.165   6.904   2.153
 1006WAT      O 3259   5.784   3.538   9.798
 1006WAT     H1 3260   5.851   3.565   9.729
 1006WAT     H2 3261   5.830   3.488   9.871
 1007WAT      O 3262   0.060   5.162   1.388
 1007WAT     H1 3263   0.117   5.105   1.447
 1007WAT     H2 3264   0.042   5.249   1.434
 1008WAT      O 3265   4.294   9.047   8.718
 1008WAT     H1 3266   4.340   8.977   8.773
 1008WAT     H2 3267   4.298   9.134   8.765
 1009WAT      O 3268   1.425   0.981   4.706
 1009WAT     H1 3269   1.426   0.881   4.697
 1009WAT     H2 3270   1.359   1.007   4.776
 1010WAT      O 3271   7.314   2.843   6.785
 1010WAT     H1 3272   7.285   2.747   6.791
 1010WAT     H2 3273   7.325   2.868   6.688
 1011WAT      O 3274   9.680   1.467   7.282
 1011WAT     H1 3275   9.640   1.553   7.314
 1011WAT     H2 3276   9.616   1.392   7.299
 1012WAT      O 3277   5.869   5.417   6.306
 1012WAT     H1 3278   5.940   5.363   6.352
 1012WAT     H2 3279   5.850   5.377   6.217
 1013WAT      O 3280   2.598   2.973   5.529
 1013WAT     H1 3281   2.634   2.975   5.436
 1013WAT     H2 3282   2.643   2.900   5.581
 1014WAT      O 3283   4.286   6.637   0.521
 1014WAT     H1 3284   4.330   6.561   0.569
 1014WAT     H2 3285   4.289   6.719   0.578
 1015WAT      O 3286   6.684   9.847   9.299
 1015WAT     H1 3287   6.601   9.791   9.299
 1015WAT     H2 3288   6.763   9.789   9.278
 1016WAT      O 3289   1.027   2.321   1.696
 1016WAT     H1 3290   0.970   2.280   1.767
 1016WAT     H2 3291   1.115   2.272   1.692
 1017WAT      O 3292   1.262   7.249   6.721
 1017WAT     H1 3293   1.279   7.338   6.763
 1017WAT     H2 3294   1.331   7.183   6.752
 1018WAT      O 3295   3.629   7.450   1.143
 1018WAT     H1 3296   3.586   7.374   1.093
 1018WAT     H2 3297   3.558   7.509   1.181
 1019WAT      O 3298   8.014   7.137   4.095
 1019WAT     H1 3299   8.077   7.155   4.019
 1019WAT     H2 3300   7.961   7.054   4.076
 1020WAT      O 3301   3.783   3.365   3.745
 1020WAT     H1 3302   3.828   3.355   3.657
 1020WAT     H2 3303   3.827   3.437   3.798
 1021WAT      O 3304   5.046   1.798   0.372
 1021WAT     H1 3305   4.953   1.775   0.399
 1021WAT     H2 3306   5.044   1.865   0.298
 1022WAT      O 3307   7.378   5.799   1.345
 1022WAT     H1 3308   7.290   5.772   1.305
 1022WAT     H2 3309   7.438   5.835   1.274
 1023WAT      O 3310   9.701   0.674   4.364
 1023WAT     H1 3311   9.603   0.660   4.378
 1023WAT     H2 3312   9.735   0.741   4.430
 1024WAT      O 3313   0.959   9.834   2.502
 1024WAT     H1 3314   0.880   9.870   2.454
 1024WAT     H2 3315   0.937   9.746   2.544
 1025WAT      O 3316   2.613   3.460   0.864
 1025WAT     H1 3317   2.654   3.503   0.784
 1025WAT     H2 3318   2.640   3.364   0.867
 1026WAT      O 3319   5.782   0.156   7.894
 1026WAT     H1 3320   5.831   0.233   7.934
 1026WAT     H2 3321   5.775   0.168   7.795
 1027WAT      O 3322   3.447   1.207   7.665
 1027WAT     H1 3323   3.444   1.172   7.571
 1027WAT     H2 3324   3.394   1.147   7.725
 1028WAT      O 3325   0.145   8.051   0.999
 1028WAT     H1 3326   0.079   8.105   0.947
 1028WAT     H2 3327   0.235   8.093   0.991
 1029WAT      O 3328   5.114   1.942   3.678
 1029WAT     H1 3329   5.125   1.875   3.751
 1029WAT     H2 3330   5.194   2.002   3.676
 1030WAT      O 3331   8.013   0.053   4.186
 1030WAT     H1 3332   7.931   0.038   4.131
 1030WAT     H2 3333   8.083   0.098   4.129
 1031WAT      O 3334   7.642   7.127   6.063
 1031WAT     H1 3335   7.591   7.042   6.079
 1031WAT     H2 3336   7.619   7.193   6.135
 1032WAT      O 3337   4.746   9.637   1.346
 1032WAT     H1 3338   4.823   9.654   1.408
 1032WAT     H2 3339   4.685   9.569   1.387
 1033WAT      O 3340   6.967   5.301   4.793
 1033WAT     H1 3341   7.013   5.329   4.877
 1033WAT     H2 3342   6.973   5.202   4.783
 1034WAT      O 3343   6.748   6.525   8.594
 1034WAT     H1 3344   6.711   6.616   8.575
 1034WAT     H2 3345   6.839   6.517   8.553
 1035WAT      O 3346   9.219   8.703   8.065
 1035WAT     H1 3347   9.281   8.719   8.142
 1035WAT     H2 3348   9.156   8.780   8.057
 1036WAT      O 3349   5.338   2.162   8.875
 1036WAT     H1 3350   5.351   2.067   8.849
 1036WAT     H2 3351   5.397   2.220   8.819
 1037WAT      O 3352   4.458   1.802   3.321
 1037WAT     H1 3353   4.437   1.770   3.413
 1037WAT     H2 3354   4.433   1.731   3.255
 1038WAT      O 3355   9.623   9.176   3.532
 1038WAT     H1 3356   9.628   9.098   3.469
 1038WAT     H2 3357   9.712   9.189   3.576
 1039WAT      O 3358   1.013   2.778   8.435
 1039WAT     H1 3359   1.068   2.727   8.369
 1039WAT     H2 3360   0.937   2.721   8.466
 1040WAT      O 3361   3.787   6.305   6.070
 1040WAT     H1 3362   3.768   6.327   5.974
 1040WAT     H2 3363   3.880   6.331   6.093
 1041WAT      O 3364   2.656   1.655   0.279
 1041WAT     H1 3365   2.630   1.679   0.185
 1041WAT     H2 3366   2.661   1.556   0.287
 1042WAT      O 3367   1.111   0.388   7.145
 1042WAT     H1 3368   1.083   0.479   7.174
 1042WAT     H2 3369   1.157   0.394   7.057
 1043WAT      O 3370   0.900   6.410   0.733
 1043WAT     H1 3371   0.995   6.432   0.755
 1043WAT     H2 3372   0.886   6.414   0.634
 1044WAT      O 3373   6.913   4.625   8.845
 1044WAT     H1 3374   6.942   4.682   8.923
 1044WAT     H2 3375   6.828   4.577   8.868
 1045WAT      O 3376   1.814   1.859   4.486
 1045WAT     H1 3377   1.902   1.903   4.470
 1045WAT     H2 3378   1.786   1.809   4.404
 1046WAT      O 3379   5.637   0.309   0.377
 1046WAT     H1 3380   5.547   0.283   0.341
 1046WAT     H2 3381   5.696   0.228   0.381
 1047WAT      O 3382   2.421   6.163   2.821
 1047WAT     H1 3383   2.391   6.069   2.836
 1047WAT     H2 3384   2.424   6.182   2.723
 1048WAT      O 3385   5.203   4.742   2.004
 1048WAT     H1 3386   5.265   4.766   1.929
 1048WAT     H2 3387   5.153   4.823   2.034
 1049WAT      O 3388   1.397   3.701   4.392
 1049WAT     H1 3389   1.311   3.749   4.407
 1049WAT     H2 3390   1.473   3.766   4.394
 1050WAT      O 3391   0.855   4.347   2.136
 1050WAT     H1 3392   0.950   4.315   2.137
 1050WAT     H2 3393   0.824   4.355   2.041
 1051WAT      O 3394   0.361   3.942   4.293
 1051WAT     H1 3395   0.390   3.985   4.379
 1051WAT     H2 3396   0.438   3.896   4.251
 1052WAT      O 3397   7.526   7.739   2.481
 1052WAT     H1 3398   7.548   7.658   2.426
 1052WAT     H2 3399   7.574   7.819   2.443
 1053WAT      O 3400   1.500   6.602   2.507
 1053WAT     H1 3401   1.445   6.676   2.470
 1053WAT     H2 3402   1.523   6.538   2.433
 1054WAT      O 3403   1.578   5.587   4.058
 1054WAT     H1 3404   1.645   5.625   4.122
 1054WAT     H2 3405   1.626   5.537   3.985
 1055WAT      O 3406   0.209   4.189   4.249
 1055WAT     H1 3407   0.236   4.100   4.287
 1055WAT     H2 3408   0.267   4.261   4.287
 1056WAT      O 3409   1.594   2.508   9.704
 1056WAT     H1 3410   1.681   2.556   9.712
 1056WAT     H2 3411   1.612   2.409   9.699
 1057WAT      O 3412   7.670   5.382   3.766
 1057WAT     H1 3413   7.656   5.474   3.729
 1057WAT     H2 3414   7.754   5.380   3.819
 1058WAT      O 3415   4.614   6.755   7.343
 1058WAT     H1 3416   4.515   6.745   7.333
 1058WAT     H2 3417   4.644   6.710   7.428
 1059WAT      O 3418   3.206   6.594   6.088
 1059WAT     H1 3419   3.290   6.638   6.058
 1059WAT     H2 3420   3.223   6.539   6.170
 1060WAT      O 3421   4.308   3.157   9.094
 1060WAT     H1 3422   4.369   3.154   9.015
 1060WAT     H2 3423   4.224   3.107   9.073
 1061WAT      O 3424   8.888   0.742   4.650
 1061WAT     H1 3425   8.910   0.649   4.621
 1061WAT     H2 3426   8.803   0.742   4.702
 1062WAT      O 3427   5.826   2.033   8.617
 1062WAT     H1 3428   5.745   2.046   8.560
 1062WAT     H2 3429   5.895   1.981   8.567
 1063WAT      O 3430   7.535   2.867   5.761
 1063WAT     H1 3431   7.534   2.948   5.820
 1063WAT     H2 3432   7.620   2.866   5.708
 1064WAT      O 3433   2.273   0.935   7.505
 1064WAT     H1 3434   2.368   0.915   7.529
 1064WAT     H2 3435   2.214   0.859   7.533
 1065WAT      O 3436   2.577   9.503   0.827
 1065WAT     H1 3437   2.555   9.484   0.731
 1065WAT     H2 3438   2.525   9.442   0.886
 1066WAT      O 3439   9.411   0.383   6.539
 1066WAT     H1 3440   9.331   0.326   6.530
 1066WAT     H2 3441   9.383   0.478   6.555
 1067WAT      O 3442   5.405   8.157   9.588
 1067WAT     H1 3443   5.307   8.172   9.595
 1067WAT     H2 3444   5.434   8.090   9.657
 1068WAT      O 3445   9.602   8.732   4.641
 1068WAT     H1 3446   9.571   8.801   4.576
 1068WAT     H2 3447   9.693   8.701   4.615
 1069WAT      O 3448   2.104   3.769   2.209
 1069WAT     H1 3449   2.101   3.778   2.309
 1069WAT     H2 3450   2.196   3.792   2.177
 1070WAT      O 3451   1.025   3.200   3.557
 1070WAT     H1 3452   0.971   3.117   3.562
 1070WAT     H2 3453   1.116   3.184   3.593
 1071WAT      O 3454   8.597   2.011   6.251
 1071WAT     H1 3455   8.688   1.979   6.224
 1071WAT     H2 3456   8.530   1.982   6.183
 1072WAT      O 3457   7.149   3.448   7.931
 1072WAT     H1 3458   7.211   3.389   7.982
 1072WAT     H2 3459   7.190   3.472   7.843
 1073WAT      O 3460   2.352   4.307   6.300
 1073WAT     H1 3461   2.324   4.255   6.381
 1073WAT     H2 3462   2.447   4.286   6.278
 1074WAT      O 3463   2.755   4.323   2.821
 1074WAT     H1 3464   2.687   4.377   2.871
 1074WAT     H2 3465   2.842   4.323   2.871
 1075WAT      O 3466   3.032   8.549   8.102
 1075WAT     H1 3467   2.933   8.540   8.109
 1075WAT     H2 3468   3.077   8.475   8.152
 1076WAT      O 3469   0.424   1.182   0.721
 1076WAT     H1 3470   0.495   1.252   0.732
 1076WAT     H2 3471   0.394   1.181   0.625
 1077WAT      O 3472   2.245   4.867   2.801
 1077WAT     H1 3473   2.325   4.812   2.824
 1077WAT     H2 3474   2.162   4.811   2.808
 1078WAT      O 3475   2.334   0.958   0.571
 1078WAT     H1 3476   2.355   0.906   0.489
 1078WAT     H2 3477   2.414   1.013   0.597
 1079WAT      O 3478   0.947   5.971   3.712
 1079WAT     H1 3479   0.939   5.875   3.687
 1079WAT     H2 3480   1.007   6.017   3.646
 1080WAT      O 3481   9.815   6.624   7.298
 1080WAT     H1 3482   9.784   6.640   7.204
 1080WAT     H2 3483   9.746   6.657   7.362
 1081WAT      O 3484   6.631   9.448   0.273
 1081WAT     H1 3485   6.661   9.472   0.365
 1081WAT     H2 3486   6.711   9.428   0.216
 1082WAT      O 3487   6.223   6.940   7.322
 1082WAT     H1 3488   6.132   6.948   7.281
 1082WAT     H2 3489   6.242   7.021   7.378
 1083WAT      O 3490   4.267   9.839   2.675
 1083WAT     H1 3491   4.174   9.826   2.712
 1083WAT     H2 3492   4.266   9.914   2.610
 1084WAT      O 3493   8.626   2.881   6.922
 1084WAT     H1 3494   8.600   2.828   6.841
 1084WAT     H2 3495   8.722   2.909   6.915
 1085WAT      O 3496   2.347   4.899   5.963
 1085WAT     H1 3497   2.326   4.983   5.913
 1085WAT     H2 3498   2.332   4.820   5.903
 1086WAT      O 3499   7.439   8.967   8.025
 1086WAT     H1 3500   7.422   8.954   8.123
 1086WAT     H2 3501   7.378   9.038   7.990
 1087WAT      O 3502   6.667   0.704   9.878
 1087WAT     H1 3503   6.612   0.649   9.941
 1087WAT     H2 3504   6.763   0.679   9.886
 1088WAT      O 3505   5.080   1.636   2.903
 1088WAT     H1 3506   5.074   1.654   3.001
 1088WAT     H2 3507   5.016   1.564   2.878
 1089WAT      O 3508   4.743   0.566   8.175
 1089WAT     H1 3509   4.780   0.483   8.135
 1089WAT     H2 3510   4.764   0.644   8.115
 1090WAT      O 3511   9.876   2.400   1.496
 1090WAT     H1 3512   9.912   2.307   1.505
 1090WAT     H2 3513   9.927   2.449   1.426
 1091WAT      O 3514   1.114   3.239   4.753
 1091WAT     H1 3515   1.111   3.226   4.852
 1091WAT     H2 3516   1.132   3.151   4.708
 1092WAT      O 3517   8.920   2.536   9.089
 1092WAT     H1 3518   8.862   2.614   9.064
 1092WAT     H2 3519   9.009   2.545   9.044
 1093WAT      O 3520   0.166   2.315   2.763
 1093WAT     H1 3521   0.102   2.385   2.732
 1093WAT     H2 3522   0.151   2.298   2.861
 1094WAT      O 3523   3.649   5.640   7.166
 1094WAT     H1 3524   3.724   5.631   7.101
 1094WAT     H2 3525   3.580   5.571   7.147
 1095WAT      O 3526   1.835   3.804   7.616
 1095WAT     H1 3527   1.931   3.830   7.609
 1095WAT     H2 3528   1.817   3.726   7.557
 1096WAT      O 3529   3.181   7.347   4.335
 1096WAT     H1 3530   3.163   7.421   4.269
 1096WAT     H2 3531   3.154   7.260   4.295
 1097WAT      O 3532   7.098   5.305   9.113
 1097WAT     H1 3533   7.065   5.286   9.205
 1097WAT     H2 3534   7.174   5.370   9.118
 1098WAT      O 3535   3.325   9.586   8.025
 1098WAT     H1 3536   3.393   9.552   7.960
 1098WAT     H2 3537   3.236   9.545   8.004
 1099WAT      O 3538   4.263   0.215   8.772
 1099WAT     H1 3539   4.309   0.144   8.825
 1099WAT     H2 3540   4.191   0.173   8.716
 1100WAT      O 3541   4.035   2.709   4.112
 1100WAT     H1 3542   4.074   2.619   4.093
 1100WAT     H2 3543   4.105   2.779   4.100
 1101WAT      O 3544   5.989   0.143   8.246
 1101WAT     H1 3545   6.080   0.140   8.206
 1101WAT     H2 3546   5.951   0.235   8.237
 1102WAT      O 3547   7.077   6.987   3.505
 1102WAT     H1 3548   7.113   6.937   3.583
 1102WAT     H2 3549   6.978   6.974   3.499
 1103WAT      O 3550   6.462   1.947   9.663
 1103WAT     H1 3551   6.442   2.038   9.627
 1103WAT     H2 3552   6.502   1.955   9.755
 1104WAT      O 3553   9.432   4.826   7.381
 1104WAT     H1 3554   9.396   4.738   7.413
 1104WAT     H2 3555   9.516   4.848   7.430
 1105WAT      O 3556   3.267   7.021   6.216
 1105WAT     H1 3557   3.182   6.975   6.191
 1105WAT     H2 3558   3.298   7.077   6.138
 1106WAT      O 3559   6.683   8.805   8.317
 1106WAT     H1 3560   6.628   8.809   8.401
 1106WAT     H2 3561   6.679   8.713   8.279
 1107WAT      O 3562   2.757   9.265   8.233
 1107WAT     H1 3563   2.665   9.270   8.272
 1107WAT     H2 3564   2.788   9.357   8.207
 1108WAT      O 3565   4.803   4.253   0.545
 1108WAT     H1 3566   4.827   4.188   0.617
 1108WAT     H2 3567   4.799   4.346   0.583
 1109WAT      O 3568   1.893   3.806   1.379
 1109WAT     H1 3569   1.801   3.777   1.406
 1109WAT     H2 3570   1.947   3.828   1.460
 1110WAT      O 3571   8.640   2.897   4.979
 1110WAT     H1 3572   8.710   2.966   4.994
 1110WAT     H2 3573   8.564   2.936   4.927
 1111WAT      O 3574   6.377   3.397   3.292
 1111WAT     H1 3575   6.280   3.398   3.314
 1111WAT     H2 3576   6.414   3.305   3.305
 1112WAT      O 3577   1.110   6.860   3.156
 1112WAT     H1 3578   1.085   6.772   3.198
 1112WAT     H2 3579   1.126   6.927   3.229
 1113WAT      O 3580   4.626   2.140   0.742
 1113WAT     H1 3581   4.566   2.060   0.735
 1113WAT     H2 3582   4.722   2.110   0.737
 1114WAT      O 3583   4.615   7.064   3.613
 1114WAT     H1 3584   4.626   7.159   3.644
 1114WAT     H2 3585   4.606   7.062   3.513
 1115WAT      O 3586   1.689   8.273   7.729
 1115WAT     H1 3587   1.778   8.274   7.776
 1115WAT     H2 3588   1.690   8.203   7.658
 1116WAT      O 3589   7.255   0.998   0.375
 1116WAT     H1 3590   7.232   0.994   0.278
 1116WAT     H2 3591   7.178   0.963   0.429
 1117WAT      O 3592   7.640   9.180   7.650
 1117WAT     H1 3593   7.707   9.203   7.720
 1117WAT     H2 3594   7.567   9.248   7.650
 1118WAT      O 3595   7.771   4.384   0.442
 1118WAT     H1 3596   7.764   4.293   0.402
 1118WAT     H2 3597   7.852   4.389   0.501
 1119WAT      O 3598   4.356   9.194   2.349
 1119WAT     H1 3599   4.329   9.115   2.294
 1119WAT     H2 3600   4.319   9.278   2.309
 1120WAT      O 3601   2.195   0.998   4.220
 1120WAT     H1 3602   2.101   1.031   4.212
 1120WAT     H2 3603   2.197   0.920   4.283
 1121WAT      O 3604   2.793   0.974   3.539
 1121WAT     H1 3605   2.849   1.056   3.546
 1121WAT     H2 3606   2.812   0.928   3.452
 1122WAT      O 3607   4.530   0.794   0.828
 1122WAT     H1 3608   4.586   0.801   0.910
 1122WAT     H2 3609   4.461   0.867   0.828
 1123WAT      O 3610   8.558   3.170   2.958
 1123WAT     H1 3611   8.638   3.166   2.899
 1123WAT     H2 3612   8.536   3.078   2.991
 1124WAT      O 3613   5.268   3.989   6.575
 1124WAT     H1 3614   5.319   4.037   6.504
 1124WAT     H2 3615   5.324   3.915   6.613
 1125WAT      O 3616   3.774   0.890   2.697
 1125WAT     H1 3617   3.744   0.832   2.622
 1125WAT     H2 3618   3.772   0.986   2.668
 1126WAT      O 3619   0.822   8.942   8.968
 1126WAT     H1 3620   0.871   9.004   9.029
 1126WAT     H2 3621   0.724   8.945   8.989
 1127WAT      O 3622   2.631   4.661   4.437
 1127WAT     H1 3623   2.610   4.620   4.348
 1127WAT     H2 3624   2.638   4.589   4.506
 1128WAT      O 3625   6.682   5.031   7.663
 1128WAT     H1 3626   6.753   5.101   7.655
 1128WAT     H2 3627   6.722   4.947   7.699
 1129WAT      O 3628   8.664   3.706   1.131
 1129WAT     H1 3629   8.607   3.783   1.103
 1129WAT     H2 3630   8.688   3.652   1.050
 1130WAT      O 3631   9.835   6.342   0.335
 1130WAT     H1 3632   9.755   6.373   0.386
 1130WAT     H2 3633   9.916   6.391   0.366
 1131WAT      O 3634   6.534   7.659   7.211
 1131WAT     H1 3635   6.499   7.752   7.198
 1131WAT     H2 3636   6.633   7.661   7.222
 1132WAT      O 3637   0.322   4.624   2.659
 1132WAT     H1 3638   0.250   4.693   2.669
 1132WAT     H2 3639   0.390   4.656   2.594
 1133WAT      O 3640   3.260   4.939   2.153
 1133WAT     H1 3641   3.194   4.874   2.117
 1133WAT     H2 3642   3.295   4.906   2.241
 1134WAT      O 3643   4.111   5.885   0.549
 1134WAT     H1 3644   4.173   5.856   0.475
 1134WAT     H2 3645   4.070   5.973   0.524
 1135WAT      O 3646   9.839   5.896   5.387
 1135WAT     H1 3647   9.740   5.904   5.372
 1135WAT     H2 3648   9.878   5.835   5.318
 1136WAT      O 3649   5.989   3.271   1.688
 1136WAT     H1 3650   6.066   3.254   1.748
 1136WAT     H2 3651   5.910   3.301   1.742
 1137WAT      O 3652   4.549   8.820   7.882
 1137WAT     H1 3653   4.503   8.865   7.959
 1137WAT     H2 3654   4.504   8.845   7.797
 1138WAT      O 3655   3.291   4.972   1.688
 1138WAT     H1 3656   3.335   4.933   1.769
 1138WAT     H2 3657   3.361   5.006   1.625
 1139WAT      O 3658   5.685   7.340   2.278
 1139WAT     H1 3659   5.765   7.378   2.325
 1139WAT     H2 3660   5.611   7.407   2.278
 1140WAT      O 3661   2.254   1.923   6.612
 1140WAT     H1 3662   2.239   1.967   6.523
 1140WAT     H2 3663   2.352   1.911   6.628
 1141WAT      O 3664   1.229   5.659   1.279
 1141WAT     H1 3665   1.248   5.606   1.196
 1141WAT     H2 3666   1.272   5.614   1.357
 1142WAT      O 3667   7.138   2.532   1.256
 1142WAT     H1 3668   7.218   2.541   1.196
 1142WAT     H2 3669   7.105   2.623   1.281
 1143WAT      O 3670   9.318   1.945   6.187
 1143WAT     H1 3671   9.319   1.879   6.263
 1143WAT     H2 3672   9.401   1.934   6.133
 1144WAT      O 3673   9.052   8.227   1.461
 1144WAT     H1 3674   9.010   8.139   1.441
 1144WAT     H2 3675   9.147   8.214   1.486
 1145WAT      O 3676   8.653   5.512   9.792
 1145WAT     H1 3677   8.746   5.516   9.828
 1145WAT     H2 3678   8.598   5.451   9.848
 1146WAT      O 3679   7.210   0.311   2.549
 1146WAT     H1 3680   7.155   0.312   2.633
 1146WAT     H2 3681   7.294   0.260   2.566
 1147WAT      O 3682   1.255   8.797   2.221
 1147WAT     H1 3683   1.236   8.741   2.301
 1147WAT     H2 3684   1.354   8.803   2.206
 1148WAT      O 3685   2.273   9.333   9.774
 1148WAT     H1 3686   2.197   9.387   9.809
 1148WAT     H2 3687   2.240   9.273   9.701
 1149WAT      O 3688   2.167   8.482   7.998
 1149WAT     H1 3689   2.095   8.429   7.954
 1149WAT     H2 3690   2.213   8.540   7.930
 1150WAT      O 3691   3.832   5.369   6.332
 1150WAT     H1 3692   3.836   5.458   6.376
 1150WAT     H2 3693   3.925   5.340   6.307
 1151WAT      O 3694   5.555   0.926   5.068
 1151WAT     H1 3695   5.644   0.889   5.041
 1151WAT     H2 3696   5.568   1.014   5.115
 1152WAT      O 3697   0.697   4.532   7.772
 1152WAT     H1 3698   0.722   4.497   7.682
 1152WAT     H2 3699   0.642   4.615   7.761
 1153WAT      O 3700   5.882   5.614   7.833
 1153WAT     H1 3701   5.934   5.668   7.899
 1153WAT     H2 3702   5.786   5.644   7.833
 1154WAT      O 3703   4.338   0.837   3.854
 1154WAT     H1 3704   4.399   0.902   3.809
 1154WAT     H2 3705   4.390   0.783   3.920
 1155WAT      O 3706   8.504   5.147   1.663
 1155WAT     H1 3707   8.529   5.079   1.595
 1155WAT     H2 3708   8.529   5.238   1.629
 1156WAT      O 3709   5.258   6.689   7.714
 1156WAT     H1 3710   5.159   6.695   7.700
 1156WAT     H2 3711   5.298   6.631   7.643
 1157WAT      O 3712   8.004   8.570   4.959
 1157WAT     H1 3713   7.994   8.651   4.902
 1157WAT     H2 3714   7.915   8.524   4.967
 1158WAT      O 3715   0.158   7.085   6.277
 1158WAT     H1 3716   0.158   7.038   6.366
 1158WAT     H2 3717   0.063   7.100   6.248
 1159WAT      O 3718   1.716   3.679   7.106
 1159WAT     H1 3719   1.639   3.625   7.139
 1159WAT     H2 3720   1.689   3.775   7.099
 1160WAT      O 3721   7.383   7.789   7.996
 1160WAT     H1 3722   7.464   7.820   8.046
 1160WAT     H2 3723   7.408   7.714   7.935
 1161WAT      O 3724   0.816   3.663   0.477
 1161WAT     H1 3725   0.884   3.720   0.432
 1161WAT     H2 3726   0.843   3.646   0.572
 1162WAT      O 3727   0.697   5.937   6.812
 1162WAT     H1 3728   0.649   5.920   6.898
 1162WAT     H2 3729   0.641   5.997   6.754
 1163WAT      O 3730   7.749   0.501   7.204
 1163WAT     H1 3731   7.832   0.467   7.161
 1163WAT     H2 3732   7.764   0.508   7.303
 1164WAT      O 3733   2.357   9.296   2.846
 1164WAT     H1 3734   2.275   9.353   2.855
 1164WAT     H2 3735   2.362   9.234   2.925
 1165WAT      O 3736   4.299   7.777   4.595
 1165WAT     H1 3737   4.391   7.740   4.578
 1165WAT     H2 3738   4.291   7.803   4.691
 1166WAT      O 3739   5.002   7.110   6.494
 1166WAT     H1 3740   4.999   7.122   6.394
 1166WAT     H2 3741   5.082   7.055   6.518
 1167WAT      O 3742   4.308   4.891   3.513
 1167WAT     H1 3743   4.405   4.881   3.488
 1167WAT     H2 3744   4.263   4.950   3.447
 1168WAT      O 3745   5.451   2.867   8.273
 1168WAT     H1 3746   5.410   2.932   8.209
 1168WAT     H2 3747   5.410   2.880   8.364
 1169WAT      O 3748   6.649   9.039   6.089
 1169WAT     H1 3749   6.644   9.025   6.188
 1169WAT     H2 3750   6.660   9.137   6.070
 1170WAT      O 3751   1.030   4.156   3.817
 1170WAT     H1 3752   1.085   4.073   3.827
 1170WAT     H2 3753   1.081   4.225   3.766
 1171WAT      O 3754   6.532   4.857   7.915
 1171WAT     H1 3755   6.568   4.947   7.892
 1171WAT     H2 3756   6.506   4.808   7.832
 1172WAT      O 3757   4.553   4.880   0.343
 1172WAT     H1 3758   4.487   4.844   0.277
 1172WAT     H2 3759   4.635   4.912   0.295
 1173WAT      O 3760   6.929   7.159   6.588
 1173WAT     H1 3761   6.916   7.241   6.644
 1173WAT     H2 3762   6.920   7.078   6.645
 1174WAT      O 3763   7.004   1.144   3.540
 1174WAT     H1 3764   7.098   1.176   3.549
 1174WAT     H2 3765   6.987   1.071   3.606
 1175WAT      O 3766   7.365   1.548   9.416
 1175WAT     H1 3767   7.350   1.449   9.423
 1175WAT     H2 3768   7.343   1.579   9.324
 1176WAT      O 3769   5.690   9.656   2.468
 1176WAT     H1 3770   5.668   9.567   2.428
 1176WAT     H2 3771   5.706   9.646   2.566
 1177WAT      O 3772   5.619   2.333   5.577
 1177WAT     H1 3773   5.618   2.236   5.602
 1177WAT     H2 3774   5.643   2.388   5.657
 1178WAT      O 3775   5.921   5.333   7.459
 1178WAT     H1 3776   5.993   5.371   7.517
 1178WAT     H2 3777   5.908   5.236   7.481
 1179WAT      O 3778   6.833   5.356   1.445
 1179WAT     H1 3779   6.764   5.407   1.393
 1179WAT     H2 3780   6.794   5.327   1.532
 1180WAT      O 3781   4.357   2.993   4.480
 1180WAT     H1 3782   4.414   3.000   4.561
 1180WAT     H2 3783   4.339   2.896   4.460
 1181WAT      O 3784   2.638   0.019   5.814
 1181WAT     H1 3785   2.737   0.010   5.808
 1181WAT     H2 3786   2.606  -0.019   5.900
 1182WAT      O 3787   9.358   3.617   7.546
 1182WAT     H1 3788   9.299   3.544   7.510
 1182WAT     H2 3789   9.396   3.589   7.635
 1183WAT      O 3790   4.654   2.550   2.351
 1183WAT     H1 3791   4.735   2.511   2.308
 1183WAT     H2 3792   4.587   2.478   2.368
 1184WAT      O 3793   6.624   5.739   9.681
 1184WAT     H1 3794   6.604   5.660   9.622
 1184WAT     H2 3795   6.653   5.816   9.624
 1185WAT      O 3796   9.563   5.150   5.596
 1185WAT     H1 3797   9.648   5.158   5.648
 1185WAT     H2 3798   9.559   5.059   5.554
 1186WAT      O 3799   1.839   0.754   0.669
 1186WAT     H1 3800   1.867   0.751   0.573
 1186WAT     H2 3801   1.907   0.804   0.723
 1187WAT      O 3802   2.881   2.875   8.795
 1187WAT     H1 3803   2.895   2.797   8.735
 1187WAT     H2 3804   2.940   2.951   8.766
 1188WAT      O 3805   7.538   3.652   2.056
 1188WAT     H1 3806   7.469   3.723   2.043
 1188WAT     H2 3807   7.609   3.661   1.986
 1189WAT      O 3808   3.862   9.126   1.693
 1189WAT     H1 3809   3.835   9.211   1.738
 1189WAT     H2 3810   3.961   9.116   1.697
 1190WAT      O 3811   4.143   9.581   2.053
 1190WAT     H1 3812   4.158   9.596   1.955
 1190WAT     H2 3813   4.045   9.588   2.073
 1191WAT      O 3814   4.040   0.831   2.824
 1191WAT     H1 3815   4.087   0.915   2.798
 1191WAT     H2 3816   3.945   0.835   2.792
 1192WAT      O 3817   3.794   5.886   0.134
 1192WAT     H1 3818   3.770   5.965   0.189
 1192WAT     H2 3819   3.821   5.810   0.194
 1193WAT      O 3820   9.077   2.104   8.647
 1193WAT     H1 3821   9.088   2.203   8.662
 1193WAT     H2 3822   8.985   2.085   8.614
 1194WAT      O 3823   7.386   5.562   7.006
 1194WAT     H1 3824   7.442   5.531   7.083
 1194WAT     H2 3825   7.311   5.498   6.991
 1195WAT      O 3826   1.137   8.510   6.971
 1195WAT     H1 3827   1.037   8.509   6.971
 1195WAT     H2 3828   1.172   8.416   6.971
 1196WAT      O 3829   0.198   6.111   0.236
 1196WAT     H1 3830   0.195   6.192   0.294
 1196WAT     H2 3831   0.112   6.104   0.185
 1197WAT      O 3832   9.226   6.103   4.984
 1197WAT     H1 3833   9.320   6.132   5.002
 1197WAT     H2 3834   9.185   6.070   5.069
 1198WAT      O 3835   6.658   0.289   1.503
 1198WAT     H1 3836   6.730   0.303   1.570
 1198WAT     H2 3837   6.580   0.347   1.524
 1199WAT      O 3838   4.331   9.248   3.487
 1199WAT     H1 3839   4.241   9.205   3.493
 1199WAT     H2 3840   4.328   9.338   3.530
 1200WAT      O 3841   1.453   0.214   0.607
 1200WAT     H1 3842   1.400   0.264   0.540
 1200WAT     H2 3843   1.487   0.277   0.677
 1201WAT      O 3844   0.449   2.448   2.452
 1201WAT     H1 3845   0.531   2.499   2.478
 1201WAT     H2 3846   0.422   2.386   2.526
 1202WAT      O 3847   0.945   8.468   0.586
 1202WAT     H1 3848   0.970   8.530   0.512
 1202WAT     H2 3849   1.028   8.429   0.627
 1203WAT      O 3850   0.862   2.838   2.217
 1203WAT     H1 3851   0.936   2.772   2.223
 1203WAT     H2 3852   0.776   2.790   2.198
 1204WAT      O 3853   4.481   7.352   2.855
 1204WAT     H1 3854   4.576   7.353   2.826
 1204WAT     H2 3855   4.439   7.441   2.836
 1205WAT      O 3856   0.354   5.120   9.544
 1205WAT     H1 3857   0.444   5.161   9.530
 1205WAT     H2 3858   0.301   5.176   9.607
 1206WAT      O 3859   3.265   9.723   7.726
 1206WAT     H1 3860   3.260   9.625   7.746
 1206WAT     H2 3861   3.327   9.767   7.790
 1207WAT      O 3862   1.322   0.435   6.649
 1207WAT     H1 3863   1.388   0.443   6.574
 1207WAT     H2 3864   1.312   0.339   6.676
 1208WAT      O 3865   2.640   9.431   1.292
 1208WAT     H1 3866   2.725   9.469   1.256
 1208WAT     H2 3867   2.566   9.448   1.227
 1209WAT      O 3868   7.565   9.096   5.603
 1209WAT     H1 3869   7.663   9.081   5.619
 1209WAT     H2 3870   7.541   9.064   5.511
 1210WAT      O 3871   4.469   5.890   3.341
 1210WAT     H1 3872   4.553   5.938   3.314
 1210WAT     H2 3873   4.490   5.794   3.357
 1211WAT      O 3874   9.361   8.220   3.489
 1211WAT     H1 3875   9.446   8.266   3.462
 1211WAT     H2 3876   9.383   8.138   3.542
 1212WAT      O 3877   1.985   6.263   7.155
 1212WAT     H1 3878   2.045   6.183   7.162
 1212WAT     H2 3879   2.000   6.309   7.068
 1213WAT      O 3880   4.606   9.000   1.237
 1213WAT     H1 3881   4.580   9.032   1.328
 1213WAT     H2 3882   4.684   8.938   1.245
 1214WAT      O 3883   6.597   6.927   4.823
 1214WAT     H1 3884   6.677   6.868   4.816
 1214WAT     H2 3885   6.514   6.871   4.820
 1215WAT      O 3886   8.562   2.535   2.801
 1215WAT     H1 3887   8.584   2.482   2.719
 1215WAT     H2 3888   8.535   2.473   2.874
 1216WAT      O 3889   1.166   0.817   6.863
 1216WAT     H1 3890   1.182   0.871   6.945
 1216WAT     H2 3891   1.249   0.766   6.839
 1217WAT      O 3892   5.998   5.653   6.327
 1217WAT     H1 3893   6.040   5.655   6.236
 1217WAT     H2 3894   5.982   5.558   6.354
 1218WAT      O 3895   6.851   4.445   1.290
 1218WAT     H1 3896   6.913   4.523   1.285
 1218WAT     H2 3897   6.757   4.475   1.273
 1219WAT      O 3898   7.629   9.486   0.281
 1219WAT     H1 3899   7.638   9.460   0.377
 1219WAT     H2 3900   7.720   9.495   0.240
 1220WAT      O 3901   8.701   7.696   4.728
 1220WAT     H1 3902   8.606   7.726   4.715
 1220WAT     H2 3903   8.759   7.739   4.659
 1221WAT      O 3904   5.354   5.443   1.405
 1221WAT     H1 3905   5.392   5.379   1.338
 1221WAT     H2 3906   5.351   5.535   1.365
 1222WAT      O 3907   8.702   5.518   9.525
 1222WAT     H1 3908   8.686   5.515   9.623
 1222WAT     H2 3909   8.779   5.579   9.505
 1223WAT      O 3910   8.244   3.097   9.671
 1223WAT     H1 3911   8.315   3.154   9.631
 1223WAT     H2 3912   8.278   3.054   9.755
 1224WAT      O 3913   6.799   7.132   9.180
 1224WAT     H1 3914   6.806   7.068   9.103
 1224WAT     H2 3915   6.860   7.101   9.254
 1225WAT      O 3916   1.760   8.802   7.120
 1225WAT     H1 3917   1.751   8.717   7.066
 1225WAT     H2 3918   1.674   8.820   7.167
 1226WAT      O 3919   6.677   2.774   8.612
 1226WAT     H1 3920   6.652   2.820   8.697
 1226WAT     H2 3921   6.727   2.837   8.553
 1227WAT      O 3922   2.170   1.874   4.269
 1227WAT     H1 3923   2.164   1.863   4.368
 1227WAT     H2 3924   2.145   1.788   4.224
 1228WAT      O 3925   6.271   4.477   8.569
 1228WAT     H1 3926   6.290   4.505   8.475
 1228WAT     H2 3927   6.353   4.491   8.625
 1229WAT      O 3928   8.708   1.131   8.276
 1229WAT     H1 3929   8.756   1.084   8.202
 1229WAT     H2 3930   8.747   1.222   8.288
 1230WAT      O 3931   1.956   8.685   5.026
 1230WAT     H1 3932   1.940   8.744   5.105
 1230WAT     H2 3933   2.010   8.606   5.053
 1231WAT      O 3934   0.470   9.449   5.820
 1231WAT     H1 3935   0.413   9.405   5.889
 1231WAT     H2 3936   0.444   9.416   5.729
 1232WAT      O 3937   8.847   7.514   8.327
 1232WAT     H1 3938   8.823   7.484   8.420
 1232WAT     H2 3939   8.944   7.494   8.311
 1233WAT      O 3940   1.094   5.393   7.764
 1233WAT     H1 3941   1.130   5.415   7.673
 1233WAT     H2 3942   1.029   5.317   7.756
 1234WAT      O 3943   0.605   4.288   4.154
 1234WAT     H1 3944   0.530   4.345   4.187
 1234WAT     H2 3945   0.691   4.318   4.195
 1235WAT      O 3946   2.539   3.010   1.410
 1235WAT     H1 3947   2.472   3.085   1.412
 1235WAT     H2 3948   2.630   3.048   1.396
 1236WAT      O 3949   1.414   5.464   2.520
 1236WAT     H1 3950   1.391   5.449   2.616
 1236WAT     H2 3951   1.476   5.392   2.489
 1237WAT      O 3952   8.862   8.082   7.757
 1237WAT     H1 3953   8.869   8.110   7.661
 1237WAT     H2 3954   8.771   8.104   7.791
 1238WAT      O 3955   6.433   1.354   4.166
 1238WAT     H1 3956   6.527   1.368   4.199
 1238WAT     H2 3957   6.435   1.299   4.083
 1239WAT      O 3958   1.508   3.263   7.028
 1239WAT     H1 3959   1.419   3.253   6.984
 1239WAT     H2 3960   1.580   3.231   6.965
 1240WAT      O 3961   5.424   1.285   1.936
 1240WAT     H1 3962   5.399   1.353   2.005
 1240WAT     H2 3963   5.423   1.328   1.845
 1241WAT      O 3964   7.192   1.967   1.980
 1241WAT     H1 3965   7.260   2.039   1.967
 1241WAT     H2 3966   7.125   1.971   1.906
 1242WAT      O 3967   5.244   3.355   5.417
 1242WAT     H1 3968   5.286   3.266   5.436
 1242WAT     H2 3969   5.177   3.376   5.488
 1243WAT      O 3970   7.395   7.882   2.203
 1243WAT     H1 3971   7.403   7.789   2.167
 1243WAT     H2 3972   7.474   7.902   2.261
 1244WAT      O 3973   6.132   3.479   7.649
 1244WAT     H1 3974   6.179   3.560   7.682
 1244WAT     H2 3975   6.091   3.499   7.560
 1245WAT      O 3976   5.150   8.120   7.084
 1245WAT     H1 3977   5.068   8.172   7.108
 1245WAT     H2 3978   5.138   8.025   7.112
 1246WAT      O 3979   4.240   0.366   7.766
 1246WAT     H1 3980   4.159   0.322   7.804
 1246WAT     H2 3981   4.298   0.400   7.840
 1247WAT      O 3982   1.878   9.655   1.454
 1247WAT     H1 3983   1.817   9.607   1.392
 1247WAT     H2 3984   1.970   9.617   1.447
 1248WAT      O 3985   6.099   2.368   7.851
 1248WAT     H1 3986   6.047   2.453   7.850
 1248WAT     H2 3987   6.149   2.358   7.765
 1249WAT      O 3988   3.139   7.552   2.860
 1249WAT     H1 3989   3.041   7.547   2.883
 1249WAT     H2 3990   3.155   7.630   2.799
 1250WAT      O 3991   9.783   5.310   8.900
 1250WAT     H1 3992   9.872   5.282   8.936
 1250WAT     H2 3993   9.795   5.384   8.835
 1251WAT      O 3994   3.876   3.903   9.167
 1251WAT     H1 3995   3.901   3.980   9.226
 1251WAT     H2 3996   3.929   3.908   9.083
 1252WAT      O 3997   3.370   1.448   0.610
 1252WAT     H1 3998   3.426   1.435   0.528
 1252WAT     H2 3999   3.406   1.390   0.683
 1253WAT      O 4000   5.348   7.080   8.599
 1253WAT     H1 4001   5.331   6.983   8.581
 1253WAT     H2 4002   5.391   7.122   8.519
 1254WAT      O 4003   0.653   2.166   9.595
 1254WAT     H1 4004   0.650   2.105   9.516
 1254WAT     H2 4005   0.579   2.143   9.658
 1255WAT      O 4006   9.084   3.988   8.259
 1255WAT     H1 4007   9.001   4.024   8.218
 1255WAT     H2 4008   9.105   3.898   8.219
 1256WAT      O 4009   9.786   9.801   4.092
 1256WAT     H1 4010   9.861   9.866   4.083
 1256WAT     H2 4011   9.700   9.850   4.107
 1257WAT      O 4012   7.254   9.709   3.412
 1257WAT     H1 4013   7.275   9.759   3.496
 1257WAT     H2 4014   7.242   9.612   3.433
 1258WAT      O 4015   9.461   1.805   4.982
 1258WAT     H1 4016   9.513   1.823   4.899
 1258WAT     H2 4017   9.410   1.719   4.972
 1259WAT      O 4018   5.295   2.035   7.250
 1259WAT     H1 4019   5.221   1.967   7.244
 1259WAT     H2 4020   5.268   2.116   7.197
 1260WAT      O 4021   8.486   4.971   0.275
 1260WAT     H1 4022   8.524   4.879   0.288
 1260WAT     H2 4023   8.387   4.968   0.288
 1261WAT      O 4024   1.226   8.048   4.470
 1261WAT     H1 4025   1.307   8.020   4.418
 1261WAT     H2 4026   1.255   8.095   4.553
 1262WAT      O 4027   1.822   9.295   2.967
 1262WAT     H1 4028   1.767   9.224   2.922
 1262WAT     H2 4029   1.866   9.257   3.048
 1263WAT      O 4030   8.591   6.788   4.923
 1263WAT     H1 4031   8.631   6.838   4.846
 1263WAT     H2 4032   8.664   6.751   4.981
 1264WAT      O 4033   7.047   9.536   7.676
 1264WAT     H1 4034   7.082   9.629   7.688
 1264WAT     H2 4035   6.994   9.531   7.591
 1265WAT      O 4036   3.206   6.206   3.135
 1265WAT     H1 4037   3.166   6.205   3.226
 1265WAT     H2 4038   3.254   6.120   3.118
 1266WAT      O 4039   9.869   4.639   5.307
 1266WAT     H1 4040   9.942   4.690   5.261
 1266WAT     H2 4041   9.906   4.595   5.389
 1267WAT      O 4042   7.591   4.137   2.686
 1267WAT     H1 4043   7.686   4.147   2.714
 1267WAT     H2 4044   7.550   4.058   2.732
 1268WAT      O 4045   0.643   2.947   4.707
 1268WAT     H1 4046   0.607   3.038   4.688
 1268WAT     H2 4047   0.590   2.906   4.782
 1269WAT      O 4048   1.483   2.778   5.887
 1269WAT     H1 4049   1.435   2.865   5.892
 1269WAT     H2 4050   1.425   2.709   5.843
 1270WAT      O 4051   2.542   5.157   9.871
 1270WAT     H1 4052   2.482   5.149   9.951
 1270WAT     H2 4053   2.596   5.073   9.862
 1271WAT      O 4054   5.450   6.907   4.058
 1271WAT     H1 4055   5.508   6.858   3.994
 1271WAT     H2 4056   5.355   6.899   4.030
 1272WAT      O 4057   0.608   6.757   4.795
 1272WAT     H1 4058   0.528   6.698   4.791
 1272WAT     H2 4059   0.689   6.703   4.817
 1273WAT      O 4060   0.490   1.095   2.071
 1273WAT     H1 4061   0.418   1.039   2.031
 1273WAT     H2 4062   0.504   1.177   2.015
 1274WAT      O 4063   7.620   2.159   2.772
 1274WAT     H1 4064   7.656   2.130   2.683
 1274WAT     H2 4065   7.589   2.253   2.766
 1275WAT      O 4066   7.302   9.421   6.479
 1275WAT     H1 4067   7.276   9.326   6.494
 1275WAT     H2 4068   7.354   9.427   6.394
 1276WAT      O 4069   5.077   1.519   7.778
 1276WAT     H1 4070   5.157   1.545   7.831
 1276WAT     H2 4071   5.043   1.430   7.809
 1277WAT      O 4072   4.670   4.955   3.678
 1277WAT     H1 4073   4.737   5.029   3.680
 1277WAT     H2 4074   4.624   4.955   3.590
 1278WAT      O 4075   3.750   1.741   8.742
 1278WAT     H1 4076   3.664   1.707   8.779
 1278WAT     H2 4077   3.788   1.673   8.679
 1279WAT      O 4078   0.880   9.227   2.734
 1279WAT     H1 4079   0.877   9.159   2.807
 1279WAT     H2 4080   0.972   9.228   2.694
 1280WAT      O 4081   2.815   3.442   1.273
 1280WAT     H1 4082   2.801   3.371   1.205
 1280WAT     H2 4083   2.867   3.517   1.233
 1281WAT      O 4084   8.892   5.669   1.197
 1281WAT     H1 4085   8.802   5.632   1.172
 1281WAT     H2 4086   8.879   5.756   1.245
 1282WAT      O 4087   4.156   3.466   0.227
 1282WAT     H1 4088   4.107   3.553   0.237
 1282WAT     H2 4089   4.095   3.397   0.188
 1283WAT      O 4090   1.999   7.994   5.892
 1283WAT     H1 4091   2.089   7.951   5.900
 1283WAT     H2 4092   2.009   8.085   5.852
 1284WAT      O 4093   5.759   3.542   3.111
 1284WAT     H1 4094   5.714   3.577   3.193
 1284WAT     H2 4095   5.767   3.616   3.043
 1285WAT      O 4096   0.393   4.922   9.735
 1285WAT     H1 4097   0.376   4.989   9.662
 1285WAT     H2 4098   0.407   4.971   9.822
 1286WAT      O 4099   5.468   5.320   7.844
 1286WAT     H1 4100   5.493   5.261   7.768
 1286WAT     H2 4101   5.488   5.415   7.821
 1287WAT      O 4102   0.168   2.666   5.388
 1287WAT     H1 4103   0.263   2.643   5.369
 1287WAT     H2 4104   0.108   2.607   5.334
 1288WAT      O 4105   5.710   4.146   6.273
 1288WAT     H1 4106   5.703   4.058   6.320
 1288WAT     H2 4107   5.805   4.177   6.273
 1289WAT      O 4108   9.100   3.472   0.314
 1289WAT     H1 4109   9.054   3.436   0.233
 1289WAT     H2 4110   9.038   3.468   0.392
 1290WAT      O 4111   1.674   1.929   3.849
 1290WAT     H1 4112   1.696   1.991   3.773
 1290WAT     H2 4113   1.586   1.885   3.831
 1291WAT      O 4114   5.610   8.575   0.891
 1291WAT     H1 4115   5.639   8.608   0.801
 1291WAT     H2 4116   5.570   8.484   0.881
 1292WAT      O 4117   9.033   1.306   7.292
 1292WAT     H1 4118   8.967   1.254   7.238
 1292WAT     H2 4119   8.986   1.352   7.367
 1293WAT      O 4120   5.830   8.386   0.022
 1293WAT     H1 4121   5.825   8.468   0.080
 1293WAT     H2 4122   5.883   8.407  -0.060
 1294WAT      O 4123   3.943   6.719   2.111
 1294WAT     H1 4124   3.890   6.637   2.130
 1294WAT     H2 4125   3.882   6.792   2.079
 1295WAT      O 4126   4.778   0.271   2.559
 1295WAT     H1 4127   4.721   0.189   2.570
 1295WAT     H2 4128   4.863   0.259   2.611
 1296WAT      O 4129   4.605   8.895   0.915
 1296WAT     H1 4130   4.529   8.930   0.969
 1296WAT     H2 4131   4.640   8.811   0.957
 1297WAT      O 4132   6.310   8.304   3.367
 1297WAT     H1 4133   6.328   8.320   3.463
 1297WAT     H2 4134   6.392   8.267   3.323
 1298WAT      O 4135   4.686   4.406   8.319
 1298WAT     H1 4136   4.707   4.399   8.417
 1298WAT     H2 4137   4.629   4.487   8.304
 1299WAT      O 4138   6.032   9.701   9.225
 1299WAT     H1 4139   6.111   9.740   9.177
 1299WAT     H2 4140   5.967   9.774   9.248
 1300WAT      O 4141   4.996   1.191   1.858
 1300WAT     H1 4142   5.016   1.193   1.760
 1300WAT     H2 4143   5.007   1.098   1.892
 1301WAT      O 4144   5.862   3.279   3.141
 1301WAT     H1 4145   5.959   3.301   3.130
 1301WAT     H2 4146   5.808   3.362   3.127
 1302WAT      O 4147   6.267   9.638   8.483
 1302WAT     H1 4148   6.289   9.668   8.576
 1302WAT     H2 4149   6.178   9.676   8.456
 1303WAT      O 4150   5.471   6.506   7.920
 1303WAT     H1 4151   5.509   6.518   7.828
 1303WAT     H2 4152   5.441   6.595   7.955
 1304WAT      O 4153   3.100   6.455   3.085
 1304WAT     H1 4154   3.104   6.356   3.098
 1304WAT     H2 4155   3.182   6.486   3.037
 1305WAT      O 4156   1.315   0.605   1.922
 1305WAT     H1 4157   1.342   0.566   2.010
 1305WAT     H2 4158   1.387   0.666   1.889
 1306WAT      O 4159   3.878   5.945   6.442
 1306WAT     H1 4160   3.796   5.988   6.404
 1306WAT     H2 4161   3.886   5.968   6.539
 1307WAT      O 4162   0.626   4.778   7.097
 1307WAT     H1 4163   0.663   4.762   7.005
 1307WAT     H2 4164   0.526   4.777   7.093
 1308WAT      O 4165   4.663   6.556   9.546
 1308WAT     H1 4166   4.716   6.471   9.540
 1308WAT     H2 4167   4.574   6.543   9.503
 1309WAT      O 4168   0.997   9.405   5.423
 1309WAT     H1 4169   0.974   9.351   5.342
 1309WAT     H2 4170   1.033   9.344   5.494
 1310WAT      O 4171   8.998   7.528   9.885
 1310WAT     H1 4172   9.031   7.447   9.933
 1310WAT     H2 4173   8.954   7.590   9.951
 1311WAT      O 4174   6.056   3.953   1.465
 1311WAT     H1 4175   6.047   4.034   1.408
 1311WAT     H2 4176   6.129   3.895   1.429
 1312WAT      O 4177   0.430   9.380   9.000
 1312WAT     H1 4178   0.404   9.424   8.914
 1312WAT     H2 4179   0.367   9.408   9.072
 1313WAT      O 4180   6.651   9.601   9.857
 1313WAT     H1 4181   6.668   9.503   9.864
 1313WAT     H2 4182   6.736   9.649   9.839
 1314WAT      O 4183   9.525   7.050   0.412
 1314WAT     H1 4184   9.613   7.018   0.448
 1314WAT     H2 4185   9.526   7.149   0.406
 1315WAT      O 4186   5.817   0.681   4.124
 1315WAT     H1 4187   5.860   0.730   4.048
 1315WAT     H2 4188   5.812   0.740   4.204
 1316WAT      O 4189   0.228   8.023   7.266
 1316WAT     H1 4190   0.291   7.955   7.227
 1316WAT     H2 4191   0.228   8.014   7.366
 1317WAT      O 4192   3.099   3.122   0.856
 1317WAT     H1 4193   3.129   3.217   0.847
 1317WAT     H2 4194   3.141   3.082   0.937
 1318WAT      O 4195   7.439   5.849   0.821
 1318WAT     H1 4196   7.460   5.912   0.896
 1318WAT     H2 4197   7.503   5.772   0.823
 1319WAT      O 4198   7.927   0.897   8.098
 1319WAT     H1 4199   7.908   0.911   8.001
 1319WAT     H2 4200   7.846   0.857   8.142
 1320WAT      O 4201   3.733   3.278   2.808
 1320WAT     H1 4202   3.755   3.188   2.847
 1320WAT     H2 4203   3.699   3.338   2.879
 1321WAT      O 4204   0.071   3.012   8.904
 1321WAT     H1 4205   0.041   2.967   8.988
 1321WAT     H2 4206   0.155   3.064   8.922
 1322WAT      O 4207   5.446   6.861   9.598
 1322WAT     H1 4208   5.429   6.881   9.695
 1322WAT     H2 4209   5.544   6.860   9.580
 1323WAT      O 4210   4.305   3.522   6.850
 1323WAT     H1 4211   4.333   3.573   6.930
 1323WAT     H2 4212   4.352   3.433   6.848
 1324WAT      O 4213   7.174   6.921   1.204
 1324WAT     H1 4214   7.223   6.845   1.162
 1324WAT     H2 4215   7.236   6.975   1.261
 1325WAT      O 4216   1.376   4.787   6.626
 1325WAT     H1 4217   1.441   4.712   6.619
 1325WAT     H2 4218   1.396   4.856   6.557
 1326WAT      O 4219   2.488   1.310   2.960
 1326WAT     H1 4220   2.438   1.397   2.958
 1326WAT     H2 4221   2.514   1.284   2.867
 1327WAT      O 4222   9.224   9.710   0.657
 1327WAT     H1 4223   9.214   9.758   0.570
 1327WAT     H2 4224   9.143   9.726   0.713
 1328WAT      O 4225   5.449   3.240   7.038
 1328WAT     H1 4226   5.488   3.250   7.130
 1328WAT     H2 4227   5.356   3.277   7.038
 1329WAT      O 4228   1.597   1.535   1.744
 1329WAT     H1 4229   1.682   1.509   1.789
 1329WAT     H2 4230   1.588   1.484   1.659
 1330WAT      O 4231   8.354   5.690   3.128
 1330WAT     H1 4232   8.264   5.732   3.118
 1330WAT     H2 4233   8.422   5.746   3.081
 1331WAT      O 4234   0.723   5.103   8.634
 1331WAT     H1 4235   0.782   5.156   8.573
 1331WAT     H2 4236   0.775   5.029   8.676
 1332WAT      O 4237   1.255   6.614   7.439
 1332WAT     H1 4238   1.277   6.592   7.534
 1332WAT     H2 4239   1.191   6.691   7.436
 1333WAT      O 4240   8.754   7.038   5.216
 1333WAT     H1 4241   8.816   6.963   5.237
 1333WAT     H2 4242   8.777   7.117   5.273
 1334WAT      O 4243   5.804   5.344   7.820
 1334WAT     H1 4244   5.838   5.438   7.822
 1334WAT     H2 4245   5.705   5.345   7.802
 1335WAT      O 4246   9.382   3.534   5.475
 1335WAT     H1 4247   9.396   3.438   5.451
 1335WAT     H2 4248   9.285   3.557   5.466
 1336WAT      O 4249   5.313   3.739   0.717
 1336WAT     H1 4250   5.232   3.739   0.659
 1336WAT     H2 4251   5.395   3.750   0.661
 1337WAT      O 4252   4.616   3.619   8.124
 1337WAT     H1 4253   4.630   3.561   8.204
 1337WAT     H2 4254   4.693   3.610   8.062
 1338WAT      O 4255   8.752   8.710   5.079
 1338WAT     H1 4256   8.723   8.794   5.123
 1338WAT     H2 4257   8.795   8.731   4.991
 1339WAT      O 4258   8.849   1.178   9.580
 1339WAT     H1 4259   8.853   1.262   9.525
 1339WAT     H2 4260   8.808   1.198   9.669
 1340WAT      O 4261   4.759   7.189   7.011
 1340WAT     H1 4262   4.847   7.233   6.994
 1340WAT     H2 4263   4.770   7.090   7.012
 1341WAT      O 4264   7.378   5.712   5.560
 1341WAT     H1 4265   7.282   5.686   5.565
 1341WAT     H2 4266   7.385   5.800   5.513
 1342WAT      O 4267   6.452   8.869   1.119
 1342WAT     H1 4268   6.472   8.957   1.163
 1342WAT     H2 4269   6.384   8.820   1.173
 1343WAT      O 4270   3.337   7.340   4.812
 1343WAT     H1 4271   3.243   7.371   4.828
 1343WAT     H2 4272   3.366   7.281   4.887
 1344WAT      O 4273   8.984   6.275   2.436
 1344WAT     H1 4274   9.066   6.327   2.461
 1344WAT     H2 4275   8.918   6.278   2.511
 1345WAT      O 4276   2.057   1.709   1.367
 1345WAT     H1 4277   2.049   1.610   1.358
 1345WAT     H2 4278   1.995   1.753   1.302
 1346WAT      O 4279   4.424   9.125   2.605
 1346WAT     H1 4280   4.521   9.149   2.605
 1346WAT     H2 4281   4.384   9.148   2.516
 1347WAT      O 4282   3.458   2.828   8.935
 1347WAT     H1 4283   3.386   2.852   8.871
 1347WAT     H2 4284   3.422   2.828   9.029
 1348WAT      O 4285   1.786   0.918   1.337
 1348WAT     H1 4286   1.725   0.839   1.346
 1348WAT     H2 4287   1.775   0.959   1.246
 1349WAT      O 4288   3.214   5.792   1.961
 1349WAT     H1 4289   3.174   5.702   1.944
 1349WAT     H2 4290   3.145   5.851   2.004
 1350WAT      O 4291   8.290   2.991   2.256
 1350WAT     H1 4292   8.206   3.024   2.300
 1350WAT     H2 4293   8.266   2.931   2.180
 1351WAT      O 4294   7.393   0.454   3.206
 1351WAT     H1 4295   7.346   0.368   3.185
 1351WAT     H2 4296   7.455   0.439   3.283
 1352WAT      O 4297   8.626   4.235   5.541
 1352WAT     H1 4298   8.577   4.149   5.525
 1352WAT     H2 4299   8.568   4.297   5.594
 1353WAT      O 4300   1.257   4.929   5.401
 1353WAT     H1 4301   1.292   4.847   5.446
 1353WAT     H2 4302   1.199   4.902   5.324
 1354WAT      O 4303   0.131   5.182   5.836
 1354WAT     H1 4304   0.162   5.265   5.883
 1354WAT     H2 4305   0.134   5.104   5.898
 1355WAT      O 4306   5.681   2.107   7.319
 1355WAT     H1 4307   5.774   2.071   7.325
 1355WAT     H2 4308   5.654   2.111   7.222
 1356WAT      O 4309   9.215   9.144   7.423
 1356WAT     H1 4310   9.190   9.210   7.352
 1356WAT     H2 4311   9.183   9.053   7.396
 1357WAT      O 4312   9.204   7.842   6.022
 1357WAT     H1 4313   9.299   7.812   6.017
 1357WAT     H2 4314   9.184   7.901   5.944
 1358WAT      O 4315   3.181   7.033   8.144
 1358WAT     H1 4316   3.210   7.106   8.083
 1358WAT     H2 4317   3.099   7.061   8.193
 1359WAT      O 4318   2.100   9.316   1.144
 1359WAT     H1 4319   2.023   9.257   1.169
 1359WAT     H2 4320   2.181   9.289   1.196
 1360WAT      O 4321   0.377   5.020   8.158
 1360WAT     H1 4322   0.373   5.000   8.060
 1360WAT     H2 4323   0.404   4.938   8.208
 1361WAT      O 4324   5.651   6.834   8.635
 1361WAT     H1 4325   5.733   6.876   8.595
 1361WAT     H2 4326   5.640   6.866   8.729
 1362WAT      O 4327   7.675   5.714   0.794
 1362WAT     H1 4328   7.737   5.756   0.860
 1362WAT     H2 4329   7.702   5.619   0.779
 1363WAT      O 4330   1.632   0.207   7.992
 1363WAT     H1 4331   1.602   0.301   7.976
 1363WAT     H2 4332   1.560   0.157   8.039
 1364WAT      O 4333   1.591   3.531   8.062
 1364WAT     H1 4334   1.636   3.578   8.138
 1364WAT     H2 4335   1.573   3.596   7.988
 1365WAT      O 4336   8.689   7.972   7.449
 1365WAT     H1 4337   8.618   7.926   7.502
 1365WAT     H2 4338   8.647   8.036   7.385
 1366WAT      O 4339   2.818   9.146   0.918
 1366WAT     H1 4340   2.729   9.101   0.927
 1366WAT     H2 4341   2.889   9.086   0.955
 1367WAT      O 4342   2.804   7.098   2.420
 1367WAT     H1 4343   2.802   7.143   2.509
 1367WAT     H2 4344   2.712   7.097   2.381
 1368WAT      O 4345   3.186   9.535   3.810
 1368WAT     H1 4346   3.088   9.521   3.791
 1368WAT     H2 4347   3.221   9.456   3.860
 1369WAT      O 4348   9.571   3.688   5.221
 1369WAT     H1 4349   9.573   3.693   5.321
 1369WAT     H2 4350   9.502   3.751   5.186
 1370WAT      O 4351   0.371   9.691   1.084
 1370WAT     H1 4352   0.307   9.622   1.117
 1370WAT     H2 4353   0.456   9.646   1.056
 1371WAT      O 4354   1.484   4.838   0.410
 1371WAT     H1 4355   1.391   4.829   0.374
 1371WAT     H2 4356   1.549   4.803   0.343
 1372WAT      O 4357   5.856   4.712   7.749
 1372WAT     H1 4358   5.832   4.792   7.804
 1372WAT     H2 4359   5.806   4.714   7.663
 1373WAT      O 4360   2.323   8.175   2.961
 1373WAT     H1 4361   2.228   8.201   2.977
 1373WAT     H2 4362   2.327   8.110   2.886
 1374WAT      O 4363   7.312   3.693   7.498
 1374WAT     H1 4364   7.260   3.775   7.474
 1374WAT     H2 4365   7.407   3.718   7.514
 1375WAT      O 4366   5.881   5.924   1.270
 1375WAT     H1 4367   5.973   5.918   1.308
 1375WAT     H2 4368   5.814   5.910   1.342
 1376WAT      O 4369   0.943   5.116   3.441
 1376WAT     H1 4370   0.899   5.131   3.352
 1376WAT     H2 4371   0.947   5.018   3.461
 1377WAT      O 4372   0.421   4.090   2.475
 1377WAT     H1 4373   0.359   4.019   2.510
 1377WAT     H2 4374   0.409   4.100   2.377
 1378WAT      O 4375   4.199   8.544   7.426
 1378WAT     H1 4376   4.140   8.624   7.421
 1378WAT     H2 4377   4.216   8.509   7.334
 1379WAT      O 4378   5.561   8.240   6.088
 1379WAT     H1 4379   5.462   8.231   6.080
 1379WAT     H2 4380   5.585   8.333   6.116
 1380WAT      O 4381   4.130   5.999   7.659
 1380WAT     H1 4382   4.074   5.982   7.577
 1380WAT     H2 4383   4.226   5.987   7.636
 1381WAT      O 4384   4.354   7.546   1.544
 1381WAT     H1 4385   4.429   7.574   1.604
 1381WAT     H2 4386   4.390   7.525   1.453
 1382WAT      O 4387   7.399   4.217   6.884
 1382WAT     H1 4388   7.471   4.221   6.953
 1382WAT     H2 4389   7.365   4.310   6.866
 1383WAT      O 4390   3.617   7.418   5.264
 1383WAT     H1 4391   3.560   7.483   5.212
 1383WAT     H2 4392   3.649   7.462   5.348
 1384WAT      O 4393   4.726   2.314   1.971
 1384WAT     H1 4394   4.799   2.246   1.966
 1384WAT     H2 4395   4.663   2.301   1.895
 1385WAT      O 4396   3.892   9.653   5.818
 1385WAT     H1 4397   3.950   9.645   5.898
 1385WAT     H2 4398   3.948   9.669   5.737
 1386WAT      O 4399   9.253   7.600   5.792
 1386WAT     H1 4400   9.324   7.649   5.742
 1386WAT     H2 4401   9.165   7.613   5.747
 1387WAT      O 4402   4.495   7.359   9.101
 1387WAT     H1 4403   4.574   7.300   9.118
 1387WAT     H2 4404   4.413   7.303   9.093
 1388WAT      O 4405   0.147   0.600   6.138
 1388WAT     H1 4406   0.188   0.691   6.128
 1388WAT     H2 4407   0.171   0.544   6.058
 1389WAT      O 4408   7.529   2.760   2.089
 1389WAT     H1 4409   7.526   2.780   1.991
 1389WAT     H2 4410   7.462   2.689   2.111
 1390WAT      O 4411   7.209   3.744   3.593
 1390WAT     H1 4412   7.222   3.842   3.579
 1390WAT     H2 4413   7.298   3.700   3.607
 1391WAT      O 4414   5.113   1.045   7.159
 1391WAT     H1 4415   5.122   1.141   7.132
 1391WAT     H2 4416   5.113   1.039   7.259
 1392WAT      O 4417   5.580   5.945   7.863
 1392WAT     H1 4418   5.538   6.035   7.850
 1392WAT     H2 4419   5.556   5.910   7.953
 1393WAT      O 4420   5.027   3.154   5.116
 1393WAT     H1 4421   5.072   3.065   5.114
 1393WAT     H2 4422   4.986   3.169   5.205
 1394WAT      O 4423   9.272   1.834   0.956
 1394WAT     H1 4424   9.188   1.785   0.934
 1394WAT     H2 4425   9.250   1.928   0.985
 1395WAT      O 4426   9.687   0.502   2.383
 1395WAT     H1 4427   9.716   0.499   2.288
 1395WAT     H2 4428   9.695   0.596   2.417
 1396WAT      O 4429   7.101   1.999   3.358
 1396WAT     H1 4430   7.179   2.020   3.299
 1396WAT     H2 4431   7.026   1.963   3.302
 1397WAT      O 4432   4.022   1.577   5.263
 1397WAT     H1 4433   3.975   1.499   5.221
 1397WAT     H2 4434   4.061   1.635   5.191
 1398WAT      O 4435   5.385   2.709   4.917
 1398WAT     H1 4436   5.434   2.708   4.830
 1398WAT     H2 4437   5.348   2.800   4.934
 1399WAT      O 4438   6.506   4.580   3.252
 1399WAT     H1 4439   6.483   4.666   3.207
 1399WAT     H2 4440   6.558   4.523   3.189
 1400WAT      O 4441   1.510   6.117   1.936
 1400WAT     H1 4442   1.455   6.198   1.954
 1400WAT     H2 4443   1.469   6.038   1.981
 1401WAT      O 4444   5.058   9.735   8.514
 1401WAT     H1 4445   4.974   9.784   8.490
 1401WAT     H2 4446   5.136   9.780   8.470
 1402WAT      O 4447   2.821   1.513   9.857
 1402WAT     H1 4448   2.768   1.596   9.877
 1402WAT     H2 4449   2.772   1.457   9.790
 1403WAT      O 4450   1.127   5.475   7.510
 1403WAT     H1 4451   1.109   5.391   7.458
 1403WAT     H2 4452   1.107   5.555   7.453
 1404WAT      O 4453   0.948   8.992   8.478
 1404WAT     H1 4454   0.987   9.059   8.415
 1404WAT     H2 4455   0.941   9.031   8.569
 1405WAT      O 4456   3.832   3.794   4.136
 1405WAT     H1 4457   3.888   3.776   4.056
 1405WAT     H2 4458   3.870   3.873   4.186
 1406WAT      O 4459   2.312   2.525   1.728
 1406WAT     H1 4460   2.228   2.473   1.739
 1406WAT     H2 4461   2.304   2.613   1.775
 1407WAT      O 4462   1.093   7.127   8.363
 1407WAT     H1 4463   1.089   7.038   8.409
 1407WAT     H2 4464   1.162   7.184   8.407
 1408WAT      O 4465   7.015   2.941   5.892
 1408WAT     H1 4466   6.999   3.019   5.832
 1408WAT     H2 4467   7.091   2.961   5.954
 1409WAT      O 4468   6.269   4.947   3.293
 1409WAT     H1 4469   6.174   4.946   3.325
 1409WAT     H2 4470   6.271   4.949   3.193
 1410WAT      O 4471   4.810   5.052   5.627
 1410WAT     H1 4472   4.785   4.977   5.566
 1410WAT     H2 4473   4.839   5.131   5.572
 1411WAT      O 4474   7.548   1.059   5.825
 1411WAT     H1 4475   7.468   1.106   5.862
 1411WAT     H2 4476   7.552   0.966   5.861
 1412WAT      O 4477   5.123   1.495   4.191
 1412WAT     H1 4478   5.215   1.512   4.227
 1412WAT     H2 4479   5.128   1.481   4.092
 1413WAT      O 4480   6.198   6.790   2.411
 1413WAT     H1 4481   6.201   6.711   2.472
 1413WAT     H2 4482   6.276   6.785   2.348
 1414WAT      O 4483   9.583   5.608   1.743
 1414WAT     H1 4484   9.647   5.679   1.772
 1414WAT     H2 4485   9.517   5.647   1.679
 1415WAT      O 4486   2.802   1.765   5.396
 1415WAT     H1 4487   2.844   1.692   5.343
 1415WAT     H2 4488   2.738   1.726   5.462
 1416WAT      O 4489   1.452   4.361   2.949
 1416WAT     H1 4490   1.454   4.283   3.011
 1416WAT     H2 4491   1.372   4.355   2.889
 1417WAT      O 4492   6.227   5.098   6.725
 1417WAT     H1 4493   6.170   5.062   6.798
 1417WAT     H2 4494   6.263   5.187   6.752
 1418WAT      O 4495   0.768   0.526   5.958
 1418WAT     H1 4496   0.788   0.435   5.994
 1418WAT     H2 4497   0.669   0.538   5.949
 1419WAT      O 4498   2.525   7.129   1.309
 1419WAT     H1 4499   2.442   7.169   1.348
 1419WAT     H2 4500   2.554   7.182   1.229
 1420WAT      O 4501   3.629   1.775   6.836
 1420WAT     H1 4502   3.721   1.736   6.829
 1420WAT     H2 4503   3.634   1.874   6.826
 1421WAT      O 4504   1.187   0.682   3.674
 1421WAT     H1 4505   1.165   0.585   3.681
 1421WAT     H2 4506   1.285   0.696   3.690
 1422WAT      O 4507   1.891   4.953   6.352
 1422WAT     H1 4508   1.798   4.987   6.337
 1422WAT     H2 4509   1.950   5.027   6.383
 1423WAT      O 4510   5.586   2.118   6.467
 1423WAT     H1 4511   5.580   2.042   6.402
 1423WAT     H2 4512   5.662   2.102   6.530
 1424WAT      O 4513   4.559   4.269   0.786
 1424WAT     H1 4514   4.624   4.344   0.783
 1424WAT     H2 4515   4.491   4.281   0.714
 1425WAT      O 4516   2.394   7.048   0.401
 1425WAT     H1 4517   2.370   7.125   0.460
 1425WAT     H2 4518   2.434   6.975   0.455
 1426WAT      O 4519   3.929   5.391   4.152
 1426WAT     H1 4520   3.950   5.295   4.131
 1426WAT     H2 4521   3.985   5.451   4.094
 1427WAT      O 4522   2.577   1.843   9.678
 1427WAT     H1 4523   2.541   1.856   9.585
 1427WAT     H2 4524   2.638   1.918   9.701
 1428WAT      O 4525   1.156   5.256   6.726
 1428WAT     H1 4526   1.120   5.298   6.643
 1428WAT     H2 4527   1.256   5.262   6.725
 1429WAT      O 4528   4.458   6.246   4.856
 1429WAT     H1 4529   4.404   6.171   4.817
 1429WAT     H2 4530   4.402   6.329   4.857
 1430WAT      O 4531   6.163   2.267   6.942
 1430WAT     H1 4532   6.236   2.198   6.951
 1430WAT     H2 4533   6.086   2.241   7.000
 1431WAT      O 4534   1.042   5.972   6.069
 1431WAT     H1 4535   1.084   5.985   6.159
 1431WAT     H2 4536   0.942   5.975   6.078
 1432WAT      O 4537   9.257   8.897   7.148
 1432WAT     H1 4538   9.328   8.886   7.078
 1432WAT     H2 4539   9.299   8.905   7.238
 1433WAT      O 4540   8.558   5.950   5.510
 1433WAT     H1 4541   8.570   6.036   5.559
 1433WAT     H2 4542   8.513   5.883   5.570
 1434WAT      O 4543   6.731   1.262   6.711
 1434WAT     H1 4544   6.741   1.279   6.613
 1434WAT     H2 4545   6.667   1.187   6.725
 1435WAT      O 4546   1.861   9.354   2.240
 1435WAT     H1 4547   1.799   9.407   2.182
 1435WAT     H2 4548   1.941   9.410   2.263
 1436WAT      O 4549   8.037   7.232   0.661
 1436WAT     H1 4550   7.950   7.234   0.710
 1436WAT     H2 4551   8.032   7.165   0.587
 1437WAT      O 4552   1.814   2.726   0.051
 1437WAT     H1 4553   1.883   2.798   0.055
 1437WAT     H2 4554   1.858   2.638   0.038
 1438WAT      O 4555   8.554   2.747   7.153
 1438WAT     H1 4556   8.627   2.687   7.182
 1438WAT     H2 4557   8.576   2.787   7.063
 1439WAT      O 4558   0.821   0.490   6.318
 1439WAT     H1 4559   0.840   0.397   6.285
 1439WAT     H2 4560   0.886   0.515   6.389
 1440WAT      O 4561   5.124   5.893   2.087
 1440WAT     H1 4562   5.038   5.869   2.131
 1440WAT     H2 4563   5.183   5.812   2.084
 1441WAT      O 4564   5.491   5.178   0.344
 1441WAT     H1 4565   5.519   5.156   0.250
 1441WAT     H2 4566   5.465   5.093   0.391
 1442WAT      O 4567   4.386   9.797   3.763
 1442WAT     H1 4568   4.366   9.759   3.854
 1442WAT     H2 4569   4.453   9.739   3.717
 1443WAT      O 4570   4.053   3.415   1.266
 1443WAT     H1 4571   4.130   3.372   1.219
 1443WAT     H2 4572   3.981   3.436   1.200
 1444WAT      O 4573   7.231   2.920   4.584
 1444WAT     H1 4574   7.252   2.892   4.490
 1444WAT     H2 4575   7.161   2.991   4.582
 1445WAT      O 4576   6.458   4.282   5.647
 1445WAT     H1 4577   6.366   4.258   5.615
 1445WAT     H2 4578   6.489   4.363   5.598
 1446WAT      O 4579   4.235   7.820   4.887
 1446WAT     H1 4580   4.272   7.731   4.912
 1446WAT     H2 4581   4.283   7.891   4.939
 1447WAT      O 4582   3.248   5.699   5.074
 1447WAT     H1 4583   3.183   5.768   5.106
 1447WAT     H2 4584   3.248   5.621   5.137
 1448WAT      O 4585   9.194   2.119   1.937
 1448WAT     H1 4586   9.248   2.074   1.865
 1448WAT     H2 4587   9.224   2.087   2.027
 1449WAT      O 4588   0.858   0.573   7.340
 1449WAT     H1 4589   0.837   0.557   7.244
 1449WAT     H2 4590   0.784   0.538   7.397
 1450WAT      O 4591   0.562   0.229   6.605
 1450WAT     H1 4592   0.618   0.198   6.530
 1450WAT     H2 4593   0.467   0.242   6.574
 1451WAT      O 4594   4.784   7.754   2.384
 1451WAT     H1 4595   4.884   7.741   2.386
 1451WAT     H2 4596   4.763   7.851   2.391
 1452WAT      O 4597   3.696   1.781   2.971
 1452WAT     H1 4598   3.666   1.847   3.041
 1452WAT     H2 4599   3.664   1.690   2.996
 1453WAT      O 4600   7.818   3.822   2.976
 1453WAT     H1 4601   7.815   3.789   2.882
 1453WAT     H2 4602   7.827   3.744   3.038
 1454WAT      O 4603   2.898   6.813   1.257
 1454WAT     H1 4604   2.966   6.746   1.228
 1454WAT     H2 4605   2.825   6.818   1.189
 1455WAT      O 4606   0.711   0.055   4.873
 1455WAT     H1 4607   0.621   0.087   4.902
 1455WAT     H2 4608   0.741   0.107   4.793
 1456WAT      O 4609   4.182   2.736   3.679
 1456WAT     H1 4610   4.093   2.780   3.694
 1456WAT     H2 4611   4.248   2.771   3.745
 1457WAT      O 4612   1.533   8.231   3.898
 1457WAT     H1 4613   1.557   8.259   3.805
 1457WAT     H2 4614   1.601   8.166   3.932
 1458WAT      O 4615   9.225   0.430   9.327
 1458WAT     H1 4616   9.322   0.438   9.303
 1458WAT     H2 4617   9.186   0.521   9.340
 1459WAT      O 4618   0.850   3.433   8.538
 1459WAT     H1 4619   0.942   3.395   8.529
 1459WAT     H2 4620   0.799   3.381   8.606
 1460WAT      O 4621   8.966   1.483   2.744
 1460WAT     H1 4622   8.982   1.503   2.647
 1460WAT     H2 4623   9.047   1.440   2.783
 1461WAT      O 4624   2.989   3.623   5.846
 1461WAT     H1 4625   2.945   3.559   5.908
 1461WAT     H2 4626   3.086   3.601   5.838
 1462WAT      O 4627   9.791   9.181   5.441
 1462WAT     H1 4628   9.848   9.108   5.403
 1462WAT     H2 4629   9.779   9.253   5.374
 1463WAT      O 4630   7.698   0.074   7.736
 1463WAT     H1 4631   7.626   0.143   7.738
 1463WAT     H2 4632   7.779   0.109   7.784
 1464WAT      O 4633   4.051   9.677   4.509
 1464WAT     H1 4634   4.148   9.667   4.487
 1464WAT     H2 4635   3.997   9.666   4.426
 1465WAT      O 4636   4.549   3.110   1.838
 1465WAT     H1 4637   4.472   3.150   1.887
 1465WAT     H2 4638   4.516   3.044   1.771
 1466WAT      O 4639   1.436   7.046   7.951
 1466WAT     H1 4640   1.351   7.065   8.000
 1466WAT     H2 4641   1.422   6.970   7.887
 1467WAT      O 4642   8.881   8.393   2.288
 1467WAT     H1 4643   8.976   8.421   2.272
 1467WAT     H2 4644   8.854   8.327   2.218
 1468WAT      O 4645   4.148   2.338   3.234
 1468WAT     H1 4646   4.144   2.280   3.315
 1468WAT     H2 4647   4.223   2.307   3.175
 1469WAT      O 4648   6.924   2.797   2.766
 1469WAT     H1 4649   6.946   2.868   2.833
 1469WAT     H2 4650   6.846   2.744   2.799
 1470WAT      O 4651   5.586   3.442   1.086
 1470WAT     H1 4652   5.542   3.525   1.121
 1470WAT     H2 4653   5.624   3.391   1.163
 1471WAT      O 4654   1.952   7.888   5.623
 1471WAT     H1 4655   2.016   7.813   5.644
 1471WAT     H2 4656   1.893   7.904   5.702
 1472WAT      O 4657   8.674   7.145   8.837
 1472WAT     H1 4658   8.654   7.178   8.745
 1472WAT     H2 4659   8.590   7.137   8.889
 1473WAT      O 4660   5.071   6.850   1.229
 1473WAT     H1 4661   5.163   6.823   1.256
 1473WAT     H2 4662   5.012   6.769   1.227
 1474WAT      O 4663   7.706   5.416   5.488
 1474WAT     H1 4664   7.732   5.501   5.442
 1474WAT     H2 4665   7.613   5.425   5.524
 1475WAT      O 4666   1.105   7.788   7.003
 1475WAT     H1 4667   1.084   7.700   7.045
 1475WAT     H2 4668   1.038   7.807   6.931
 1476WAT      O 4669   3.131   9.163   9.151
 1476WAT     H1 4670   3.088   9.181   9.240
 1476WAT     H2 4671   3.109   9.237   9.088
 1477WAT      O 4672   6.467   6.188   6.431
 1477WAT     H1 4673   6.392   6.154   6.488
 1477WAT     H2 4674   6.507   6.269   6.473
 1478WAT      O 4675   5.548   5.466   0.907
 1478WAT     H1 4676   5.635   5.510   0.884
 1478WAT     H2 4677   5.483   5.535   0.939
 1479WAT      O 4678   0.286   2.261   1.283
 1479WAT     H1 4679   0.307   2.337   1.344
 1479WAT     H2 4680   0.370   2.220   1.248
 1480WAT      O 4681   8.168   1.448   9.203
 1480WAT     H1 4682   8.180   1.537   9.159
 1480WAT     H2 4683   8.209   1.377   9.146
 1481WAT      O 4684   5.627   5.384   3.876
 1481WAT     H1 4685   5.666   5.354   3.963
 1481WAT     H2 4686   5.671   5.470   3.849
 1482WAT      O 4687   5.810   5.245   0.059
 1482WAT     H1 4688   5.866   5.325   0.079
 1482WAT     H2 4689   5.838   5.170   0.119
 1483WAT      O 4690   9.407   4.939   2.296
 1483WAT     H1 4691   9.348   5.019   2.294
 1483WAT     H2 4692   9.367   4.866   2.240
 1484WAT      O 4693   6.830   7.645   1.208
 1484WAT     H1 4694   6.877   7.636   1.296
 1484WAT     H2 4695   6.862   7.573   1.146
 1485WAT      O 4696   3.872   4.957   3.932
 1485WAT     H1 4697   3.926   4.891   3.880
 1485WAT     H2 4698   3.807   5.003   3.870
 1486WAT      O 4699   7.812   5.165   2.170
 1486WAT     H1 4700   7.849   5.204   2.086
 1486WAT     H2 4701   7.824   5.066   2.169
 1487WAT      O 4702   2.215   8.384   8.953
 1487WAT     H1 4703   2.131   8.438   8.942
 1487WAT     H2 4704   2.201   8.293   8.915
 1488WAT      O 4705   9.000   6.900   0.878
 1488WAT     H1 4706   9.037   6.990   0.899
 1488WAT     H2 4707   8.903   6.898   0.900
 1489WAT      O 4708   1.357   8.003   6.093
 1489WAT     H1 4709   1.370   8.087   6.041
 1489WAT     H2 4710   1.290   8.020   6.166
 1490WAT      O 4711   5.102   2.214   1.518
 1490WAT     H1 4712   5.107   2.196   1.419
 1490WAT     H2 4713   5.180   2.170   1.563
 1491WAT      O 4714   1.136   5.774   3.146
 1491WAT     H1 4715   1.090   5.772   3.235
 1491WAT     H2 4716   1.160   5.680   3.118
 1492WAT      O 4717   8.098   4.266   7.545
 1492WAT     H1 4718   8.121   4.177   7.506
 1492WAT     H2 4719   8.180   4.324   7.546
 1493WAT      O 4720   4.611   2.950   2.981
 1493WAT     H1 4721   4.665   3.033   2.964
 1493WAT     H2 4722   4.650   2.874   2.929
 1494WAT      O 4723   7.538   4.172   4.624
 1494WAT     H1 4724   7.539   4.132   4.532
 1494WAT     H2 4725   7.493   4.262   4.620
 1495WAT      O 4726   9.592   1.493   3.951
 1495WAT     H1 4727   9.647   1.565   3.994
 1495WAT     H2 4728   9.550   1.436   4.022
 1496WAT      O 4729   6.866   1.840   4.918
 1496WAT     H1 4730   6.787   1.878   4.870
 1496WAT     H2 4731   6.941   1.906   4.917
 1497WAT      O 4732   7.459   0.449   7.149
 1497WAT     H1 4733   7.551   0.470   7.179
 1497WAT     H2 4734   7.419   0.379   7.209
 1498WAT      O 4735   4.826   3.625   7.922
 1498WAT     H1 4736   4.873   3.662   8.003
 1498WAT     H2 4737   4.799   3.700   7.862
 1499WAT      O 4738   1.363   7.379   7.732
 1499WAT     H1 4739   1.391   7.432   7.652
 1499WAT     H2 4740   1.412   7.292   7.734
 1500WAT      O 4741   2.967   3.674   5.098
 1500WAT     H1 4742   2.906   3.663   5.020
 1500WAT     H2 4743   2.967   3.770   5.127
 1501WAT      O 4744   1.929   6.508   7.745
 1501WAT     H1 4745   1.832   6.488   7.729
 1501WAT     H2 4746   1.938   6.592   7.798
 1502WAT      O 4747   4.067   9.765   8.274
 1502WAT     H1 4748   4.088   9.748   8.370
 1502WAT     H2 4749   4.097   9.687   8.219
 1503WAT      O 4750   1.186   5.904   5.010
 1503WAT     H1 4751   1.261   5.840   4.996
 1503WAT     H2 4752   1.115   5.861   5.065
 1504WAT      O 4753   1.071   6.200   8.906
 1504WAT     H1 4754   0.990   6.253   8.882
 1504WAT     H2 4755   1.080   6.195   9.006
 1505WAT      O 4756   2.478   0.130   9.006
 1505WAT     H1 4757   2.568   0.175   9.008
 1505WAT     H2 4758   2.467   0.083   8.918
 1506WAT      O 4759   9.282   9.201   0.785
 1506WAT     H1 4760   9.219   9.208   0.708
 1506WAT     H2 4761   9.273   9.111   0.827
 1507WAT      O 4762   2.597   1.876   8.781
 1507WAT     H1 4763   2.506   1.891   8.740
 1507WAT     H2 4764   2.597   1.789   8.830
 1508WAT      O 4765   3.536   5.469   9.883
 1508WAT     H1 4766   3.518   5.530   9.960
 1508WAT     H2 4767   3.574   5.383   9.917
 1509WAT      O 4768   4.084   2.721   8.127
 1509WAT     H1 4769   4.100   2.703   8.224
 1509WAT     H2 4770   4.172   2.738   8.082
 1510WAT      O 4771   6.372   9.225   8.615
 1510WAT     H1 4772   6.315   9.144   8.602
 1510WAT     H2 4773   6.466   9.205   8.585
 1511WAT      O 4774   0.329   1.359   0.276
 1511WAT     H1 4775   0.244   1.405   0.303
 1511WAT     H2 4776   0.404   1.425   0.277
 1512WAT      O 4777   8.819   3.946   9.609
 1512WAT     H1 4778   8.732   3.980   9.571
 1512WAT     H2 4779   8.819   3.957   9.708
 1513WAT      O 4780   2.687   1.849   8.342
 1513WAT     H1 4781   2.644   1.887   8.424
 1513WAT     H2 4782   2.627   1.780   8.302
 1514WAT      O 4783   5.196   2.006   6.566
 1514WAT     H1 4784   5.270   2.068   6.592
 1514WAT     H2 4785   5.210   1.974   6.473
 1515WAT      O 4786   8.880   5.664   3.725
 1515WAT     H1 4787   8.923   5.607   3.655
 1515WAT     H2 4788   8.804   5.615   3.767
 1516WAT      O 4789   2.358   3.698   7.047
 1516WAT     H1 4790   2.325   3.776   7.099
 1516WAT     H2 4791   2.442   3.723   6.998
 1517WAT      O 4792   3.049   6.321   4.553
 1517WAT     H1 4793   3.123   6.370   4.507
 1517WAT     H2 4794   2.969   6.381   4.561
 1518WAT      O 4795   7.219   0.006   2.971
 1518WAT     H1 4796   7.131   0.054   2.971
 1518WAT     H2 4797   7.280   0.050   3.038
 1519WAT      O 4798   8.979   9.438   3.124
 1519WAT     H1 4799   8.911   9.369   3.147
 1519WAT     H2 4800   9.068   9.410   3.160
 1520WAT      O 4801   5.315   2.931   0.649
 1520WAT     H1 4802   5.249   2.911   0.720
 1520WAT     H2 4803   5.317   3.029   0.631
 1521WAT      O 4804   1.370   0.949   0.857
 1521WAT     H1 4805   1.321   0.904   0.783
 1521WAT     H2 4806   1.424   1.025   0.820
 1522WAT      O 4807   9.163   8.303   8.235
 1522WAT     H1 4808   9.131   8.218   8.194
 1522WAT     H2 4809   9.261   8.315   8.217
 1523WAT      O 4810   4.109   8.318   1.187
 1523WAT     H1 4811   4.064   8.304   1.099
 1523WAT     H2 4812   4.066   8.395   1.234
 1524WAT      O 4813   6.950   9.412   7.900
 1524WAT     H1 4814   6.983   9.434   7.808
 1524WAT     H2 4815   6.990   9.325   7.930
 1525WAT      O 4816   3.572   0.807   7.647
 1525WAT     H1 4817   3.622   0.774   7.567
 1525WAT     H2 4818   3.636   0.843   7.714
 1526WAT      O 4819   5.962   6.971   7.242
 1526WAT     H1 4820   5.898   7.040   7.209
 1526WAT     H2 4821   5.935   6.943   7.334
 1527WAT      O 4822   9.232   7.734   3.800
 1527WAT     H1 4823   9.257   7.727   3.897
 1527WAT     H2 4824   9.132   7.733   3.792
 1528WAT      O 4825   6.630   0.404   7.201
 1528WAT     H1 4826   6.551   0.395   7.140
 1528WAT     H2 4827   6.690   0.325   7.188
 1529WAT      O 4828   7.095   4.897   3.920
 1529WAT     H1 4829   7.025   4.928   3.856
 1529WAT     H2 4830   7.150   4.825   3.875
 1530WAT      O 4831   4.830   9.459   9.143
 1530WAT     H1 4832   4.820   9.503   9.233
 1530WAT     H2 4833   4.794   9.520   9.072
 1531WAT      O 4834   6.236   7.876   2.630
 1531WAT     H1 4835   6.329   7.892   2.661
 1531WAT     H2 4836   6.197   7.799   2.681
 1532WAT      O 4837   2.890   0.648   7.183
 1532WAT     H1 4838   2.828   0.651   7.262
 1532WAT     H2 4839   2.846   0.694   7.106
 1533WAT      O 4840   5.750   3.741   2.931
 1533WAT     H1 4841   5.665   3.793   2.919
 1533WAT     H2 4842   5.752   3.665   2.865
 1534WAT      O 4843   9.135   1.360   4.577
 1534WAT     H1 4844   9.145   1.349   4.478
 1534WAT     H2 4845   9.058   1.306   4.609
 1535WAT      O 4846   9.515   1.104   9.810
 1535WAT     H1 4847   9.419   1.108   9.781
 1535WAT     H2 4848   9.521   1.069   9.903
 1536WAT      O 4849   0.363   3.698   7.392
 1536WAT     H1 4850   0.273   3.663   7.365
 1536WAT     H2 4851   0.351   3.774   7.455
 1537WAT      O 4852   2.940   9.128   1.279
 1537WAT     H1 4853   3.009   9.201   1.269
 1537WAT     H2 4854   2.985   9.044   1.308
 1538WAT      O 4855   6.229   2.004   5.652
 1538WAT     H1 4856   6.323   1.989   5.683
 1538WAT     H2 4857   6.168   1.944   5.703
 1539WAT      O 4858   9.370   4.936   9.797
 1539WAT     H1 4859   9.416   4.927   9.709
 1539WAT     H2 4860   9.374   5.031   9.827
 1540WAT      O 4861   9.090   1.628   4.527
 1540WAT     H1 4862   9.089   1.655   4.431
 1540WAT     H2 4863   9.081   1.528   4.533
 1541WAT      O 4864   2.524   8.363   0.890
 1541WAT     H1 4865   2.504   8.265   0.894
 1541WAT     H2 4866   2.528   8.400   0.984
 1542WAT      O 4867   6.489   9.137   3.623
 1542WAT     H1 4868   6.456   9.066   3.686
 1542WAT     H2 4869   6.440   9.130   3.536
 1543WAT      O 4870   9.295   7.384   2.937
 1543WAT     H1 4871   9.294   7.284   2.933
 1543WAT     H2 4872   9.203   7.419   2.920
 1544WAT      O 4873   0.883   6.444   8.634
 1544WAT     H1 4874   0.975   6.428   8.599
 1544WAT     H2 4875   0.815   6.405   8.571
 1545WAT      O 4876   7.848   1.104   6.272
 1545WAT     H1 4877   7.832   1.184   6.214
 1545WAT     H2 4878   7.786   1.030   6.246
 1546WAT      O 4879   8.166   9.106   5.359
 1546WAT     H1 4880   8.168   9.158   5.444
 1546WAT     H2 4881   8.074   9.108   5.321
 1547WAT      O 4882   8.151   9.736   6.035
 1547WAT     H1 4883   8.062   9.763   5.996
 1547WAT     H2 4884   8.194   9.814   6.078
 1548WAT      O 4885   1.273   4.942   3.128
 1548WAT     H1 4886   1.196   4.891   3.167
 1548WAT     H2 4887   1.278   4.924   3.029
 1549WAT      O 4888   8.607   0.048   9.241
 1549WAT     H1 4889   8.632   0.135   9.283
 1549WAT     H2 4890   8.656  -0.027   9.287
 1550WAT      O 4891   3.926   5.544   8.108
 1550WAT     H1 4892   3.892   5.478   8.175
 1550WAT     H2 4893   4.019   5.571   8.132
 1551WAT      O 4894   1.052   3.076   4.459
 1551WAT     H1 4895   0.990   3.035   4.392
 1551WAT     H2 4896   1.106   3.148   4.415
 1552WAT      O 4897   5.336   2.566   7.175
 1552WAT     H1 4898   5.411   2.606   7.122
 1552WAT     H2 4899   5.325   2.617   7.260
 1553WAT      O 4900   9.309   8.899   0.836
 1553WAT     H1 4901   9.378   8.906   0.764
 1553WAT     H2 4902   9.249   8.821   0.818
 1554WAT      O 4903   4.262   4.836   6.818
 1554WAT     H1 4904   4.237   4.933   6.807
 1554WAT     H2 4905   4.294   4.820   6.911
 1555WAT      O 4906   2.296   6.781   6.315
 1555WAT     H1 4907   2.216   6.756   6.369
 1555WAT     H2 4908   2.359   6.834   6.371
 1556WAT      O 4909   7.619   0.407   1.291
 1556WAT     H1 4910   7.609   0.354   1.374
 1556WAT     H2 4911   7.556   0.373   1.221
 1557WAT      O 4912   5.689   5.025   1.631
 1557WAT     H1 4913   5.699   5.024   1.532
 1557WAT     H2 4914   5.597   4.996   1.655
 1558WAT      O 4915   0.393   6.365   8.852
 1558WAT     H1 4916   0.487   6.398   8.840
 1558WAT     H2 4917   0.362   6.385   8.945
 1559WAT      O 4918   7.967   8.686   3.501
 1559WAT     H1 4919   7.962   8.593   3.539
 1559WAT     H2 4920   7.885   8.704   3.447
 1560WAT      O 4921   7.777   7.873   5.145
 1560WAT     H1 4922   7.779   7.919   5.233
 1560WAT     H2 4923   7.866   7.882   5.100
 1561WAT      O 4924   6.517   7.913   9.418
 1561WAT     H1 4925   6.444   7.943   9.356
 1561WAT     H2 4926   6.585   7.986   9.427
 1562WAT      O 4927   7.174   6.277   0.162
 1562WAT     H1 4928   7.274   6.277   0.162
 1562WAT     H2 4929   7.141   6.309   0.251
 1563WAT      O 4930   0.806   2.271   3.169
 1563WAT     H1 4931   0.888   2.327   3.163
 1563WAT     H2 4932   0.790   2.225   3.082
 1564WAT      O 4933   3.705   4.894   3.501
 1564WAT     H1 4934   3.743   4.978   3.541
 1564WAT     H2 4935   3.728   4.816   3.559
 1565WAT      O 4936   8.875   2.365   1.089
 1565WAT     H1 4937   8.901   2.424   1.013
 1565WAT     H2 4938   8.908   2.272   1.072
 1566WAT      O 4939   9.624   9.111   5.117
 1566WAT     H1 4940   9.638   9.209   5.128
 1566WAT     H2 4941   9.584   9.093   5.027
 1567WAT      O 4942   3.720   1.568   0.902
 1567WAT     H1 4943   3.761   1.490   0.950
 1567WAT     H2 4944   3.672   1.626   0.967
 1568WAT      O 4945   6.240   2.274   2.120
 1568WAT     H1 4946   6.153   2.318   2.145
 1568WAT     H2 4947   6.285   2.240   2.201
 1569WAT      O 4948   2.832   8.737   9.465
 1569WAT     H1 4949   2.767   8.811   9.447
 1569WAT     H2 4950   2.921   8.775   9.490
 1570WAT      O 4951   8.576   7.261   9.335
 1570WAT     H1 4952   8.594   7.163   9.325
 1570WAT     H2 4953   8.610   7.292   9.424
 1571WAT      O 4954   9.419   6.363   1.117
 1571WAT     H1 4955   9.343   6.375   1.053
 1571WAT     H2 4956   9.504   6.352   1.066
 1572WAT      O 4957   9.132   6.786   1.178
 1572WAT     H1 4958   9.197   6.752   1.245
 1572WAT     H2 4959   9.169   6.772   1.086
 1573WAT      O 4960   2.095   5.762   5.854
 1573WAT     H1 4961   2.095   5.832   5.782
 1573WAT     H2 4962   2.073   5.805   5.942
 1574WAT      O 4963   5.912   7.797   3.399
 1574WAT     H1 4964   6.006   7.766   3.390
 1574WAT     H2 4965   5.900   7.848   3.484
 1575WAT      O 4966   6.809   0.501   6.150
 1575WAT     H1 4967   6.779   0.488   6.244
 1575WAT     H2 4968   6.730   0.500   6.089
 1576WAT      O 4969   5.648   7.782   9.294
 1576WAT     H1 4970   5.588   7.703   9.285
 1576WAT     H2 4971   5.730   7.757   9.346
 1577WAT      O 4972   7.076   3.572   1.397
 1577WAT     H1 4973   7.009   3.570   1.323
 1577WAT     H2 4974   7.160   3.527   1.368
 1578WAT      O 4975   9.648   3.028   5.931
 1578WAT     H1 4976   9.640   2.982   5.843
 1578WAT     H2 4977   9.578   3.100   5.938
 1579WAT      O 4978   1.436   8.628   8.850
 1579WAT     H1 4979   1.376   8.649   8.927
 1579WAT     H2 4980   1.531   8.644   8.877
 1580WAT      O 4981   4.210   6.880   4.879
 1580WAT     H1 4982   4.243   6.911   4.969
 1580WAT     H2 4983   4.274   6.813   4.842
 1581WAT      O 4984   0.817   8.845   1.434
 1581WAT     H1 4985   0.722   8.872   1.424
 1581WAT     H2 4986   0.870   8.880   1.356
 1582WAT      O 4987   8.086   2.842   8.660
 1582WAT     H1 4988   8.071   2.771   8.591
 1582WAT     H2 4989   8.131   2.802   8.740
 1583WAT      O 4990   2.437   8.122   5.743
 1583WAT     H1 4991   2.411   8.218   5.755
 1583WAT     H2 4992   2.386   8.084   5.666
 1584WAT      O 4993   3.072   5.773   2.264
 1584WAT     H1 4994   2.986   5.742   2.224
 1584WAT     H2 4995   3.112   5.844   2.207
 1585WAT      O 4996   0.165   2.930   4.187
 1585WAT     H1 4997   0.089   2.905   4.128
 1585WAT     H2 4998   0.130   2.954   4.278
 1586WAT      O 4999   1.492   5.534   9.771
 1586WAT     H1 5000   1.520   5.521   9.866
 1586WAT     H2 5001   1.466   5.446   9.731
 1587WAT      O 5002   5.839   3.930   7.162
 1587WAT     H1 5003   5.857   4.005   7.099
 1587WAT     H2 5004   5.791   3.964   7.243
 1588WAT      O 5005   9.124   6.273   0.770
 1588WAT     H1 5006   9.165   6.340   0.708
 1588WAT     H2 5007   9.176   6.187   0.765
 1589WAT      O 5008   5.199   2.375   1.196
 1589WAT     H1 5009   5.154   2.286   1.200
 1589WAT     H2 5010   5.135   2.447   1.221
 1590WAT      O 5011   0.883   1.512   1.063
 1590WAT     H1 5012   0.832   1.450   1.002
 1590WAT     H2 5013   0.843   1.603   1.059
 1591WAT      O 5014   8.304   8.969   1.543
 1591WAT     H1 5015   8.345   8.946   1.631
 1591WAT     H2 5016   8.259   8.888   1.505
 1592WAT      O 5017   9.168   2.265   7.483
 1592WAT     H1 5018   9.260   2.294   7.458
 1592WAT     H2 5019   9.161   2.258   7.583
 1593WAT      O 5020   2.299   2.357   7.688
 1593WAT     H1 5021   2.305   2.282   7.755
 1593WAT     H2 5022   2.237   2.427   7.723
 1594WAT      O 5023   9.637   5.819   2.589
 1594WAT     H1 5024   9.647   5.867   2.502
 1594WAT     H2 5025   9.631   5.720   2.572
 1595WAT      O 5026   1.726   4.767   6.979
 1595WAT     H1 5027   1.823   4.784   6.995
 1595WAT     H2 5028   1.674   4.849   7.003
 1596WAT      O 5029   4.791   7.385   4.075
 1596WAT     H1 5030   4.755   7.292   4.086
 1596WAT     H2 5031   4.838   7.412   4.159
 1597WAT      O 5032   3.862   1.822   9.708
 1597WAT     H1 5033   3.846   1.746   9.644
 1597WAT     H2 5034   3.935   1.797   9.772
 1598WAT      O 5035   2.563   3.973   7.365
 1598WAT     H1 5036   2.612   3.953   7.280
 1598WAT     H2 5037   2.628   3.993   7.438
 1599WAT      O 5038   0.720   7.743   4.847
 1599WAT     H1 5039   0.796   7.700   4.896
 1599WAT     H2 5040   0.683   7.679   4.780
 1600WAT      O 5041   0.874   1.009   6.464
 1600WAT     H1 5042   0.907   0.967   6.548
 1600WAT     H2 5043   0.950   1.054   6.417
 1601WAT      O 5044   5.603   2.543   1.958
 1601WAT     H1 5045   5.581   2.641   1.968
 1601WAT     H2 5046   5.520   2.493   1.934
 1602WAT      O 5047   1.861   3.930   2.518
 1602WAT     H1 5048   1.822   3.958   2.606
 1602WAT     H2 5049   1.874   3.831   2.518
 1603WAT      O 5050   6.807   1.507   7.479
 1603WAT     H1 5051   6.793   1.488   7.382
 1603WAT     H2 5052   6.900   1.479   7.505
 1604WAT      O 5053   1.975   4.557   9.375
 1604WAT     H1 5054   1.891   4.553   9.321
 1604WAT     H2 5055   1.970   4.490   9.449
 1605WAT      O 5056   2.192   5.646   3.971
 1605WAT     H1 5057   2.263   5.703   3.930
 1605WAT     H2 5058   2.211   5.636   4.069
 1606WAT      O 5059   8.275   9.575   4.001
 1606WAT     H1 5060   8.318   9.624   4.077
 1606WAT     H2 5061   8.272   9.477   4.022
 1607WAT      O 5062   8.095   0.790   9.510
 1607WAT     H1 5063   8.011   0.845   9.503
 1607WAT     H2 5064   8.171   0.841   9.469
 1608WAT      O 5065   2.859   9.672   1.767
 1608WAT     H1 5066   2.949   9.642   1.799
 1608WAT     H2 5067   2.870   9.745   1.700
 1609WAT      O 5068   2.815   4.260   8.673
 1609WAT     H1 5069   2.746   4.199   8.635
 1609WAT     H2 5070   2.774   4.349   8.693
 1610WAT      O 5071   3.530   0.447   4.376
 1610WAT     H1 5072   3.610   0.461   4.317
 1610WAT     H2 5073   3.447   0.452   4.321
 1611WAT      O 5074   3.003   3.855   8.593
 1611WAT     H1 5075   2.996   3.905   8.680
 1611WAT     H2 5076   3.098   3.856   8.562
 1612WAT      O 5077   1.862   7.873   3.282
 1612WAT     H1 5078   1.808   7.807   3.229
 1612WAT     H2 5079   1.840   7.865   3.379
 1613WAT      O 5080   9.642   5.063   3.553
 1613WAT     H1 5081   9.677   5.106   3.470
 1613WAT     H2 5082   9.719   5.029   3.608
 1614WAT      O 5083   8.248   8.190   7.922
 1614WAT     H1 5084   8.159   8.220   7.956
 1614WAT     H2 5085   8.257   8.091   7.934
 1615WAT      O 5086   3.606   2.931   6.322
 1615WAT     H1 5087   3.554   2.877   6.255
 1615WAT     H2 5088   3.566   2.918   6.413
 1616WAT      O 5089   7.327   8.416   7.718
 1616WAT     H1 5090   7.303   8.400   7.622
 1616WAT     H2 5091   7.406   8.477   7.723
 1617WAT      O 5092   0.473   4.999   5.447
 1617WAT     H1 5093   0.435   5.010   5.540
 1617WAT     H2 5094   0.472   4.902   5.423
 1618WAT      O 5095   4.830   5.683   2.512
 1618WAT     H1 5096   4.828   5.722   2.604
 1618WAT     H2 5097   4.923   5.655   2.490
 1619WAT      O 5098   9.704   5.035   8.854
 1619WAT     H1 5099   9.711   5.134   8.842
 1619WAT     H2 5100   9.794   4.997   8.873
 1620WAT      O 5101   7.527   1.554   9.855
 1620WAT     H1 5102   7.429   1.566   9.873
 1620WAT     H2 5103   7.543   1.463   9.817
 1621WAT      O 5104   1.954   1.872   3.091
 1621WAT     H1 5105   1.997   1.911   3.010
 1621WAT     H2 5106   1.899   1.941   3.137
 1622WAT      O 5107   4.982   4.961   8.962
 1622WAT     H1 5108   4.993   4.962   9.062
 1622WAT     H2 5109   5.031   4.883   8.923
 1623WAT      O 5110   0.864   6.934   9.127
 1623WAT     H1 5111   0.960   6.913   9.148
 1623WAT     H2 5112   0.850   7.033   9.133
 1624WAT      O 5113   8.613   0.008   6.906
 1624WAT     H1 5114   8.648   0.057   6.827
 1624WAT     H2 5115   8.684   0.001   6.976
 1625WAT      O 5116   0.777   7.449   7.934
 1625WAT     H1 5117   0.863   7.417   7.973
 1625WAT     H2 5118   0.700   7.410   7.985
 1626WAT      O 5119   2.110   7.157   8.323
 1626WAT     H1 5120   2.201   7.150   8.283
 1626WAT     H2 5121   2.044   7.181   8.251
 1627WAT      O 5122   6.459   2.788   1.819
 1627WAT     H1 5123   6.369   2.751   1.843
 1627WAT     H2 5124   6.487   2.754   1.729
 1628WAT      O 5125   7.452   1.217   4.860
 1628WAT     H1 5126   7.436   1.124   4.891
 1628WAT     H2 5127   7.397   1.281   4.915
 1629WAT      O 5128   7.220   8.795   6.799
 1629WAT     H1 5129   7.164   8.813   6.880
 1629WAT     H2 5130   7.312   8.831   6.814
 1630WAT      O 5131   5.551   1.220   1.622
 1630WAT     H1 5132   5.475   1.160   1.646
 1630WAT     H2 5133   5.518   1.314   1.614
 1631WAT      O 5134   9.719   1.630   6.862
 1631WAT     H1 5135   9.738   1.555   6.925
 1631WAT     H2 5136   9.783   1.625   6.785
 1632WAT      O 5137   3.938   1.696   5.492
 1632WAT     H1 5138   3.975   1.680   5.400
 1632WAT     H2 5139   3.845   1.659   5.497
 1633WAT      O 5140   1.977   8.021   9.216
 1633WAT     H1 5141   2.053   8.085   9.211
 1633WAT     H2 5142   1.946   8.013   9.311
 1634WAT      O 5143   1.798   4.648   1.215
 1634WAT     H1 5144   1.743   4.608   1.142
 1634WAT     H2 5145   1.894   4.630   1.197
 1635WAT      O 5146   4.077   5.699   7.250
 1635WAT     H1 5147   4.079   5.623   7.187
 1635WAT     H2 5148   4.009   5.682   7.322
 1636WAT      O 5149   4.629   2.949   3.853
 1636WAT     H1 5150   4.545   2.894   3.861
 1636WAT     H2 5151   4.634   3.013   3.930
 1637WAT      O 5152   8.832   9.465   6.120
 1637WAT     H1 5153   8.896   9.390   6.103
 1637WAT     H2 5154   8.756   9.460   6.055
 1638WAT      O 5155   0.349   0.790   1.503
 1638WAT     H1 5156   0.385   0.698   1.518
 1638WAT     H2 5157   0.261   0.785   1.458
 1639WAT      O 5158   5.695   1.426   2.252
 1639WAT     H1 5159   5.723   1.388   2.164
 1639WAT     H2 5160   5.624   1.369   2.292
 1640WAT      O 5161   0.719   5.397   0.721
 1640WAT     H1 5162   0.637   5.348   0.749
 1640WAT     H2 5163   0.692   5.476   0.666
 1641WAT      O 5164   5.090   8.234   6.578
 1641WAT     H1 5165   5.175   8.240   6.525
 1641WAT     H2 5166   5.083   8.313   6.639
 1642WAT      O 5167   6.547   1.867   0.617
 1642WAT     H1 5168   6.471   1.871   0.552
 1642WAT     H2 5169   6.633   1.883   0.568
 1643WAT      O 5170   1.785   4.204   7.299
 1643WAT     H1 5171   1.856   4.168   7.360
 1643WAT     H2 5172   1.698   4.159   7.318
 1644WAT      O 5173   5.074   7.767   6.053
 1644WAT     H1 5174   5.026   7.782   5.967
 1644WAT     H2 5175   5.167   7.802   6.046
 1645WAT      O 5176   8.445   5.276   4.643
 1645WAT     H1 5177   8.519   5.300   4.580
 1645WAT     H2 5178   8.480   5.279   4.737
 1646WAT      O 5179   4.768   9.086   5.232
 1646WAT     H1 5180   4.867   9.083   5.218
 1646WAT     H2 5181   4.726   9.009   5.185
 1647WAT      O 5182   5.458   6.707   8.102
 1647WAT     H1 5183   5.537   6.667   8.148
 1647WAT     H2 5184   5.389   6.732   8.169
 1648WAT      O 5185   1.988   6.454   9.440
 1648WAT     H1 5186   1.958   6.451   9.345
 1648WAT     H2 5187   1.996   6.361   9.476
 1649WAT      O 5188   5.615   3.727   3.814
 1649WAT     H1 5189   5.670   3.810   3.802
 1649WAT     H2 5190   5.605   3.681   3.726
 1650WAT      O 5191   1.011   7.915   8.187
 1650WAT     H1 5192   1.032   8.000   8.138
 1650WAT     H2 5193   0.936   7.868   8.140
 1651WAT      O 5194   7.615   6.308   4.543
 1651WAT     H1 5195   7.618   6.216   4.502
 1651WAT     H2 5196   7.603   6.300   4.642
 1652WAT      O 5197   4.126   8.709   6.170
 1652WAT     H1 5198   4.106   8.700   6.267
 1652WAT     H2 5199   4.119   8.805   6.143
 1653WAT      O 5200   7.278   4.083   8.747
 1653WAT     H1 5201   7.254   4.165   8.694
 1653WAT     H2 5202   7.275   4.003   8.688
 1654WAT      O 5203   1.957   8.049   4.756
 1654WAT     H1 5204   2.003   8.070   4.842
 1654WAT     H2 5205   1.976   7.954   4.730
 1655WAT      O 5206   5.540   2.250   7.687
 1655WAT     H1 5207   5.524   2.163   7.734
 1655WAT     H2 5208   5.620   2.295   7.727
 1656WAT      O 5209   8.265   7.864   1.532
 1656WAT     H1 5210   8.347   7.918   1.510
 1656WAT     H2 5211   8.243   7.874   1.629
 1657WAT      O 5212   9.697   1.009   6.315
 1657WAT     H1 5213   9.720   1.038   6.408
 1657WAT     H2 5214   9.603   1.034   6.293
 1658WAT      O 5215   1.535   8.783   0.232
 1658WAT     H1 5216   1.606   8.846   0.201
 1658WAT     H2 5217   1.550   8.692   0.194
 1659WAT      O 5218   9.289   6.848   4.555
 1659WAT     H1 5219   9.248   6.879   4.641
 1659WAT     H2 5220   9.242   6.892   4.479
 1660WAT      O 5221   6.496   8.594   3.566
 1660WAT     H1 5222   6.444   8.622   3.485
 1660WAT     H2 5223   6.441   8.608   3.648
 1661WAT      O 5224   2.945   3.214   4.596
 1661WAT     H1 5225   2.993   3.207   4.683
 1661WAT     H2 5226   2.926   3.310   4.576
 1662WAT      O 5227   7.946   6.817   5.937
 1662WAT     H1 5228   7.949   6.818   5.837
 1662WAT     H2 5229   7.883   6.746   5.967
 1663WAT      O 5230   7.447   4.572   4.377
 1663WAT     H1 5231   7.393   4.612   4.451
 1663WAT     H2 5232   7.386   4.527   4.311
 1664WAT      O 5233   6.629   4.588   6.661
 1664WAT     H1 5234   6.639   4.637   6.747
 1664WAT     H2 5235   6.684   4.633   6.591
 1665WAT      O 5236   0.860   6.793   6.336
 1665WAT     H1 5237   0.862   6.716   6.400
 1665WAT     H2 5238   0.857   6.879   6.388
 1666WAT      O 5239   2.439   4.065   2.255
 1666WAT     H1 5240   2.359   4.082   2.311
 1666WAT     H2 5241   2.521   4.067   2.312
 1667WAT      O 5242   2.159   0.980   1.598
 1667WAT     H1 5243   2.187   0.884   1.592
 1667WAT     H2 5244   2.194   1.020   1.683
 1668WAT      O 5245   3.176   4.408   0.890
 1668WAT     H1 5246   3.088   4.442   0.855
 1668WAT     H2 5247   3.236   4.386   0.814
 1669WAT      O 5248   6.652   7.230   7.412
 1669WAT     H1 5249   6.656   7.135   7.444
 1669WAT     H2 5250   6.563   7.269   7.433
 1670WAT      O 5251   8.849   6.494   4.205
 1670WAT     H1 5252   8.863   6.395   4.212
 1670WAT     H2 5253   8.788   6.524   4.279
 1671WAT      O 5254   7.913   2.324   4.749
 1671WAT     H1 5255   7.832   2.292   4.700
 1671WAT     H2 5256   7.890   2.406   4.802
 1672WAT      O 5257   9.882   4.714   2.648
 1672WAT     H1 5258   9.923   4.805   2.655
 1672WAT     H2 5259   9.874   4.673   2.739
 1673WAT      O 5260   5.439   4.353   6.816
 1673WAT     H1 5261   5.363   4.413   6.839
 1673WAT     H2 5262   5.449   4.283   6.887
 1674WAT      O 5263   1.884   6.635   2.103
 1674WAT     H1 5264   1.900   6.539   2.130
 1674WAT     H2 5265   1.855   6.638   2.008
 1675WAT      O 5266   9.065   5.386   2.788
 1675WAT     H1 5267   9.118   5.330   2.851
 1675WAT     H2 5268   9.011   5.328   2.727
 1676WAT      O 5269   7.333   1.318   4.223
 1676WAT     H1 5270   7.303   1.324   4.128
 1676WAT     H2 5271   7.342   1.222   4.249
 1677WAT      O 5272   0.849   6.763   7.246
 1677WAT     H1 5273   0.851   6.800   7.153
 1677WAT     H2 5274   0.767   6.796   7.293
 1678WAT      O 5275   1.060   5.399   6.518
 1678WAT     H1 5276   1.125   5.453   6.464
 1678WAT     H2 5277   0.971   5.446   6.520
 1679WAT      O 5278   9.688   2.559   9.381
 1679WAT     H1 5279   9.632   2.548   9.299
 1679WAT     H2 5280   9.629   2.573   9.461
 1680WAT      O 5281   4.689   0.029   9.629
 1680WAT     H1 5282   4.656   0.089   9.556
 1680WAT     H2 5283   4.757   0.078   9.684
 1681WAT      O 5284   2.816   2.421   2.391
 1681WAT     H1 5285   2.754   2.489   2.351
 1681WAT     H2 5286   2.793   2.409   2.488
 1682WAT      O 5287   4.703   8.630   6.545
 1682WAT     H1 5288   4.644   8.585   6.478
 1682WAT     H2 5289   4.766   8.691   6.498
 1683WAT      O 5290   3.922   6.591   9.091
 1683WAT     H1 5291   3.882   6.595   8.999
 1683WAT     H2 5292   3.855   6.623   9.158
 1684WAT      O 5293   4.532   1.975   8.966
 1684WAT     H1 5294   4.463   1.955   9.036
 1684WAT     H2 5295   4.486   2.010   8.884
 1685WAT      O 5296   0.951   2.563   9.797
 1685WAT     H1 5297   0.878   2.529   9.737
 1685WAT     H2 5298   1.016   2.489   9.816
 1686WAT      O 5299   4.397   8.640   7.645
 1686WAT     H1 5300   4.319   8.618   7.585
 1686WAT     H2 5301   4.388   8.734   7.677
 1687WAT      O 5302   6.799   0.747   1.489
 1687WAT     H1 5303   6.733   0.822   1.492
 1687WAT     H2 5304   6.783   0.692   1.406
 1688WAT      O 5305   4.308   0.958   0.807
 1688WAT     H1 5306   4.305   1.056   0.827
 1688WAT     H2 5307   4.216   0.920   0.809
 1689WAT      O 5308   8.692   4.091   7.976
 1689WAT     H1 5309   8.614   4.153   7.971
 1689WAT     H2 5310   8.670   4.006   7.927
 1690WAT      O 5311   7.960   4.692   9.185
 1690WAT     H1 5312   7.940   4.650   9.096
 1690WAT     H2 5313   8.059   4.705   9.194
 1691WAT      O 5314   4.227   5.128   6.977
 1691WAT     H1 5315   4.218   5.108   7.074
 1691WAT     H2 5316   4.312   5.180   6.961
 1692WAT      O 5317   6.131   3.761   8.288
 1692WAT     H1 5318   6.190   3.796   8.360
 1692WAT     H2 5319   6.077   3.836   8.249
 1693WAT      O 5320   5.787   3.700   2.148
 1693WAT     H1 5321   5.692   3.687   2.121
 1693WAT     H2 5322   5.813   3.796   2.133
 1694WAT      O 5323   7.402   4.560   8.822
 1694WAT     H1 5324   7.408   4.561   8.922
 1694WAT     H2 5325   7.487   4.523   8.785
 1695WAT      O 5326   4.723   2.583   5.202
 1695WAT     H1 5327   4.639   2.531   5.187
 1695WAT     H2 5328   4.700   2.678   5.227
 1696WAT      O 5329   7.751   4.730   2.559
 1696WAT     H1 5330   7.675   4.666   2.552
 1696WAT     H2 5331   7.829   4.695   2.507
 1697WAT      O 5332   6.800   3.644   0.894
 1697WAT     H1 5333   6.730   3.628   0.964
 1697WAT     H2 5334   6.827   3.557   0.853
 1698WAT      O 5335   0.422   2.812   7.161
 1698WAT     H1 5336   0.413   2.820   7.261
 1698WAT     H2 5337   0.497   2.749   7.140
 1699WAT      O 5338   2.459   5.397   7.576
 1699WAT     H1 5339   2.457   5.487   7.619
 1699WAT     H2 5340   2.445   5.326   7.645
 1700WAT      O 5341   5.017   1.865   2.751
 1700WAT     H1 5342   4.938   1.862   2.690
 1700WAT     H2 5343   5.028   1.775   2.794
 1701WAT      O 5344   8.974   7.548   6.526
 1701WAT     H1 5345   9.028   7.632   6.525
 1701WAT     H2 5346   8.991   7.496   6.443
 1702WAT      O 5347   2.463   8.456   7.902
 1702WAT     H1 5348   2.391   8.440   7.970
 1702WAT     H2 5349   2.550   8.472   7.950
 1703WAT      O 5350   0.863   1.186   4.385
 1703WAT     H1 5351   0.900   1.231   4.467
 1703WAT     H2 5352   0.888   1.089   4.386
 1704WAT      O 5353   7.872   0.749   3.761
 1704WAT     H1 5354   7.884   0.653   3.787
 1704WAT     H2 5355   7.894   0.761   3.665
 1705WAT      O 5356   4.720   1.458   5.963
 1705WAT     H1 5357   4.713   1.554   5.989
 1705WAT     H2 5358   4.738   1.402   6.044
 1706WAT      O 5359   8.584   2.223   2.351
 1706WAT     H1 5360   8.579   2.309   2.299
 1706WAT     H2 5361   8.662   2.170   2.319
 1707WAT      O 5362   3.853   2.155   1.049
 1707WAT     H1 5363   3.908   2.225   1.004
 1707WAT     H2 5364   3.790   2.114   0.983
 1708WAT      O 5365   9.318   2.654   4.821
 1708WAT     H1 5366   9.382   2.626   4.748
 1708WAT     H2 5367   9.314   2.583   4.891
 1709WAT      O 5368   1.274   5.098   9.898
 1709WAT     H1 5369   1.323   5.053   9.823
 1709WAT     H2 5370   1.245   5.189   9.869
 1710WAT      O 5371   7.209   8.969   5.264
 1710WAT     H1 5372   7.223   8.970   5.165
 1710WAT     H2 5373   7.297   8.958   5.310
 1711WAT      O 5374   1.097   0.313   2.257
 1711WAT     H1 5375   1.168   0.365   2.208
 1711WAT     H2 5376   1.034   0.377   2.301
 1712WAT      O 5377   6.929   2.013   5.840
 1712WAT     H1 5378   6.871   2.081   5.884
 1712WAT     H2 5379   6.872   1.949   5.788
 1713WAT      O 5380   4.009   4.893   0.686
 1713WAT     H1 5381   4.003   4.983   0.731
 1713WAT     H2 5382   3.937   4.834   0.721
 1714WAT      O 5383   2.950   6.291   6.597
 1714WAT     H1 5384   2.903   6.222   6.652
 1714WAT     H2 5385   2.948   6.379   6.645
 1715WAT      O 5386   8.120   1.002   5.267
 1715WAT     H1 5387   8.201   0.995   5.208
 1715WAT     H2 5388   8.073   1.088   5.249
 1716WAT      O 5389   3.540   8.293   7.023
 1716WAT     H1 5390   3.547   8.248   6.934
 1716WAT     H2 5391   3.618   8.265   7.080
 1717WAT      O 5392   3.288   0.139   5.606
 1717WAT     H1 5393   3.333   0.205   5.546
 1717WAT     H2 5394   3.348   0.059   5.619
 1718WAT      O 5395   3.073   8.920   0.740
 1718WAT     H1 5396   3.010   8.856   0.697
 1718WAT     H2 5397   3.059   8.919   0.839
 1719WAT      O 5398   8.940   7.110   8.835
 1719WAT     H1 5399   8.840   7.113   8.834
 1719WAT     H2 5400   8.976   7.170   8.764
 1720WAT      O 5401   1.296   1.256   4.187
 1720WAT     H1 5402   1.371   1.240   4.123
 1720WAT     H2 5403   1.225   1.311   4.142
 1721WAT      O 5404   6.841   4.420   3.742
 1721WAT     H1 5405   6.827   4.428   3.643
 1721WAT     H2 5406   6.939   4.421   3.761
 1722WAT      O 5407   0.544   0.357   9.763
 1722WAT     H1 5408   0.610   0.347   9.837
 1722WAT     H2 5409   0.520   0.266   9.728
 1723WAT      O 5410   6.725   8.583   5.753
 1723WAT     H1 5411   6.748   8.486   5.761
 1723WAT     H2 5412   6.808   8.638   5.762
 1724WAT      O 5413   4.456   9.803   1.863
 1724WAT     H1 5414   4.359   9.809   1.887
 1724WAT     H2 5415   4.495   9.720   1.902
 1725WAT      O 5416   2.893   1.275   0.904
 1725WAT     H1 5417   2.926   1.269   0.998
 1725WAT     H2 5418   2.968   1.256   0.841
 1726WAT      O 5419   8.538   9.754   0.825
 1726WAT     H1 5420   8.450   9.717   0.794
 1726WAT     H2 5421   8.571   9.700   0.902
 1727WAT      O 5422   4.656   6.287   5.696
 1727WAT     H1 5423   4.625   6.260   5.788
 1727WAT     H2 5424   4.690   6.206   5.648
 1728WAT      O 5425   3.998   2.784   0.096
 1728WAT     H1 5426   4.090   2.790   0.056
 1728WAT     H2 5427   3.991   2.700   0.150
 1729WAT      O 5428   1.911   2.841   5.599
 1729WAT     H1 5429   1.867   2.801   5.519
 1729WAT     H2 5430   2.009   2.849   5.583
 1730WAT      O 5431   7.137   1.172   1.227
 1730WAT     H1 5432   7.177   1.248   1.278
 1730WAT     H2 5433   7.138   1.089   1.283
 1731WAT      O 5434   3.318   7.548   0.976
 1731WAT     H1 5435   3.389   7.494   0.930
 1731WAT     H2 5436   3.263   7.596   0.907
 1732WAT      O 5437   9.438   3.325   1.002
 1732WAT     H1 5438   9.446   3.308   1.100
 1732WAT     H2 5439   9.363   3.270   0.965
 1733WAT      O 5440   8.588   7.526   0.423
 1733WAT     H1 5441   8.655   7.474   0.476
 1733WAT     H2 5442   8.576   7.483   0.333
 1734WAT      O 5443   0.974   8.387   4.567
 1734WAT     H1 5444   0.946   8.307   4.620
 1734WAT     H2 5445   0.930   8.469   4.603
 1735WAT      O 5446   1.116   6.178   9.154
 1735WAT     H1 5447   1.073   6.176   9.244
 1735WAT     H2 5448   1.166   6.092   9.140
 1736WAT      O 5449   3.818   5.733   8.709
 1736WAT     H1 5450   3.827   5.832   8.704
 1736WAT     H2 5451   3.865   5.691   8.631
 1737WAT      O 5452   8.104   1.319   0.795
 1737WAT     H1 5453   8.032   1.353   0.855
 1737WAT     H2 5454   8.182   1.288   0.850
 1738WAT      O 5455   6.434   5.453   7.560
 1738WAT     H1 5456   6.408   5.466   7.655
 1738WAT     H2 5457   6.353   5.458   7.502
 1739WAT      O 5458   5.861   3.724   7.796
 1739WAT     H1 5459   5.892   3.719   7.891
 1739WAT     H2 5460   5.940   3.721   7.735
 1740WAT      O 5461   5.873   1.778   5.039
 1740WAT     H1 5462   5.819   1.708   5.087
 1740WAT     H2 5463   5.859   1.769   4.941
 1741WAT      O 5464   8.906   6.994   8.176
 1741WAT     H1 5465   8.862   7.035   8.257
 1741WAT     H2 5466   8.938   6.902   8.199
 1742WAT      O 5467   1.144   5.996   6.317
 1742WAT     H1 5468   1.086   5.958   6.389
 1742WAT     H2 5469   1.216   5.930   6.293
 1743WAT      O 5470   7.037   0.254   4.758
 1743WAT     H1 5471   7.001   0.346   4.773
 1743WAT     H2 5472   7.043   0.206   4.845
 1744WAT      O 5473   2.682   9.229   3.371
 1744WAT     H1 5474   2.628   9.159   3.417
 1744WAT     H2 5475   2.773   9.193   3.350
 1745WAT      O 5476   5.514   8.056   9.346
 1745WAT     H1 5477   5.542   7.960   9.347
 1745WAT     H2 5478   5.481   8.082   9.436
 1746WAT      O 5479   9.282   1.385   3.111
 1746WAT     H1 5480   9.330   1.417   3.193
 1746WAT     H2 5481   9.198   1.339   3.138
 1747WAT      O 5482   2.516   1.290   3.588
 1747WAT     H1 5483   2.478   1.245   3.508
 1747WAT     H2 5484   2.493   1.238   3.670
 1748WAT      O 5485   1.915   4.053   3.410
 1748WAT     H1 5486   1.981   4.070   3.482
 1748WAT     H2 5487   1.878   4.140   3.377
 1749WAT      O 5488   7.401   5.064   9.188
 1749WAT     H1 5489   7.383   5.049   9.286
 1749WAT     H2 5490   7.348   4.998   9.135
 1750WAT      O 5491   9.667   3.512   1.121
 1750WAT     H1 5492   9.669   3.417   1.090
 1750WAT     H2 5493   9.623   3.516   1.211
 1751WAT      O 5494   6.980   4.193   1.928
 1751WAT     H1 5495   6.900   4.247   1.951
 1751WAT     H2 5496   6.980   4.109   1.983
 1752WAT      O 5497   5.495   1.966   9.718
 1752WAT     H1 5498   5.527   2.022   9.641
 1752WAT     H2 5499   5.573   1.928   9.766
 1753WAT      O 5500   3.827   2.403   9.291
 1753WAT     H1 5501   3.910   2.458   9.305
 1753WAT     H2 5502   3.840   2.314   9.333
 1754WAT      O 5503   5.816   8.827   2.674
 1754WAT     H1 5504   5.846   8.790   2.762
 1754WAT     H2 5505   5.887   8.887   2.637
 1755WAT      O 5506   5.320   9.076   7.902
 1755WAT     H1 5507   5.365   9.163   7.922
 1755WAT     H2 5508   5.382   9.001   7.926
 1756WAT      O 5509   8.304   1.235   0.961
 1756WAT     H1 5510   8.324   1.143   0.995
 1756WAT     H2 5511   8.373   1.260   0.892
 1757WAT      O 5512   3.871   9.068   8.997
 1757WAT     H1 5513   3.790   9.024   8.958
 1757WAT     H2 5514   3.843   9.152   9.044
 1758WAT      O 5515   8.867   5.075   7.830
 1758WAT     H1 5516   8.816   5.134   7.892
 1758WAT     H2 5517   8.806   5.041   7.759
 1759WAT      O 5518   1.194   5.584   0.202
 1759WAT     H1 5519   1.290   5.581   0.173
 1759WAT     H2 5520   1.179   5.665   0.259
 1760WAT      O 5521   5.114   9.216   1.028
 1760WAT     H1 5522   5.030   9.173   0.996
 1760WAT     H2 5523   5.108   9.315   1.015
 1761WAT      O 5524   7.462   9.754   3.216
 1761WAT     H1 5525   7.400   9.746   3.294
 1761WAT     H2 5526   7.452   9.674   3.157
 1762WAT      O 5527   7.228   0.063   6.578
 1762WAT     H1 5528   7.284   0.074   6.660
 1762WAT     H2 5529   7.147   0.121   6.585
 1763WAT      O 5530   7.845   0.314   0.381
 1763WAT     H1 5531   7.829   0.287   0.476
 1763WAT     H2 5532   7.840   0.414   0.374
 1764WAT      O 5533   6.481   1.087   7.823
 1764WAT     H1 5534   6.399   1.031   7.813
 1764WAT     H2 5535   6.536   1.052   7.899
 1765WAT      O 5536   2.567   2.643   9.037
 1765WAT     H1 5537   2.542   2.581   9.112
 1765WAT     H2 5538   2.485   2.678   8.993
 1766WAT      O 5539   2.099   0.417   3.679
 1766WAT     H1 5540   2.177   0.444   3.737
 1766WAT     H2 5541   2.037   0.360   3.732
 1767WAT      O 5542   9.280   3.051   6.706
 1767WAT     H1 5543   9.219   3.059   6.785
 1767WAT     H2 5544   9.366   3.097   6.726
 1768WAT      O 5545   6.314   3.223   8.659
 1768WAT     H1 5546   6.317   3.141   8.715
 1768WAT     H2 5547   6.331   3.199   8.563
 1769WAT      O 5548   9.251   4.009   8.968
 1769WAT     H1 5549   9.188   4.057   9.029
 1769WAT     H2 5550   9.344   4.041   8.984
 1770WAT      O 5551   8.819   7.196   2.562
 1770WAT     H1 5552   8.853   7.104   2.542
 1770WAT     H2 5553   8.887   7.247   2.613
 1771WAT      O 5554   5.611   6.067   2.144
 1771WAT     H1 5555   5.513   6.052   2.148
 1771WAT     H2 5556   5.657   5.982   2.117
 1772WAT      O 5557   6.164   4.670   1.801
 1772WAT     H1 5558   6.143   4.696   1.707
 1772WAT     H2 5559   6.114   4.587   1.824
 1773WAT      O 5560   1.272   6.246   9.495
 1773WAT     H1 5561   1.280   6.309   9.572
 1773WAT     H2 5562   1.334   6.168   9.510
 1774WAT      O 5563   5.870   5.385   2.035
 1774WAT     H1 5564   5.962   5.419   2.057
 1774WAT     H2 5565   5.871   5.344   1.944
 1775WAT      O 5566   2.071   5.278   4.435
 1775WAT     H1 5567   2.139   5.306   4.367
 1775WAT     H2 5568   2.015   5.205   4.397
 1776WAT      O 5569   4.305   9.795   5.277
 1776WAT     H1 5570   4.207   9.774   5.265
 1776WAT     H2 5571   4.338   9.846   5.198
 1777WAT      O 5572   3.333   5.415   7.483
 1777WAT     H1 5573   3.390   5.339   7.452
 1777WAT     H2 5574   3.375   5.501   7.457
 1778WAT      O 5575   1.151   3.859   3.417
 1778WAT     H1 5576   1.174   3.765   3.394
 1778WAT     H2 5577   1.081   3.893   3.354
 1779WAT      O 5578   1.698   8.445   2.865
 1779WAT     H1 5579   1.777   8.447   2.926
 1779WAT     H2 5580   1.728   8.427   2.771
 1780WAT      O 5581   5.686   8.640   2.096
 1780WAT     H1 5582   5.745   8.718   2.118
 1780WAT     H2 5583   5.634   8.614   2.177
 1781WAT      O 5584   1.091   5.863   7.540
 1781WAT     H1 5585   1.131   5.955   7.531
 1781WAT     H2 5586   1.129   5.818   7.620
 1782WAT      O 5587   1.043   1.200   6.815
 1782WAT     H1 5588   1.051   1.106   6.782
 1782WAT     H2 5589   0.954   1.238   6.787
 1783WAT      O 5590   3.281   2.666   1.979
 1783WAT     H1 5591   3.303   2.762   1.998
 1783WAT     H2 5592   3.364   2.618   1.950
 1784WAT      O 5593   8.178   8.986   0.585
 1784WAT     H1 5594   8.226   8.925   0.523
 1784WAT     H2 5595   8.242   9.024   0.652
 1785WAT      O 5596   1.326   4.885   4.989
 1785WAT     H1 5597   1.326   4.814   5.059
 1785WAT     H2 5598   1.271   4.963   5.020
 1786WAT      O 5599   8.560   7.261   7.862
 1786WAT     H1 5600   8.639   7.256   7.922
 1786WAT     H2 5601   8.522   7.353   7.862
 1787WAT      O 5602   7.783   3.373   6.474
 1787WAT     H1 5603   7.772   3.280   6.439
 1787WAT     H2 5604   7.712   3.391   6.543
 1788WAT      O 5605   2.926   2.604   4.903
 1788WAT     H1 5606   2.949   2.535   4.834
 1788WAT     H2 5607   2.836   2.642   4.883
 1789WAT      O 5608   9.437   0.909   8.364
 1789WAT     H1 5609   9.386   0.983   8.320
 1789WAT     H2 5610   9.480   0.852   8.293
 1790WAT      O 5611   8.147   9.032   4.286
 1790WAT     H1 5612   8.216   9.104   4.282
 1790WAT     H2 5613   8.186   8.946   4.254
 1791WAT      O 5614   9.893   9.296   9.496
 1791WAT     H1 5615   9.839   9.350   9.431
 1791WAT     H2 5616   9.844   9.212   9.519
 1792WAT      O 5617   2.685   0.730   6.324
 1792WAT     H1 5618   2.665   0.785   6.405
 1792WAT     H2 5619   2.726   0.789   6.254
 1793WAT      O 5620   7.040   0.433   3.615
 1793WAT     H1 5621   7.047   0.359   3.547
 1793WAT     H2 5622   7.104   0.415   3.690
 1794WAT      O 5623   2.444   2.715   7.546
 1794WAT     H1 5624   2.501   2.789   7.513
 1794WAT     H2 5625   2.349   2.730   7.518
 1795WAT      O 5626   0.635   5.644   8.247
 1795WAT     H1 5627   0.667   5.554   8.276
 1795WAT     H2 5628   0.589   5.636   8.158
 1796WAT      O 5629   9.127   6.639   3.675
 1796WAT     H1 5630   9.197   6.707   3.697
 1796WAT     H2 5631   9.129   6.566   3.744
 1797WAT      O 5632   7.386   5.848   7.925
 1797WAT     H1 5633   7.304   5.821   7.976
 1797WAT     H2 5634   7.454   5.775   7.932
 1798WAT      O 5635   1.021   5.504   5.925
 1798WAT     H1 5636   1.086   5.435   5.957
 1798WAT     H2 5637   1.071   5.588   5.904
 1799WAT      O 5638   8.497   0.432   3.794
 1799WAT     H1 5639   8.410   0.479   3.805
 1799WAT     H2 5640   8.522   0.428   3.697
 1800WAT      O 5641   9.245   9.015   9.031
 1800WAT     H1 5642   9.150   9.045   9.024
 1800WAT     H2 5643   9.304   9.081   8.986
 1801WAT      O 5644   2.950   0.874   6.119
 1801WAT     H1 5645   2.987   0.899   6.030
 1801WAT     H2 5646   3.025   0.856   6.183
 1802WAT      O 5647   6.183   8.427   2.955
 1802WAT     H1 5648   6.172   8.526   2.966
 1802WAT     H2 5649   6.276   8.400   2.981
 1803WAT      O 5650   2.083   3.699   6.474
 1803WAT     H1 5651   2.029   3.780   6.451
 1803WAT     H2 5652   2.027   3.617   6.460
 1804WAT      O 5653   8.089   2.752   0.815
 1804WAT     H1 5654   8.163   2.800   0.767
 1804WAT     H2 5655   8.122   2.721   0.904
 1805WAT      O 5656   0.829   4.223   6.299
 1805WAT     H1 5657   0.798   4.290   6.366
 1805WAT     H2 5658   0.915   4.182   6.329
 1806WAT      O 5659   4.822   1.056   6.309
 1806WAT     H1 5660   4.888   1.005   6.255
 1806WAT     H2 5661   4.864   1.087   6.395
 1807WAT      O 5662   3.294   8.267   1.893
 1807WAT     H1 5663   3.241   8.203   1.948
 1807WAT     H2 5664   3.342   8.217   1.821
 1808WAT      O 5665   1.806   8.852   5.865
 1808WAT     H1 5666   1.733   8.837   5.798
 1808WAT     H2 5667   1.794   8.791   5.942
 1809WAT      O 5668   0.179   6.722   0.240
 1809WAT     H1 5669   0.222   6.757   0.323
 1809WAT     H2 5670   0.207   6.778   0.162
 1810WAT      O 5671   0.973   1.286   8.585
 1810WAT     H1 5672   0.987   1.374   8.540
 1810WAT     H2 5673   0.878   1.280   8.617
 1811WAT      O 5674   7.770   5.868   3.892
 1811WAT     H1 5675   7.678   5.854   3.856
 1811WAT     H2 5676   7.790   5.966   3.896
 1812WAT      O 5677   6.452   8.776   5.639
 1812WAT     H1 5678   6.474   8.680   5.622
 1812WAT     H2 5679   6.463   8.796   5.736
 1813WAT      O 5680   5.064   1.108   3.235
 1813WAT     H1 5681   5.083   1.098   3.333
 1813WAT     H2 5682   4.971   1.142   3.223
 1814WAT      O 5683   8.313   3.694   6.401
 1814WAT     H1 5684   8.267   3.684   6.489
 1814WAT     H2 5685   8.294   3.614   6.344
 1815WAT      O 5686   8.367   6.145   7.147
 1815WAT     H1 5687   8.382   6.073   7.080
 1815WAT     H2 5688   8.424   6.129   7.227
 1816WAT      O 5689   5.126   1.309   2.271
 1816WAT     H1 5690   5.108   1.371   2.347
 1816WAT     H2 5691   5.150   1.219   2.306
 1817WAT      O 5692   0.412   2.731   8.573
 1817WAT     H1 5693   0.442   2.724   8.668
 1817WAT     H2 5694   0.422   2.642   8.529
 1818WAT      O 5695   5.673   0.457   4.065
 1818WAT     H1 5696   5.729   0.538   4.083
 1818WAT     H2 5697   5.644   0.457   3.970
 1819WAT      O 5698   2.656   8.382   8.271
 1819WAT     H1 5699   2.598   8.306   8.241
 1819WAT     H2 5700   2.649   8.391   8.371
 1820WAT      O 5701   5.688   6.470   1.212
 1820WAT     H1 5702   5.764   6.458   1.149
 1820WAT     H2 5703   5.719   6.455   1.306
 1821WAT      O 5704   8.123   7.359   6.758
 1821WAT     H1 5705   8.043   7.318   6.714
 1821WAT     H2 5706   8.109   7.360   6.857
 1822WAT      O 5707   1.423   2.663   5.228
 1822WAT     H1 5708   1.377   2.726   5.291
 1822WAT     H2 5709   1.477   2.597   5.280
 1823WAT      O 5710   4.576   6.216   3.868
 1823WAT     H1 5711   4.629   6.209   3.783
 1823WAT     H2 5712   4.547   6.125   3.897
 1824WAT      O 5713   0.204   2.999   5.954
 1824WAT     H1 5714   0.123   2.963   6.000
 1824WAT     H2 5715   0.216   2.952   5.866
 1825WAT      O 5716   3.052   8.280   0.625
 1825WAT     H1 5717   2.956   8.304   0.641
 1825WAT     H2 5718   3.106   8.364   0.615
 1826WAT      O 5719   7.235   0.261   0.501
 1826WAT     H1 5720   7.260   0.313   0.583
 1826WAT     H2 5721   7.292   0.291   0.424
 1827WAT      O 5722   6.544   7.243   7.799
 1827WAT     H1 5723   6.616   7.191   7.845
 1827WAT     H2 5724   6.491   7.181   7.739
 1828WAT      O 5725   6.285   4.988   1.319
 1828WAT     H1 5726   6.243   5.072   1.284
 1828WAT     H2 5727   6.249   4.968   1.410
 1829WAT      O 5728   0.717   9.816   9.286
 1829WAT     H1 5729   0.802   9.822   9.234
 1829WAT     H2 5730   0.665   9.735   9.258
 1830WAT      O 5731   3.705   9.723   1.495
 1830WAT     H1 5732   3.650   9.802   1.469
 1830WAT     H2 5733   3.784   9.716   1.434
 1831WAT      O 5734   9.646   6.660   0.105
 1831WAT     H1 5735   9.582   6.613   0.045
 1831WAT     H2 5736   9.736   6.616   0.099
 1832WAT      O 5737   1.563   7.743   9.147
 1832WAT     H1 5738   1.645   7.761   9.092
 1832WAT     H2 5739   1.482   7.743   9.088
 1833WAT      O 5740   3.578   8.444   4.701
 1833WAT     H1 5741   3.535   8.495   4.774
 1833WAT     H2 5742   3.520   8.445   4.620
 1834WAT      O 5743   0.869   9.617   0.922
 1834WAT     H1 5744   0.864   9.527   0.965
 1834WAT     H2 5745   0.920   9.679   0.981
 1835WAT      O 5746   5.260   6.247   1.438
 1835WAT     H1 5747   5.243   6.319   1.371
 1835WAT     H2 5748   5.177   6.231   1.491
 1836WAT      O 5749   7.735   3.356   8.293
 1836WAT     H1 5750   7.710   3.312   8.379
 1836WAT     H2 5751   7.701   3.302   8.216
 1837WAT      O 5752   9.161   3.383   6.365
 1837WAT     H1 5753   9.174   3.294   6.411
 1837WAT     H2 5754   9.199   3.455   6.423
 1838WAT      O 5755   1.932   8.212   1.281
 1838WAT     H1 5756   1.860   8.142   1.279
 1838WAT     H2 5757   1.943   8.250   1.189
 1839WAT      O 5758   1.841   4.499   8.448
 1839WAT     H1 5759   1.854   4.401   8.463
 1839WAT     H2 5760   1.768   4.532   8.508
 1840WAT      O 5761   8.339   7.462   2.671
 1840WAT     H1 5762   8.379   7.387   2.724
 1840WAT     H2 5763   8.357   7.447   2.574
 1841WAT      O 5764   2.418   9.179   0.339
 1841WAT     H1 5765   2.487   9.135   0.396
 1841WAT     H2 5766   2.330   9.132   0.351
 1842WAT      O 5767   3.842   3.711   6.685
 1842WAT     H1 5768   3.831   3.612   6.688
 1842WAT     H2 5769   3.916   3.735   6.623
 1843WAT      O 5770   0.963   1.527   8.431
 1843WAT     H1 5771   1.020   1.587   8.377
 1843WAT     H2 5772   0.894   1.581   8.480
 1844WAT      O 5773   9.643   6.225   6.602
 1844WAT     H1 5774   9.566   6.287   6.588
 1844WAT     H2 5775   9.609   6.131   6.612
 1845WAT      O 5776   5.033   6.669   5.000
 1845WAT     H1 5777   4.990   6.595   4.948
 1845WAT     H2 5778   5.117   6.698   4.954
 1846WAT      O 5779   8.082   2.034   7.498
 1846WAT     H1 5780   8.180   2.031   7.480
 1846WAT     H2 5781   8.042   1.944   7.481
 1847WAT      O 5782   8.844   1.332   0.964
 1847WAT     H1 5783   8.823   1.428   0.978
 1847WAT     H2 5784   8.915   1.322   0.895
 1848WAT      O 5785   3.662   8.487   5.125
 1848WAT     H1 5786   3.651   8.411   5.190
 1848WAT     H2 5787   3.590   8.482   5.056
 1849WAT      O 5788   9.743   8.320   8.469
 1849WAT     H1 5789   9.703   8.233   8.499
 1849WAT     H2 5790   9.747   8.382   8.547
 1850WAT      O 5791   0.848   2.177   6.849
 1850WAT     H1 5792   0.786   2.255   6.858
 1850WAT     H2 5793   0.925   2.188   6.912
 1851WAT      O 5794   7.607   7.556   1.710
 1851WAT     H1 5795   7.560   7.558   1.622
 1851WAT     H2 5796   7.563   7.489   1.770
 1852WAT      O 5797   1.860   8.157   5.176
 1852WAT     H1 5798   1.854   8.070   5.225
 1852WAT     H2 5799   1.809   8.151   5.090
 1853WAT      O 5800   5.342   8.209   7.595
 1853WAT     H1 5801   5.409   8.159   7.650
 1853WAT     H2 5802   5.295   8.145   7.534
 1854WAT      O 5803   7.784   1.972   3.118
 1854WAT     H1 5804   7.869   1.933   3.153
 1854WAT     H2 5805   7.718   1.899   3.102
 1855WAT      O 5806   7.617   3.483   4.889
 1855WAT     H1 5807   7.618   3.412   4.960
 1855WAT     H2 5808   7.523   3.514   4.874
 1856WAT      O 5809   6.786   7.414   7.265
 1856WAT     H1 5810   6.711   7.355   7.296
 1856WAT     H2 5811   6.782   7.501   7.314
 1857WAT      O 5812   5.146   4.583   7.959
 1857WAT     H1 5813   5.168   4.680   7.959
 1857WAT     H2 5814   5.183   4.540   8.041
 1858WAT      O 5815   3.034   9.754   0.830
 1858WAT     H1 5816   2.935   9.742   0.832
 1858WAT     H2 5817   3.074   9.693   0.761
 1859WAT      O 5818   4.291   7.792   6.951
 1859WAT     H1 5819   4.203   7.756   6.982
 1859WAT     H2 5820   4.352   7.803   7.029
 1860WAT      O 5821   5.736   4.479   9.097
 1860WAT     H1 5822   5.641   4.487   9.066
 1860WAT     H2 5823   5.795   4.466   9.018
 1861WAT      O 5824   7.105   0.634   8.404
 1861WAT     H1 5825   7.022   0.639   8.349
 1861WAT     H2 5826   7.102   0.705   8.475
 1862WAT      O 5827   8.154   7.462   5.082
 1862WAT     H1 5828   8.071   7.429   5.038
 1862WAT     H2 5829   8.154   7.437   5.179
 1863WAT      O 5830   2.530   7.850   3.426
 1863WAT     H1 5831   2.598   7.873   3.356
 1863WAT     H2 5832   2.574   7.798   3.499
 1864WAT      O 5833   1.889   2.783   7.926
 1864WAT     H1 5834   1.819   2.855   7.929
 1864WAT     H2 5835   1.963   2.812   7.866
 1865WAT      O 5836   0.732   5.262   3.587
 1865WAT     H1 5837   0.798   5.209   3.532
 1865WAT     H2 5838   0.757   5.256   3.683
 1866WAT      O 5839   4.010   7.840   2.877
 1866WAT     H1 5840   4.097   7.878   2.847
 1866WAT     H2 5841   4.014   7.740   2.872
 1867WAT      O 5842   4.933   6.556   5.291
 1867WAT     H1 5843   4.840   6.520   5.280
 1867WAT     H2 5844   4.968   6.584   5.201
 1868WAT      O 5845   3.162   8.737   3.968
 1868WAT     H1 5846   3.213   8.666   3.919
 1868WAT     H2 5847   3.107   8.694   4.040
 1869WAT      O 5848   4.160   6.239   7.817
 1869WAT     H1 5849   4.156   6.309   7.747
 1869WAT     H2 5850   4.174   6.149   7.774
 1870WAT      O 5851   3.245   0.973   1.003
 1870WAT     H1 5852   3.317   0.960   0.936
 1870WAT     H2 5853   3.282   0.961   1.095
 1871WAT      O 5854   8.717   5.081   4.192
 1871WAT     H1 5855   8.656   5.100   4.269
 1871WAT     H2 5856   8.812   5.084   4.223
 1872WAT      O 5857   9.216   4.750   6.694
 1872WAT     H1 5858   9.309   4.777   6.667
 1872WAT     H2 5859   9.151   4.816   6.657
 1873WAT      O 5860   0.483   2.993   1.727
 1873WAT     H1 5861   0.428   2.917   1.692
 1873WAT     H2 5862   0.443   3.027   1.812
 1874WAT      O 5863   3.728   3.152   6.179
 1874WAT     H1 5864   3.684   3.065   6.202
 1874WAT     H2 5865   3.681   3.227   6.226
 1875WAT      O 5866   7.821   8.465   3.974
 1875WAT     H1 5867   7.798   8.446   3.879
 1875WAT     H2 5868   7.797   8.386   4.030
 1876WAT      O 5869   1.926   4.385   8.834
 1876WAT     H1 5870   1.997   4.432   8.782
 1876WAT     H2 5871   1.861   4.452   8.869
 1877WAT      O 5872   2.654   2.704   1.943
 1877WAT     H1 5873   2.600   2.624   1.915
 1877WAT     H2 5874   2.612   2.744   2.025
 1878WAT      O 5875   6.820   3.218   6.102
 1878WAT     H1 5876   6.842   3.204   6.199
 1878WAT     H2 5877   6.741   3.280   6.095
 1879WAT      O 5878   8.987   5.022   4.262
 1879WAT     H1 5879   8.966   4.953   4.332
 1879WAT     H2 5880   9.063   5.078   4.293
 1880WAT      O 5881   2.194   7.235   0.072
 1880WAT     H1 5882   2.166   7.196  -0.016
 1880WAT     H2 5883   2.158   7.328   0.080
 1881WAT      O 5884   3.498   1.179   7.379
 1881WAT     H1 5885   3.548   1.265   7.367
 1881WAT     H2 5886   3.548   1.105   7.335
 1882WAT      O 5887   2.828   5.751   9.079
 1882WAT     H1 5888   2.859   5.823   9.141
 1882WAT     H2 5889   2.890   5.674   9.084
 1883WAT      O 5890   4.011   5.734   0.980
 1883WAT     H1 5891   3.981   5.820   1.022
 1883WAT     H2 5892   4.086   5.752   0.916
 1884WAT      O 5893   6.890   3.711   0.288
 1884WAT     H1 5894   6.925   3.670   0.204
 1884WAT     H2 5895   6.937   3.798   0.304
 1885WAT      O 5896   8.488   1.994   4.995
 1885WAT     H1 5897   8.500   1.987   4.896
 1885WAT     H2 5898   8.437   2.077   5.017
 1886WAT      O 5899   6.591   3.457   2.567
 1886WAT     H1 5900   6.534   3.456   2.648
 1886WAT     H2 5901   6.551   3.397   2.497
 1887WAT      O 5902   4.943   4.113   8.849
 1887WAT     H1 5903   4.986   4.023   8.865
 1887WAT     H2 5904   4.857   4.100   8.799
 1888WAT      O 5905   0.997   2.004   2.628
 1888WAT     H1 5906   1.019   2.021   2.532
 1888WAT     H2 5907   0.899   2.022   2.643
 1889WAT      O 5908   4.222   0.255   9.831
 1889WAT     H1 5909   4.272   0.327   9.784
 1889WAT     H2 5910   4.280   0.214   9.902
 1890WAT      O 5911   8.615   1.165   5.107
 1890WAT     H1 5912   8.714   1.168   5.118
 1890WAT     H2 5913   8.571   1.210   5.185
 1891WAT      O 5914   1.513   7.956   4.203
 1891WAT     H1 5915   1.516   7.905   4.289
 1891WAT     H2 5916   1.419   7.960   4.170
 1892WAT      O 5917   6.003   5.782   4.973
 1892WAT     H1 5918   6.049   5.743   5.052
 1892WAT     H2 5919   5.997   5.881   4.984
 1893WAT      O 5920   4.676   6.715   0.383
 1893WAT     H1 5921   4.671   6.786   0.453
 1893WAT     H2 5922   4.627   6.745   0.302
 1894WAT      O 5923   7.250   6.693   9.065
 1894WAT     H1 5924   7.236   6.676   9.163
 1894WAT     H2 5925   7.331   6.644   9.034
 1895WAT      O 5926   8.971   3.608   9.177
 1895WAT     H1 5927   8.953   3.697   9.219
 1895WAT     H2 5928   8.944   3.611   9.081
 1896WAT      O 5929   6.799   7.558   4.472
 1896WAT     H1 5930   6.743   7.604   4.541
 1896WAT     H2 5931   6.751   7.476   4.441
 1897WAT      O 5932   9.187   8.009   4.655
 1897WAT     H1 5933   9.201   8.028   4.558
 1897WAT     H2 5934   9.252   7.938   4.684
 1898WAT      O 5935   5.865   8.196   6.568
 1898WAT     H1 5936   5.893   8.278   6.617
 1898WAT     H2 5937   5.806   8.221   6.492
 1899WAT      O 5938   5.054   1.687   7.537
 1899WAT     H1 5939   5.068   1.631   7.619
 1899WAT     H2 5940   5.135   1.682   7.479
 1900WAT      O 5941   2.835   2.957   8.432
 1900WAT     H1 5942   2.766   2.986   8.497
 1900WAT     H2 5943   2.791   2.914   8.353
 1901WAT      O 5944   7.033   5.905   4.700
 1901WAT     H1 5945   7.070   5.930   4.611
 1901WAT     H2 5946   6.934   5.921   4.701
 1902WAT      O 5947   7.971   6.306   1.418
 1902WAT     H1 5948   7.885   6.329   1.463
 1902WAT     H2 5949   8.026   6.249   1.479
 1903WAT      O 5950   6.452   4.594   0.123
 1903WAT     H1 5951   6.437   4.535   0.043
 1903WAT     H2 5952   6.459   4.689   0.093
 1904WAT      O 5953   7.744   9.560   3.919
 1904WAT     H1 5954   7.698   9.504   3.988
 1904WAT     H2 5955   7.831   9.518   3.895
 1905WAT      O 5956   7.521   9.132   7.390
 1905WAT     H1 5957   7.573   9.154   7.472
 1905WAT     H2 5958   7.584   9.128   7.311
 1906WAT      O 5959   3.718   3.599   3.243
 1906WAT     H1 5960   3.703   3.591   3.341
 1906WAT     H2 5961   3.807   3.560   3.219
 1907WAT      O 5962   6.891   4.214   2.656
 1907WAT     H1 5963   6.872   4.249   2.564
 1907WAT     H2 5964   6.847   4.125   2.667
 1908WAT      O 5965   2.405   0.524   6.828
 1908WAT     H1 5966   2.469   0.549   6.756
 1908WAT     H2 5967   2.344   0.452   6.796
 1909WAT      O 5968   9.221   2.396   9.562
 1909WAT     H1 5969   9.137   2.352   9.532
 1909WAT     H2 5970   9.294   2.378   9.495
 1910WAT      O 5971   5.931   5.265   3.521
 1910WAT     H1 5972   6.007   5.303   3.468
 1910WAT     H2 5973   5.953   5.171   3.548
 1911WAT      O 5974   8.737   7.959   5.811
 1911WAT     H1 5975   8.733   7.861   5.794
 1911WAT     H2 5976   8.786   8.004   5.736
 1912WAT      O 5977   3.051   5.735   5.769
 1912WAT     H1 5978   3.077   5.679   5.847
 1912WAT     H2 5979   3.004   5.817   5.802
 1913WAT      O 5980   8.061   5.960   1.680
 1913WAT     H1 5981   8.006   5.974   1.762
 1913WAT     H2 5982   8.091   6.048   1.644
 1914WAT      O 5983   9.624   0.410   2.946
 1914WAT     H1 5984   9.548   0.352   2.916
 1914WAT     H2 5985   9.661   0.374   3.032
 1915WAT      O 5986   0.891   8.563   0.147
 1915WAT     H1 5987   0.945   8.487   0.110
 1915WAT     H2 5988   0.840   8.607   0.073
 1916WAT      O 5989   8.260   7.642   2.241
 1916WAT     H1 5990   8.197   7.601   2.308
 1916WAT     H2 5991   8.269   7.582   2.162
 1917WAT      O 5992   1.699   9.627   8.286
 1917WAT     H1 5993   1.689   9.718   8.326
 1917WAT     H2 5994   1.781   9.583   8.324
 1918WAT      O 5995   4.246   6.729   9.831
 1918WAT     H1 5996   4.324   6.760   9.885
 1918WAT     H2 5997   4.272   6.722   9.735
 1919WAT      O 5998   5.326   3.223   9.049
 1919WAT     H1 5999   5.319   3.163   9.129
 1919WAT     H2 6000   5.235   3.249   9.019
 1920WAT      O 6001   3.125   8.532   2.648
 1920WAT     H1 6002   3.156   8.627   2.661
 1920WAT     H2 6003   3.031   8.533   2.613
 1921WAT      O 6004   9.247   2.265   7.039
 1921WAT     H1 6005   9.303   2.216   6.972
 1921WAT     H2 6006   9.306   2.322   7.096
 1922WAT      O 6007   4.465   8.288   4.423
 1922WAT     H1 6008   4.394   8.357   4.412
 1922WAT     H2 6009   4.543   8.310   4.365
 1923WAT      O 6010   5.177   6.698   6.447
 1923WAT     H1 6011   5.081   6.685   6.421
 1923WAT     H2 6012   5.225   6.610   6.445
 1924WAT      O 6013   2.532   1.681   1.770
 1924WAT     H1 6014   2.568   1.764   1.728
 1924WAT     H2 6015   2.454   1.704   1.829
 1925WAT      O 6016   1.501   6.672   8.747
 1925WAT     H1 6017   1.568   6.604   8.718
 1925WAT     H2 6018   1.535   6.721   8.828
 1926WAT      O 6019   3.525   2.798   3.286
 1926WAT     H1 6020   3.467   2.836   3.214
 1926WAT     H2 6021   3.620   2.797   3.254
 1927WAT      O 6022   2.990   7.004   1.605
 1927WAT     H1 6023   2.908   6.947   1.604
 1927WAT     H2 6024   2.971   7.090   1.653
 1928WAT      O 6025   9.086   4.495   6.632
 1928WAT     H1 6026   9.112   4.585   6.667
 1928WAT     H2 6027   9.011   4.459   6.688
 1929WAT      O 6028   3.426   6.769   3.985
 1929WAT     H1 6029   3.454   6.847   3.930
 1929WAT     H2 6030   3.464   6.685   3.947
 1930WAT      O 6031   4.152   6.689   1.496
 1930WAT     H1 6032   4.147   6.590   1.504
 1930WAT     H2 6033   4.247   6.719   1.508
 1931WAT      O 6034   9.300   3.854   3.835
 1931WAT     H1 6035   9.245   3.912   3.775
 1931WAT     H2 6036   9.286   3.758   3.812
 1932WAT      O 6037   5.003   4.341   9.637
 1932WAT     H1 6038   4.926   4.398   9.664
 1932WAT     H2 6039   5.039   4.374   9.549
 1933WAT      O 6040   7.675   8.575   7.201
 1933WAT     H1 6041   7.639   8.642   7.136
 1933WAT     H2 6042   7.605   8.506   7.219
 1934WAT      O 6043   5.634   9.779   1.897
 1934WAT     H1 6044   5.643   9.695   1.951
 1934WAT     H2 6045   5.723   9.825   1.893
 1935WAT      O 6046   3.072   2.337   1.150
 1935WAT     H1 6047   3.093   2.295   1.238
 1935WAT     H2 6048   3.132   2.300   1.079
 1936WAT      O 6049   5.614   2.569   8.945
 1936WAT     H1 6050   5.553   2.555   9.023
 1936WAT     H2 6051   5.598   2.660   8.906
 1937WAT      O 6052   7.271   1.378   1.360
 1937WAT     H1 6053   7.323   1.455   1.324
 1937WAT     H2 6054   7.224   1.406   1.444
 1938WAT      O 6055   9.395   9.771   7.417
 1938WAT     H1 6056   9.463   9.796   7.348
 1938WAT     H2 6057   9.400   9.672   7.433
 1939WAT      O 6058   7.310   3.562   7.748
 1939WAT     H1 6059   7.336   3.630   7.817
 1939WAT     H2 6060   7.303   3.607   7.658
 1940WAT      O 6061   7.669   9.671   9.532
 1940WAT     H1 6062   7.639   9.672   9.627
 1940WAT     H2 6063   7.769   9.668   9.529
 1941WAT      O 6064   2.051   0.955   9.862
 1941WAT     H1 6065   2.128   0.942   9.925
 1941WAT     H2 6066   2.023   1.051   9.863
 1942WAT      O 6067   6.175   8.113   0.882
 1942WAT     H1 6068   6.225   8.102   0.796
 1942WAT     H2 6069   6.137   8.205   0.886
 1943WAT      O 6070   5.065   7.369   1.167
 1943WAT     H1 6071   5.164   7.374   1.158
 1943WAT     H2 6072   5.037   7.408   1.255
 1944WAT      O 6073   3.694   5.366   0.531
 1944WAT     H1 6074   3.613   5.335   0.481
 1944WAT     H2 6075   3.666   5.398   0.622
 1945WAT      O 6076   5.958   9.776   5.883
 1945WAT     H1 6077   5.969   9.862   5.832
 1945WAT     H2 6078   5.990   9.700   5.827
 1946WAT      O 6079   3.914   8.803   9.355
 1946WAT     H1 6080   3.825   8.847   9.366
 1946WAT     H2 6081   3.960   8.797   9.444
 1947WAT      O 6082   8.013   0.269   1.621
 1947WAT     H1 6083   7.990   0.214   1.702
 1947WAT     H2 6084   7.988   0.364   1.637
 1948WAT      O 6085   2.216   4.100   6.082
 1948WAT     H1 6086   2.276   4.036   6.130
 1948WAT     H2 6087   2.154   4.143   6.148
 1949WAT      O 6088   6.436   9.306   8.070
 1949WAT     H1 6089   6.529   9.320   8.037
 1949WAT     H2 6090   6.372   9.321   7.994
 1950WAT      O 6091   3.301   4.606   5.612
 1950WAT     H1 6092   3.202   4.596   5.619
 1950WAT     H2 6093   3.345   4.562   5.690
 1951WAT      O 6094   0.664   1.767   4.264
 1951WAT     H1 6095   0.664   1.841   4.197
 1951WAT     H2 6096   0.679   1.805   4.355
 1952WAT      O 6097   8.852   8.612   3.755
 1952WAT     H1 6098   8.811   8.667   3.828
 1952WAT     H2 6099   8.948   8.595   3.777
 1953WAT      O 6100   4.219   5.370   5.481
 1953WAT     H1 6101   4.130   5.401   5.449
 1953WAT     H2 6102   4.243   5.284   5.436
 1954WAT      O 6103   5.700   6.730   4.945
 1954WAT     H1 6104   5.741   6.795   5.009
 1954WAT     H2 6105   5.605   6.755   4.927
 1955WAT      O 6106   3.825   8.661   7.762
 1955WAT     H1 6107   3.881   8.620   7.690
 1955WAT     H2 6108   3.735   8.685   7.724
 1956WAT      O 6109   1.412   4.298   9.198
 1956WAT     H1 6110   1.482   4.228   9.185
 1956WAT     H2 6111   1.456   4.387   9.212
 1957WAT      O 6112   3.933   5.718   1.434
 1957WAT     H1 6113   3.967   5.689   1.523
 1957WAT     H2 6114   3.836   5.695   1.427
 1958WAT      O 6115   1.124   4.910   0.129
 1958WAT     H1 6116   1.181   4.988   0.103
 1958WAT     H2 6117   1.167   4.862   0.205
 1959WAT      O 6118   4.247   2.976   9.796
 1959WAT     H1 6119   4.314   2.979   9.722
 1959WAT     H2 6120   4.285   2.926   9.874
 1960WAT      O 6121   3.150   8.798   0.157
 1960WAT     H1 6122   3.082   8.820   0.087
 1960WAT     H2 6123   3.156   8.873   0.223
 1961WAT      O 6124   1.324   3.667   6.703
 1961WAT     H1 6125   1.305   3.765   6.711
 1961WAT     H2 6126   1.423   3.651   6.711
 1962WAT      O 6127   4.719   8.489   1.629
 1962WAT     H1 6128   4.673   8.463   1.545
 1962WAT     H2 6129   4.697   8.422   1.701
 1963WAT      O 6130   0.701   0.312   0.080
 1963WAT     H1 6131   0.777   0.363   0.122
 1963WAT     H2 6132   0.671   0.239   0.142
 1964WAT      O 6133   4.443   6.209   0.448
 1964WAT     H1 6134   4.456   6.171   0.539
 1964WAT     H2 6135   4.510   6.281   0.432
 1965WAT      O 6136   6.378   2.935   5.952
 1965WAT     H1 6137   6.453   2.978   6.001
 1965WAT     H2 6138   6.297   2.993   5.954
 1966WAT      O 6139   5.404   6.467   0.131
 1966WAT     H1 6140   5.323   6.520   0.106
 1966WAT     H2 6141   5.480   6.491   0.071
 1967WAT      O 6142   1.603   7.345   8.401
 1967WAT     H1 6143   1.553   7.334   8.315
 1967WAT     H2 6144   1.569   7.425   8.450
 1968WAT      O 6145   6.646   8.288   9.158
 1968WAT     H1 6146   6.744   8.301   9.145
 1968WAT     H2 6147   6.631   8.214   9.224
 1969WAT      O 6148   0.035   1.037   4.863
 1969WAT     H1 6149   0.053   0.939   4.863
 1969WAT     H2 6150   0.059   1.075   4.774
 1970WAT      O 6151   9.056   6.378   7.622
 1970WAT     H1 6152   9.106   6.292   7.615
 1970WAT     H2 6153   9.095   6.434   7.696
 1971WAT      O 6154   1.300   3.021   3.917
 1971WAT     H1 6155   1.379   3.018   3.978
 1971WAT     H2 6156   1.330   3.003   3.823
 1972WAT      O 6157   8.547   6.723   1.898
 1972WAT     H1 6158   8.629   6.777   1.914
 1972WAT     H2 6159   8.481   6.739   1.972
 1973WAT      O 6160   1.462   7.318   9.701
 1973WAT     H1 6161   1.392   7.286   9.637
 1973WAT     H2 6162   1.441   7.284   9.793
 1974WAT      O 6163   7.424   8.023   5.159
 1974WAT     H1 6164   7.471   8.104   5.124
 1974WAT     H2 6165   7.450   8.009   5.255
 1975WAT      O 6166   4.613   5.242   1.949
 1975WAT     H1 6167   4.579   5.174   2.014
 1975WAT     H2 6168   4.557   5.324   1.955
 1976WAT      O 6169   8.959   6.865   6.406
 1976WAT     H1 6170   8.933   6.790   6.466
 1976WAT     H2 6171   8.945   6.952   6.453
 1977WAT      O 6172   7.264   1.111   4.622
 1977WAT     H1 6173   7.196   1.103   4.549
 1977WAT     H2 6174   7.354   1.088   4.587
 1978WAT      O 6175   8.804   0.694   9.750
 1978WAT     H1 6176   8.722   0.685   9.807
 1978WAT     H2 6177   8.776   0.706   9.654
 1979WAT      O 6178   9.156   3.011   0.067
 1979WAT     H1 6179   9.186   3.013  -0.029
 1979WAT     H2 6180   9.058   3.030   0.072
 1980WAT      O 6181   6.307   2.467   3.556
 1980WAT     H1 6182   6.298   2.367   3.558
 1980WAT     H2 6183   6.384   2.494   3.614
 1981WAT      O 6184   7.270   9.019   4.438
 1981WAT     H1 6185   7.198   9.088   4.427
 1981WAT     H2 6186   7.340   9.054   4.501
 1982WAT      O 6187   9.876   4.510   8.685
 1982WAT     H1 6188   9.800   4.498   8.622
 1982WAT     H2 6189   9.879   4.433   8.749
 1983WAT      O 6190   6.350   1.411   9.289
 1983WAT     H1 6191   6.397   1.326   9.313
 1983WAT     H2 6192   6.417   1.479   9.258
 1984WAT      O 6193   4.205   4.933   6.531
 1984WAT     H1 6194   4.150   5.008   6.568
 1984WAT     H2 6195   4.149   4.850   6.528
 1985WAT      O 6196   0.432   2.846   7.461
 1985WAT     H1 6197   0.499   2.790   7.510
 1985WAT     H2 6198   0.369   2.887   7.527
 1986WAT      O 6199   8.528   1.815   1.253
 1986WAT     H1 6200   8.448   1.756   1.238
 1986WAT     H2 6201   8.527   1.848   1.348
 1987WAT      O 6202   9.495   8.950   0.650
 1987WAT     H1 6203   9.579   8.897   0.655
 1987WAT     H2 6204   9.502   9.018   0.578
 1988WAT      O 6205   3.064   2.048   4.512
 1988WAT     H1 6206   3.024   1.958   4.496
 1988WAT     H2 6207   3.000   2.118   4.481
 1989WAT      O 6208   8.986   0.608   7.670
 1989WAT     H1 6209   9.052   0.634   7.741
 1989WAT     H2 6210   9.034   0.569   7.592
 1990WAT      O 6211   8.152   4.609   8.578
 1990WAT     H1 6212   8.057   4.640   8.572
 1990WAT     H2 6213   8.162   4.550   8.659
 1991WAT      O 6214   9.140   4.606   0.449
 1991WAT     H1 6215   9.145   4.547   0.369
 1991WAT     H2 6216   9.054   4.656   0.449
 1992WAT      O 6217   7.652   3.215   8.508
 1992WAT     H1 6218   7.572   3.202   8.567
 1992WAT     H2 6219   7.705   3.130   8.505
 1993WAT      O 6220   0.637   8.552   4.374
 1993WAT     H1 6221   0.730   8.515   4.377
 1993WAT     H2 6222   0.636   8.643   4.415
 1994WAT      O 6223   2.842   2.066   0.065
 1994WAT     H1 6224   2.881   1.981   0.100
 1994WAT     H2 6225   2.756   2.085   0.112
 1995WAT      O 6226   8.628   4.180   8.482
 1995WAT     H1 6227   8.564   4.134   8.421
 1995WAT     H2 6228   8.626   4.279   8.464
 1996WAT      O 6229   6.977   8.905   7.764
 1996WAT     H1 6230   6.915   8.948   7.829
 1996WAT     H2 6231   6.923   8.848   7.701
 1997WAT      O 6232   2.309   2.213   1.591
 1997WAT     H1 6233   2.398   2.239   1.553
 1997WAT     H2 6234   2.285   2.274   1.666
 1998WAT      O 6235   2.450   0.968   0.097
 1998WAT     H1 6236   2.382   1.040   0.108
 1998WAT     H2 6237   2.540   1.008   0.080
 1999WAT      O 6238   6.790   7.142   2.593
 1999WAT     H1 6239   6.805   7.069   2.659
 1999WAT     H2 6240   6.712   7.120   2.535
 2000WAT      O 6241   3.269   9.019   5.805
 2000WAT     H1 6242   3.315   9.000   5.892
 2000WAT     H2 6243   3.274   9.117   5.785
 2001WAT      O 6244   4.036   3.452   5.438
 2001WAT     H1 6245   4.044   3.368   5.491
 2001WAT     H2 6246   3.978   3.517   5.487
 2002WAT      O 6247   8.754   1.801   1.938
 2002WAT     H1 6248   8.695   1.809   1.858
 2002WAT     H2 6249   8.800   1.888   1.955
 2003WAT      O 6250   3.779   0.603   5.334
 2003WAT     H1 6251   3.713   0.673   5.361
 2003WAT     H2 6252   3.795   0.542   5.412
 2004WAT      O 6253   1.249   3.649   0.992
 2004WAT     H1 6254   1.314   3.688   1.057
 2004WAT     H2 6255   1.288   3.567   0.950
 2005WAT      O 6256   8.423   5.947   5.033
 2005WAT     H1 6257   8.454   5.856   5.060
 2005WAT     H2 6258   8.501   6.002   5.005
 2006WAT      O 6259   8.459   1.371   3.996
 2006WAT     H1 6260   8.478   1.317   3.915
 2006WAT     H2 6261   8.533   1.360   4.062
 2007WAT      O 6262   5.754   0.911   9.357
 2007WAT     H1 6263   5.703   0.958   9.429
 2007WAT     H2 6264   5.718   0.939   9.268
 2008WAT      O 6265   5.985   3.907   6.236
 2008WAT     H1 6266   6.081   3.918   6.210
 2008WAT     H2 6267   5.944   3.997   6.248
 2009WAT      O 6268   8.739   4.021   5.021
 2009WAT     H1 6269   8.836   4.039   5.041
 2009WAT     H2 6270   8.705   4.089   4.957
 2010WAT      O 6271   8.220   4.128   7.197
 2010WAT     H1 6272   8.228   4.228   7.188
 2010WAT     H2 6273   8.278   4.084   7.128
 2011WAT      O 6274   9.506   7.224   4.766
 2011WAT     H1 6275   9.535   7.162   4.692
 2011WAT     H2 6276   9.582   7.284   4.791
 2012WAT      O 6277   5.145   5.401   2.104
 2012WAT     H1 6278   5.183   5.338   2.037
 2012WAT     H2 6279   5.112   5.483   2.058
 2013WAT      O 6280   6.083   9.760   0.132
 2013WAT     H1 6281   6.134   9.680   0.101
 2013WAT     H2 6282   5.988   9.754   0.100
 2014WAT      O 6283   5.342   9.066   8.988
 2014WAT     H1 6284   5.253   9.096   9.023
 2014WAT     H2 6285   5.359   8.972   9.016
 2015WAT      O 6286   3.570   5.149   3.858
 2015WAT     H1 6287   3.516   5.214   3.910
 2015WAT     H2 6288   3.516   5.113   3.782
 2016WAT      O 6289   7.495   3.180   9.543
 2016WAT     H1 6290   7.585   3.225   9.540
 2016WAT     H2 6291   7.483   3.124   9.461
 2017WAT      O 6292   8.077   1.026   7.013
 2017WAT     H1 6293   8.000   0.971   6.979
 2017WAT     H2 6294   8.086   1.013   7.112
 2018WAT      O 6295   3.626   5.284   8.538
 2018WAT     H1 6296   3.565   5.224   8.487
 2018WAT     H2 6297   3.633   5.372   8.493
 2019WAT      O 6298   6.475   2.262   5.645
 2019WAT     H1 6299   6.461   2.298   5.737
 2019WAT     H2 6300   6.390   2.270   5.593
 2020WAT      O 6301   9.078   5.037   5.911
 2020WAT     H1 6302   9.046   5.102   5.842
 2020WAT     H2 6303   9.175   5.051   5.928
 2021WAT      O 6304   0.101   9.300   6.594
 2021WAT     H1 6305   0.045   9.348   6.662
 2021WAT     H2 6306   0.107   9.355   6.511
 2022WAT      O 6307   6.176   4.189   0.401
 2022WAT     H1 6308   6.143   4.282   0.388
 2022WAT     H2 6309   6.275   4.186   0.384
 2023WAT      O 6310   6.560   4.273   8.855
 2023WAT     H1 6311   6.612   4.256   8.772
 2023WAT     H2 6312   6.479   4.214   8.856
 2024WAT      O 6313   8.410   7.792   5.752
 2024WAT     H1 6314   8.341   7.754   5.691
 2024WAT     H2 6315   8.387   7.886   5.776
 2025WAT      O 6316   5.837   7.824   3.663
 2025WAT     H1 6317   5.804   7.731   3.651
 2025WAT     H2 6318   5.769   7.878   3.712
 2026WAT      O 6319   7.093   7.125   8.729
 2026WAT     H1 6320   7.028   7.050   8.715
 2026WAT     H2 6321   7.146   7.140   8.646
 2027WAT      O 6322   6.523   1.154   8.254
 2027WAT     H1 6323   6.450   1.161   8.322
 2027WAT     H2 6324   6.568   1.243   8.244
 2028WAT      O 6325   0.301   4.410   1.828
 2028WAT     H1 6326   0.312   4.329   1.771
 2028WAT     H2 6327   0.352   4.486   1.788
 2029WAT      O 6328   4.345   1.318   8.459
 2029WAT     H1 6329   4.328   1.412   8.488
 2029WAT     H2 6330   4.420   1.317   8.392
 2030WAT      O 6331   8.235   6.400   5.560
 2030WAT     H1 6332   8.228   6.378   5.657
 2030WAT     H2 6333   8.152   6.448   5.531
 2031WAT      O 6334   9.556   0.289   7.375
 2031WAT     H1 6335   9.644   0.242   7.368
 2031WAT     H2 6336   9.484   0.221   7.389
 2032WAT      O 6337   8.236   0.634   8.185
 2032WAT     H1 6338   8.227   0.581   8.100
 2032WAT     H2 6339   8.319   0.605   8.233
 2033WAT      O 6340   7.713   9.709   4.678
 2033WAT     H1 6341   7.675   9.764   4.753
 2033WAT     H2 6342   7.650   9.709   4.601
 2034WAT      O 6343   1.114   0.125   2.059
 2034WAT     H1 6344   1.037   0.062   2.052
 2034WAT     H2 6345   1.094   0.195   2.127
 2035WAT      O 6346   6.406   6.219   3.092
 2035WAT     H1 6347   6.504   6.215   3.069
 2035WAT     H2 6348   6.352   6.201   3.010
 2036WAT      O 6349   1.082   1.596   2.479
 2036WAT     H1 6350   1.014   1.556   2.541
 2036WAT     H2 6351   1.138   1.662   2.530
 2037WAT      O 6352   1.756   1.892   5.325
 2037WAT     H1 6353   1.668   1.930   5.353
 2037WAT     H2 6354   1.799   1.953   5.259
 2038WAT      O 6355   1.034   7.267   3.439
 2038WAT     H1 6356   0.949   7.280   3.388
 2038WAT     H2 6357   1.025   7.307   3.530
 2039WAT      O 6358   6.422   3.775   3.858
 2039WAT     H1 6359   6.427   3.675   3.848
 2039WAT     H2 6360   6.356   3.798   3.929
 2040WAT      O 6361   5.088   0.476   5.639
 2040WAT     H1 6362   5.137   0.447   5.557
 2040WAT     H2 6363   5.020   0.407   5.663
 2041WAT      O 6364   2.434   0.885   6.545
 2041WAT     H1 6365   2.483   0.798   6.549
 2041WAT     H2 6366   2.445   0.925   6.454
 2042WAT      O 6367   5.976   5.571   9.784
 2042WAT     H1 6368   6.071   5.554   9.757
 2042WAT     H2 6369   5.940   5.647   9.731
 2043WAT      O 6370   9.204   5.263   1.841
 2043WAT     H1 6371   9.146   5.226   1.914
 2043WAT     H2 6372   9.198   5.203   1.761
 2044WAT      O 6373   6.554   5.399   3.410
 2044WAT     H1 6374   6.612   5.333   3.459
 2044WAT     H2 6375   6.460   5.392   3.444
 2045WAT      O 6376   5.853   0.074   7.495
 2045WAT     H1 6377   5.841   0.164   7.537
 2045WAT     H2 6378   5.933   0.029   7.535
 2046WAT      O 6379   6.939   6.278   5.122
 2046WAT     H1 6380   6.871   6.216   5.160
 2046WAT     H2 6381   7.008   6.225   5.071
 2047WAT      O 6382   0.785   5.055   1.004
 2047WAT     H1 6383   0.870   5.025   1.047
 2047WAT     H2 6384   0.746   5.130   1.056
 2048WAT      O 6385   2.705   2.562   4.281
 2048WAT     H1 6386   2.701   2.462   4.273
 2048WAT     H2 6387   2.617   2.602   4.257
 2049WAT      O 6388   9.329   6.591   6.513
 2049WAT     H1 6389   9.278   6.620   6.594
 2049WAT     H2 6390   9.297   6.642   6.433
 2050WAT      O 6391   0.146   2.754   6.202
 2050WAT     H1 6392   0.119   2.730   6.295
 2050WAT     H2 6393   0.077   2.814   6.161
 2051WAT      O 6394   1.119   7.984   6.325
 2051WAT     H1 6395   1.190   8.027   6.382
 2051WAT     H2 6396   1.046   7.949   6.384
 2052WAT      O 6397   1.676   1.060   4.717
 2052WAT     H1 6398   1.702   1.090   4.809
 2052WAT     H2 6399   1.577   1.046   4.714
 2053WAT      O 6400   1.780   7.010   0.042
 2053WAT     H1 6401   1.833   7.095   0.049
 2053WAT     H2 6402   1.837   6.933   0.069
 2054WAT      O 6403   0.318   0.836   0.144
 2054WAT     H1 6404   0.257   0.764   0.177
 2054WAT     H2 6405   0.325   0.830   0.045
 2055WAT      O 6406   5.340   8.286   1.428
 2055WAT     H1 6407   5.308   8.359   1.368
 2055WAT     H2 6408   5.281   8.279   1.507
 2056WAT      O 6409   6.922   8.021   0.063
 2056WAT     H1 6410   6.840   8.023   0.119
 2056WAT     H2 6411   6.993   7.969   0.110
 2057WAT      O 6412   5.963   5.012   4.955
 2057WAT     H1 6413   5.915   5.039   5.038
 2057WAT     H2 6414   6.046   5.067   4.944
 2058WAT      O 6415   3.316   5.591   4.050
 2058WAT     H1 6416   3.236   5.542   4.084
 2058WAT     H2 6417   3.398   5.557   4.097
 2059WAT      O 6418   9.699   8.948   0.380
 2059WAT     H1 6419   9.769   9.019   0.386
 2059WAT     H2 6420   9.705   8.888   0.461
 2060WAT      O 6421   2.741   0.778   9.282
 2060WAT     H1 6422   2.676   0.808   9.213
 2060WAT     H2 6423   2.699   0.784   9.373
 2061WAT      O 6424   2.696   8.750   5.328
 2061WAT     H1 6425   2.736   8.814   5.394
 2061WAT     H2 6426   2.737   8.660   5.339
 2062WAT      O 6427   8.564   4.081   9.531
 2062WAT     H1 6428   8.546   4.178   9.547
 2062WAT     H2 6429   8.484   4.027   9.558
 2063WAT      O 6430   4.210   9.827   3.049
 2063WAT     H1 6431   4.232   9.754   3.114
 2063WAT     H2 6432   4.198   9.788   2.958
 2064WAT      O 6433   8.345   5.549   1.795
 2064WAT     H1 6434   8.397   5.624   1.755
 2064WAT     H2 6435   8.257   5.583   1.829
 2065WAT      O 6436   0.104   7.663   3.409
 2065WAT     H1 6437   0.042   7.739   3.388
 2065WAT     H2 6438   0.198   7.691   3.391
 2066WAT      O 6439   5.449   3.155   1.970
 2066WAT     H1 6440   5.486   3.063   1.985
 2066WAT     H2 6441   5.442   3.203   2.057
 2067WAT      O 6442   7.445   2.934   8.164
 2067WAT     H1 6443   7.531   2.884   8.175
 2067WAT     H2 6444   7.450   3.019   8.216
 2068WAT      O 6445   6.380   2.328   0.022
 2068WAT     H1 6446   6.334   2.265   0.085
 2068WAT     H2 6447   6.314   2.394  -0.013
 2069WAT      O 6448   0.076   3.394   1.827
 2069WAT     H1 6449   0.009   3.332   1.868
 2069WAT     H2 6450   0.105   3.461   1.895
 2070WAT      O 6451   2.364   3.983   4.239
 2070WAT     H1 6452   2.316   3.942   4.316
 2070WAT     H2 6453   2.403   4.071   4.267
 2071WAT      O 6454   2.263   4.484   8.593
 2071WAT     H1 6455   2.285   4.478   8.496
 2071WAT     H2 6456   2.347   4.489   8.647
 2072WAT      O 6457   0.842   6.110   2.957
 2072WAT     H1 6458   0.858   6.012   2.957
 2072WAT     H2 6459   0.928   6.159   2.971
 2073WAT      O 6460   3.200   3.454   2.189
 2073WAT     H1 6461   3.116   3.440   2.137
 2073WAT     H2 6462   3.275   3.404   2.144
 2074WAT      O 6463   8.056   2.758   3.494
 2074WAT     H1 6464   7.997   2.698   3.440
 2074WAT     H2 6465   8.001   2.831   3.534
 2075WAT      O 6466   1.889   4.938   5.189
 2075WAT     H1 6467   1.873   4.997   5.111
 2075WAT     H2 6468   1.901   4.993   5.272
 2076WAT      O 6469   4.506   1.774   6.466
 2076WAT     H1 6470   4.444   1.820   6.402
 2076WAT     H2 6471   4.551   1.843   6.523
 2077WAT      O 6472   0.938   9.228   3.716
 2077WAT     H1 6473   0.854   9.180   3.745
 2077WAT     H2 6474   1.013   9.162   3.709
 2078WAT      O 6475   0.263   7.626   1.767
 2078WAT     H1 6476   0.205   7.545   1.761
 2078WAT     H2 6477   0.309   7.628   1.856
 2079WAT      O 6478   4.079   7.225   7.508
 2079WAT     H1 6479   4.028   7.297   7.555
 2079WAT     H2 6480   4.017   7.152   7.481
 2080WAT      O 6481   9.118   8.588   0.577
 2080WAT     H1 6482   9.043   8.646   0.546
 2080WAT     H2 6483   9.190   8.587   0.507
 2081WAT      O 6484   9.787   1.591   8.138
 2081WAT     H1 6485   9.733   1.637   8.068
 2081WAT     H2 6486   9.848   1.523   8.096
 2082WAT      O 6487   4.540   7.805   7.145
 2082WAT     H1 6488   4.531   7.877   7.075
 2082WAT     H2 6489   4.570   7.847   7.231
 2083WAT      O 6490   1.722   6.204   3.724
 2083WAT     H1 6491   1.712   6.279   3.659
 2083WAT     H2 6492   1.774   6.237   3.804
 2084WAT      O 6493   4.233   7.208   7.758
 2084WAT     H1 6494   4.189   7.255   7.835
 2084WAT     H2 6495   4.184   7.230   7.674
 2085WAT      O 6496   9.553   1.799   8.818
 2085WAT     H1 6497   9.601   1.743   8.751
 2085WAT     H2 6498   9.479   1.850   8.772
 2086WAT      O 6499   4.238   4.431   1.293
 2086WAT     H1 6500   4.318   4.462   1.242
 2086WAT     H2 6501   4.155   4.466   1.249
 2087WAT      O 6502   2.303   6.259   8.357
 2087WAT     H1 6503   2.327   6.356   8.366
 2087WAT     H2 6504   2.206   6.247   8.381
 2088WAT      O 6505   1.415   9.152   1.770
 2088WAT     H1 6506   1.321   9.158   1.736
 2088WAT     H2 6507   1.473   9.110   1.701
 2089WAT      O 6508   6.360   7.060   2.876
 2089WAT     H1 6509   6.285   7.119   2.846
 2089WAT     H2 6510   6.340   6.965   2.853
 2090WAT      O 6511   9.417   5.237   7.806
 2090WAT     H1 6512   9.470   5.152   7.799
 2090WAT     H2 6513   9.322   5.219   7.783
 2091WAT      O 6514   2.517   5.103   3.027
 2091WAT     H1 6515   2.608   5.089   3.064
 2091WAT     H2 6516   2.496   5.201   3.023
 2092WAT      O 6517   0.543   3.886   7.280
 2092WAT     H1 6518   0.455   3.845   7.304
 2092WAT     H2 6519   0.617   3.825   7.309
 2093WAT      O 6520   3.158   3.484   4.826
 2093WAT     H1 6521   3.070   3.472   4.782
 2093WAT     H2 6522   3.191   3.577   4.812
 2094WAT      O 6523   7.539   0.367   5.579
 2094WAT     H1 6524   7.494   0.448   5.614
 2094WAT     H2 6525   7.480   0.288   5.590
 2095WAT      O 6526   5.104   0.913   1.651
 2095WAT     H1 6527   5.060   0.928   1.739
 2095WAT     H2 6528   5.035   0.908   1.579
 2096WAT      O 6529   3.035   1.877   2.240
 2096WAT     H1 6530   3.081   1.909   2.158
 2096WAT     H2 6531   3.001   1.784   2.226
 2097WAT      O 6532   6.602   0.793   0.815
 2097WAT     H1 6533   6.523   0.816   0.872
 2097WAT     H2 6534   6.670   0.867   0.821
 2098WAT      O 6535   8.575   4.475   1.708
 2098WAT     H1 6536   8.506   4.422   1.659
 2098WAT     H2 6537   8.580   4.444   1.803
 2099WAT      O 6538   2.681   4.660   0.800
 2099WAT     H1 6539   2.627   4.690   0.879
 2099WAT     H2 6540   2.635   4.584   0.755
 2100WAT      O 6541   4.401   4.312   5.605
 2100WAT     H1 6542   4.459   4.355   5.674
 2100WAT     H2 6543   4.349   4.237   5.647
 2101WAT      O 6544   1.892   1.416   1.048
 2101WAT     H1 6545   1.890   1.367   0.961
 2101WAT     H2 6546   1.835   1.369   1.114
 2102WAT      O 6547   3.009   1.809   3.109
 2102WAT     H1 6548   2.939   1.831   3.177
 2102WAT     H2 6549   3.092   1.863   3.127
 2103WAT      O 6550   5.194   4.818   0.825
 2103WAT     H1 6551   5.127   4.744   0.828
 2103WAT     H2 6552   5.183   4.877   0.906
 2104WAT      O 6553   8.197   4.316   1.455
 2104WAT     H1 6554   8.281   4.321   1.508
 2104WAT     H2 6555   8.121   4.354   1.508
 2105WAT      O 6556   0.285   4.513   7.276
 2105WAT     H1 6557   0.233   4.435   7.241
 2105WAT     H2 6558   0.360   4.480   7.333
 2106WAT      O 6559   1.981   5.393   2.053
 2106WAT     H1 6560   1.988   5.489   2.078
 2106WAT     H2 6561   1.955   5.339   2.134
 2107WAT      O 6562   9.323   2.083   2.159
 2107WAT     H1 6563   9.407   2.104   2.208
 2107WAT     H2 6564   9.269   2.017   2.211
 2108WAT      O 6565   3.431   3.195   7.647
 2108WAT     H1 6566   3.375   3.259   7.594
 2108WAT     H2 6567   3.457   3.118   7.589
 2109WAT      O 6568   3.202   3.344   7.496
 2109WAT     H1 6569   3.130   3.276   7.478
 2109WAT     H2 6570   3.169   3.410   7.563
 2110WAT      O 6571   5.902   3.859   9.661
 2110WAT     H1 6572   5.815   3.866   9.612
 2110WAT     H2 6573   5.978   3.859   9.595
 2111WAT      O 6574   0.802   4.985   7.398
 2111WAT     H1 6575   0.802   4.993   7.298
 2111WAT     H2 6576   0.755   5.063   7.438
 2112WAT      O 6577   3.929   8.439   5.020
 2112WAT     H1 6578   3.836   8.445   5.056
 2112WAT     H2 6579   3.989   8.403   5.091
 2113WAT      O 6580   7.757   5.096   3.687
 2113WAT     H1 6581   7.660   5.092   3.710
 2113WAT     H2 6582   7.775   5.176   3.630
 2114WAT      O 6583   4.208   6.776   2.130
 2114WAT     H1 6584   4.109   6.765   2.123
 2114WAT     H2 6585   4.252   6.729   2.054
 2115WAT      O 6586   2.165   7.671   9.777
 2115WAT     H1 6587   2.114   7.663   9.692
 2115WAT     H2 6588   2.103   7.702   9.850
 2116WAT      O 6589   6.452   2.337   4.240
 2116WAT     H1 6590   6.524   2.294   4.294
 2116WAT     H2 6591   6.380   2.370   4.301
 2117WAT      O 6592   2.154   0.450   1.067
 2117WAT     H1 6593   2.249   0.432   1.043
 2117WAT     H2 6594   2.094   0.402   1.002
 2118WAT      O 6595   4.477   4.297   1.640
 2118WAT     H1 6596   4.392   4.348   1.621
 2118WAT     H2 6597   4.459   4.199   1.632
 2119WAT      O 6598   5.923   5.740   1.059
 2119WAT     H1 6599   5.900   5.791   1.141
 2119WAT     H2 6600   5.968   5.800   0.993
 2120WAT      O 6601   8.196   5.433   4.255
 2120WAT     H1 6602   8.255   5.437   4.336
 2120WAT     H2 6603   8.161   5.524   4.236
 2121WAT      O 6604   8.197   9.531   0.347
 2121WAT     H1 6605   8.259   9.484   0.284
 2121WAT     H2 6606   8.205   9.492   0.438
 2122WAT      O 6607   2.336   7.707   2.475
 2122WAT     H1 6608   2.399   7.704   2.397
 2122WAT     H2 6609   2.306   7.614   2.496
 2123WAT      O 6610   5.601   1.329   4.411
 2123WAT     H1 6611   5.579   1.364   4.321
 2123WAT     H2 6612   5.520   1.287   4.452
 2124WAT      O 6613   6.924   5.007   7.020
 2124WAT     H1 6614   6.980   4.988   6.939
 2124WAT     H2 6615   6.983   5.010   7.101
 2125WAT      O 6616   8.625   8.597   0.169
 2125WAT     H1 6617   8.538   8.578   0.215
 2125WAT     H2 6618   8.671   8.673   0.216
 2126WAT      O 6619   2.030   0.343   8.405
 2126WAT     H1 6620   1.973   0.291   8.342
 2126WAT     H2 6621   2.062   0.283   8.479
 2127WAT      O 6622   5.505   2.896   1.589
 2127WAT     H1 6623   5.487   2.987   1.628
 2127WAT     H2 6624   5.589   2.859   1.627
 2128WAT      O 6625   9.646   6.644   6.449
 2128WAT     H1 6626   9.580   6.623   6.521
 2128WAT     H2 6627   9.699   6.562   6.428
 2129WAT      O 6628   4.170   7.947   4.429
 2129WAT     H1 6629   4.235   7.999   4.373
 2129WAT     H2 6630   4.215   7.865   4.463
 2130WAT      O 6631   8.244   6.839   2.269
 2130WAT     H1 6632   8.254   6.791   2.182
 2130WAT     H2 6633   8.334   6.848   2.312
 2131WAT      O 6634   6.967   6.107   3.266
 2131WAT     H1 6635   7.000   6.119   3.359
 2131WAT     H2 6636   7.029   6.150   3.201
 2132WAT      O 6637   5.162   3.142   1.624
 2132WAT     H1 6638   5.079   3.196   1.611
 2132WAT     H2 6639   5.140   3.045   1.618
 2133WAT      O 6640   0.031   5.882   8.142
 2133WAT     H1 6641   0.107   5.829   8.105
 2133WAT     H2 6642  -0.020   5.827   8.207
 2134WAT      O 6643   0.439   0.892   5.693
 2134WAT     H1 6644   0.466   0.962   5.759
 2134WAT     H2 6645   0.505   0.889   5.618
 2135WAT      O 6646   4.071   6.310   2.531
 2135WAT     H1 6647   4.130   6.262   2.466
 2135WAT     H2 6648   3.999   6.248   2.562
 2136WAT      O 6649   7.643   5.991   0.187
 2136WAT     H1 6650   7.598   5.976   0.099
 2136WAT     H2 6651   7.736   5.954   0.183
 2137WAT      O 6652   9.889   3.294   7.382
 2137WAT     H1 6653   9.877   3.296   7.283
 2137WAT     H2 6654   9.843   3.373   7.423
 2138WAT      O 6655   8.833   7.947   4.176
 2138WAT     H1 6656   8.816   7.873   4.241
 2138WAT     H2 6657   8.866   8.028   4.225
 2139WAT      O 6658   9.465   6.805   2.673
 2139WAT     H1 6659   9.503   6.822   2.582
 2139WAT     H2 6660   9.365   6.801   2.667
 2140WAT      O 6661   6.938   1.822   1.628
 2140WAT     H1 6662   6.869   1.794   1.562
 2140WAT     H2 6663   6.964   1.743   1.684
 2141WAT      O 6664   0.380   7.959   8.788
 2141WAT     H1 6665   0.429   7.905   8.856
 2141WAT     H2 6666   0.395   8.056   8.806
 2142WAT      O 6667   0.671   2.332   1.805
 2142WAT     H1 6668   0.591   2.272   1.805
 2142WAT     H2 6669   0.703   2.344   1.711
 2143WAT      O 6670   4.419   2.500   1.632
 2143WAT     H1 6671   4.339   2.553   1.660
 2143WAT     H2 6672   4.502   2.555   1.645
 2144WAT      O 6673   1.039   6.757   7.438
 2144WAT     H1 6674   0.975   6.721   7.371
 2144WAT     H2 6675   1.006   6.846   7.471
 2145WAT      O 6676   7.818   5.848   3.138
 2145WAT     H1 6677   7.805   5.937   3.182
 2145WAT     H2 6678   7.753   5.838   3.062
 2146WAT      O 6679   6.896   2.524   7.664
 2146WAT     H1 6680   6.989   2.488   7.661
 2146WAT     H2 6681   6.869   2.539   7.760
 2147WAT      O 6682   2.773   9.198   5.364
 2147WAT     H1 6683   2.701   9.168   5.428
 2147WAT     H2 6684   2.767   9.143   5.280
 2148WAT      O 6685   3.112   6.179   0.023
 2148WAT     H1 6686   3.175   6.105   0.047
 2148WAT     H2 6687   3.103   6.242   0.100
 2149WAT      O 6688   0.601   5.495   9.838
 2149WAT     H1 6689   0.597   5.486   9.739
 2149WAT     H2 6690   0.690   5.465   9.871
 2150WAT      O 6691   7.838   1.384   9.595
 2150WAT     H1 6692   7.817   1.307   9.655
 2150WAT     H2 6693   7.816   1.361   9.500
 2151WAT      O 6694   6.112   0.648   0.002
 2151WAT     H1 6695   6.022   0.605  -0.007
 2151WAT     H2 6696   6.177   0.582   0.039
 2152WAT      O 6697   1.862   1.002   5.684
 2152WAT     H1 6698   1.858   0.905   5.661
 2152WAT     H2 6699   1.771   1.035   5.707
 2153WAT      O 6700   2.486   5.726   2.811
 2153WAT     H1 6701   2.427   5.781   2.870
 2153WAT     H2 6702   2.461   5.630   2.819
 2154WAT      O 6703   2.280   6.897   8.230
 2154WAT     H1 6704   2.299   6.885   8.327
 2154WAT     H2 6705   2.306   6.989   8.202
 2155WAT      O 6706   0.175   4.743   4.129
 2155WAT     H1 6707   0.201   4.828   4.174
 2155WAT     H2 6708   0.209   4.743   4.035
 2156WAT      O 6709   9.217   1.785   0.038
 2156WAT     H1 6710   9.253   1.701   0.078
 2156WAT     H2 6711   9.144   1.821   0.095
 2157WAT      O 6712   5.965   2.459   4.189
 2157WAT     H1 6713   5.919   2.394   4.129
 2157WAT     H2 6714   5.941   2.552   4.163
 2158WAT      O 6715   4.242   8.118   5.400
 2158WAT     H1 6716   4.200   8.043   5.452
 2158WAT     H2 6717   4.171   8.167   5.350
 2159WAT      O 6718   2.980   0.950   0.433
 2159WAT     H1 6719   3.026   1.036   0.415
 2159WAT     H2 6720   3.042   0.874   0.410
 2160WAT      O 6721   9.513   6.514   5.092
 2160WAT     H1 6722   9.521   6.489   5.189
 2160WAT     H2 6723   9.592   6.480   5.042
 2161WAT      O 6724   4.609   7.364   2.100
 2161WAT     H1 6725   4.509   7.356   2.104
 2161WAT     H2 6726   4.642   7.318   2.018
 2162WAT      O 6727   0.463   6.547   1.444
 2162WAT     H1 6728   0.480   6.645   1.433
 2162WAT     H2 6729   0.433   6.508   1.357
 2163WAT      O 6730   4.062   6.334   6.438
 2163WAT     H1 6731   3.965   6.359   6.438
 2163WAT     H2 6732   4.115   6.407   6.395
 2164WAT      O 6733   2.311   2.481   4.675
 2164WAT     H1 6734   2.392   2.509   4.623
 2164WAT     H2 6735   2.333   2.400   4.730
 2165WAT      O 6736   3.427   4.959   9.552
 2165WAT     H1 6737   3.423   4.863   9.578
 2165WAT     H2 6738   3.340   5.004   9.576
 2166WAT      O 6739   8.105   5.073   2.185
 2166WAT     H1 6740   8.169   5.022   2.241
 2166WAT     H2 6741   8.136   5.073   2.090
 2167WAT      O 6742   2.774   4.601   5.648
 2167WAT     H1 6743   2.786   4.595   5.549
 2167WAT     H2 6744   2.699   4.542   5.677
 2168WAT      O 6745   2.951   8.683   4.164
 2168WAT     H1 6746   2.899   8.620   4.106
 2168WAT     H2 6747   2.981   8.634   4.247
 2169WAT      O 6748   9.080   2.795   3.907
 2169WAT     H1 6749   9.044   2.844   3.828
 2169WAT     H2 6750   9.066   2.697   3.895
 2170WAT      O 6751   5.865   6.145   0.867
 2170WAT     H1 6752   5.939   6.212   0.861
 2170WAT     H2 6753   5.826   6.145   0.959
 2171WAT      O 6754   4.750   2.471   7.170
 2171WAT     H1 6755   4.802   2.429   7.245
 2171WAT     H2 6756   4.655   2.441   7.175
 2172WAT      O 6757   0.580   0.439   8.271
 2172WAT     H1 6758   0.639   0.481   8.201
 2172WAT     H2 6759   0.497   0.404   8.228
 2173WAT      O 6760   1.533   4.584   2.031
 2173WAT     H1 6761   1.560   4.490   2.010
 2173WAT     H2 6762   1.607   4.629   2.081
 2174WAT      O 6763   7.989   5.675   9.077
 2174WAT     H1 6764   8.072   5.678   9.134
 2174WAT     H2 6765   7.910   5.698   9.133
 2175WAT      O 6766   7.710   3.676   2.384
 2175WAT     H1 6767   7.615   3.675   2.354
 2175WAT     H2 6768   7.735   3.586   2.419
 2176WAT      O 6769   8.171   0.919   3.587
 2176WAT     H1 6770   8.145   0.963   3.673
 2176WAT     H2 6771   8.270   0.906   3.585
 2177WAT      O 6772   2.178   7.671   3.335
 2177WAT     H1 6773   2.165   7.734   3.259
 2177WAT     H2 6774   2.212   7.583   3.301
 2178WAT      O 6775   9.108   2.216   0.393
 2178WAT     H1 6776   9.008   2.213   0.391
 2178WAT     H2 6777   9.138   2.282   0.463
 2179WAT      O 6778   3.497   2.554   8.201
 2179WAT     H1 6779   3.510   2.584   8.295
 2179WAT     H2 6780   3.522   2.458   8.192
 2180WAT      O 6781   1.462   2.599   2.384
 2180WAT     H1 6782   1.529   2.603   2.310
 2180WAT     H2 6783   1.486   2.525   2.447
 2181WAT      O 6784   1.829   2.462   2.806
 2181WAT     H1 6785   1.784   2.535   2.754
 2181WAT     H2 6786   1.921   2.447   2.770
 2182WAT      O 6787   7.102   0.545   7.195
 2182WAT     H1 6788   7.166   0.615   7.165
 2182WAT     H2 6789   7.015   0.587   7.219
 2183WAT      O 6790   5.287   0.022   8.424
 2183WAT     H1 6791   5.384   0.048   8.430
 2183WAT     H2 6792   5.277  -0.055   8.361
 2184WAT      O 6793   5.593   0.956   3.611
 2184WAT     H1 6794   5.688   0.926   3.600
 2184WAT     H2 6795   5.532   0.882   3.585
 2185WAT      O 6796   2.690   1.214   6.434
 2185WAT     H1 6797   2.689   1.128   6.486
 2185WAT     H2 6798   2.694   1.291   6.497
 2186WAT      O 6799  -0.003   7.804   1.862
 2186WAT     H1 6800   0.021   7.731   1.798
 2186WAT     H2 6801   0.046   7.791   1.948
 2187WAT      O 6802   1.569   4.929   7.514
 2187WAT     H1 6803   1.477   4.938   7.476
 2187WAT     H2 6804   1.634   4.975   7.453
 2188WAT      O 6805   0.900   7.763   5.369
 2188WAT     H1 6806   0.875   7.689   5.307
 2188WAT     H2 6807   0.999   7.769   5.377
 2189WAT      O 6808   8.108   5.836   3.136
 2189WAT     H1 6809   8.018   5.854   3.175
 2189WAT     H2 6810   8.162   5.920   3.137
 2190WAT      O 6811   1.510   9.080   9.621
 2190WAT     H1 6812   1.551   8.991   9.637
 2190WAT     H2 6813   1.427   9.089   9.677
 2191WAT      O 6814   4.710   1.144   5.901
 2191WAT     H1 6815   4.795   1.139   5.953
 2191WAT     H2 6816   4.731   1.151   5.803
 2192WAT      O 6817   2.468   1.930   8.477
 2192WAT     H1 6818   2.427   1.872   8.407
 2192WAT     H2 6819   2.421   1.915   8.564
 2193WAT      O 6820   7.463   2.800   7.008
 2193WAT     H1 6821   7.540   2.861   7.028
 2193WAT     H2 6822   7.431   2.817   6.915
 2194WAT      O 6823   9.507   3.396   6.541
 2194WAT     H1 6824   9.559   3.357   6.617
 2194WAT     H2 6825   9.410   3.401   6.567
 2195WAT      O 6826   2.485   5.974   7.290
 2195WAT     H1 6827   2.541   5.962   7.372
 2195WAT     H2 6828   2.483   5.889   7.238
 2196WAT      O 6829   0.491   8.219   0.447
 2196WAT     H1 6830   0.473   8.301   0.502
 2196WAT     H2 6831   0.581   8.226   0.405
 2197WAT      O 6832   8.469   9.306   7.459
 2197WAT     H1 6833   8.392   9.306   7.395
 2197WAT     H2 6834   8.542   9.248   7.424
 2198WAT      O 6835   7.327   9.414   5.080
 2198WAT     H1 6836   7.388   9.405   5.159
 2198WAT     H2 6837   7.382   9.423   4.996
 2199WAT      O 6838   4.861   7.962   7.074
 2199WAT     H1 6839   4.766   7.991   7.086
 2199WAT     H2 6840   4.865   7.889   7.006
 2200WAT      O 6841   2.120   6.791   2.147
 2200WAT     H1 6842   2.034   6.741   2.132
 2200WAT     H2 6843   2.150   6.777   2.241
 2201WAT      O 6844   4.652   4.045   7.997
 2201WAT     H1 6845   4.645   4.142   8.020
 2201WAT     H2 6846   4.719   4.001   8.057
 2202WAT      O 6847   7.472   1.795   6.333
 2202WAT     H1 6848   7.518   1.809   6.421
 2202WAT     H2 6849   7.490   1.874   6.274
 2203WAT      O 6850   9.883   6.301   5.978
 2203WAT     H1 6851   9.848   6.278   6.069
 2203WAT     H2 6852   9.825   6.372   5.937
 2204WAT      O 6853   6.149   7.654   2.757
 2204WAT     H1 6854   6.080   7.636   2.827
 2204WAT     H2 6855   6.240   7.639   2.795
 2205WAT      O 6856   2.934   8.932   7.995
 2205WAT     H1 6857   2.918   8.857   7.931
 2205WAT     H2 6858   2.846   8.969   8.025
 2206WAT      O 6859   6.007   4.218   8.305
 2206WAT     H1 6860   6.027   4.287   8.375
 2206WAT     H2 6861   6.043   4.249   8.217
 2207WAT      O 6862   8.592   6.523   0.763
 2207WAT     H1 6863   8.517   6.534   0.828
 2207WAT     H2 6864   8.675   6.565   0.799
 2208WAT      O 6865   7.773   5.655   5.365
 2208WAT     H1 6866   7.678   5.685   5.363
 2208WAT     H2 6867   7.807   5.645   5.271
 2209WAT      O 6868   4.003   2.041   2.328
 2209WAT     H1 6869   4.020   2.035   2.229
 2209WAT     H2 6870   3.983   2.136   2.352
 2210WAT      O 6871   3.551   4.882   9.088
 2210WAT     H1 6872   3.573   4.948   9.017
 2210WAT     H2 6873   3.607   4.898   9.169
 2211WAT      O 6874   5.989   8.594   7.701
 2211WAT     H1 6875   5.991   8.652   7.620
 2211WAT     H2 6876   6.070   8.614   7.758
 2212WAT      O 6877   4.557   1.355   5.013
 2212WAT     H1 6878   4.556   1.258   4.989
 2212WAT     H2 6879   4.487   1.403   4.960
 2213WAT      O 6880   3.079   4.811   5.101
 2213WAT     H1 6881   3.167   4.785   5.139
 2213WAT     H2 6882   3.013   4.824   5.175
 2214WAT      O 6883   9.020   4.206   4.287
 2214WAT     H1 6884   9.044   4.122   4.237
 2214WAT     H2 6885   9.089   4.276   4.268
 2215WAT      O 6886   1.351   4.187   4.769
 2215WAT     H1 6887   1.433   4.148   4.729
 2215WAT     H2 6888   1.350   4.286   4.755
 2216WAT      O 6889   4.595   1.478   0.624
 2216WAT     H1 6890   4.578   1.423   0.706
 2216WAT     H2 6891   4.553   1.433   0.545
 2217WAT      O 6892   4.175   8.788   1.431
 2217WAT     H1 6893   4.132   8.739   1.355
 2217WAT     H2 6894   4.274   8.780   1.424
 2218WAT      O 6895   8.887   6.673   1.193
 2218WAT     H1 6896   8.978   6.712   1.178
 2218WAT     H2 6897   8.836   6.732   1.256
 2219WAT      O 6898   5.937   3.963   8.241
 2219WAT     H1 6899   5.931   3.974   8.142
 2219WAT     H2 6900   5.962   4.050   8.283
 2220WAT      O 6901   5.538   1.242   4.930
 2220WAT     H1 6902   5.540   1.235   5.029
 2220WAT     H2 6903   5.446   1.218   4.897
 2221WAT      O 6904   0.959   7.371   7.011
 2221WAT     H1 6905   0.958   7.392   6.913
 2221WAT     H2 6906   0.922   7.279   7.025
 2222WAT      O 6907   8.239   8.912   5.851
 2222WAT     H1 6908   8.158   8.857   5.828
 2222WAT     H2 6909   8.256   8.906   5.949
 2223WAT      O 6910   9.563   0.507   8.800
 2223WAT     H1 6911   9.486   0.530   8.858
 2223WAT     H2 6912   9.648   0.517   8.851
 2224WAT      O 6913   7.796   1.625   6.031
 2224WAT     H1 6914   7.833   1.629   6.124
 2224WAT     H2 6915   7.765   1.716   6.005
 2225WAT      O 6916   2.700   5.785   6.390
 2225WAT     H1 6917   2.763   5.818   6.320
 2225WAT     H2 6918   2.673   5.861   6.449
 2226WAT      O 6919   5.493   9.531   4.554
 2226WAT     H1 6920   5.574   9.534   4.496
 2226WAT     H2 6921   5.425   9.470   4.513
 2227WAT      O 6922   8.189   3.082   1.147
 2227WAT     H1 6923   8.127   3.152   1.112
 2227WAT     H2 6924   8.264   3.069   1.082
 2228WAT      O 6925   4.529   8.670   9.858
 2228WAT     H1 6926   4.573   8.583   9.878
 2228WAT     H2 6927   4.559   8.738   9.926
 2229WAT      O 6928   5.683   7.372   4.976
 2229WAT     H1 6929   5.732   7.331   4.899
 2229WAT     H2 6930   5.620   7.304   5.016
 2230WAT      O 6931   4.901   5.626   8.792
 2230WAT     H1 6932   4.858   5.553   8.845
 2230WAT     H2 6933   4.855   5.634   8.704
 2231WAT      O 6934   7.621   4.436   9.771
 2231WAT     H1 6935   7.541   4.438   9.831
 2231WAT     H2 6936   7.687   4.504   9.803
 2232WAT      O 6937   8.382   9.055   4.541
 2232WAT     H1 6938   8.458   8.990   4.541
 2232WAT     H2 6939   8.339   9.055   4.632
 2233WAT      O 6940   1.927   6.969   2.466
 2233WAT     H1 6941   1.949   6.956   2.563
 2233WAT     H2 6942   1.907   6.880   2.425
 2234WAT      O 6943   4.218   0.340   6.959
 2234WAT     H1 6944   4.243   0.271   7.027
 2234WAT     H2 6945   4.157   0.299   6.891
 2235WAT      O 6946   9.457   1.966   9.218
 2235WAT     H1 6947   9.486   2.018   9.298
 2235WAT     H2 6948   9.535   1.915   9.181
 2236WAT      O 6949   2.288   2.895   4.153
 2236WAT     H1 6950   2.320   2.936   4.238
 2236WAT     H2 6951   2.188   2.896   4.151
 2237WAT      O 6952   2.842   1.993   8.791
 2237WAT     H1 6953   2.768   1.927   8.793
 2237WAT     H2 6954   2.900   1.982   8.872
 2238WAT      O 6955   4.916   8.853   3.354
 2238WAT     H1 6956   4.962   8.937   3.325
 2238WAT     H2 6957   4.883   8.863   3.447
 2239WAT      O 6958   7.897   5.937   4.607
 2239WAT     H1 6959   7.870   5.876   4.533
 2239WAT     H2 6960   7.935   6.021   4.569
 2240WAT      O 6961   1.028   5.623   1.748
 2240WAT     H1 6962   0.953   5.646   1.685
 2240WAT     H2 6963   1.103   5.583   1.696
 2241WAT      O 6964   8.582   4.168   4.781
 2241WAT     H1 6965   8.529   4.252   4.793
 2241WAT     H2 6966   8.680   4.189   4.786
 2242WAT      O 6967   9.452   2.947   3.178
 2242WAT     H1 6968   9.424   2.867   3.124
 2242WAT     H2 6969   9.371   2.991   3.217
 2243WAT      O 6970   6.351   6.250   8.495
 2243WAT     H1 6971   6.343   6.349   8.479
 2243WAT     H2 6972   6.370   6.234   8.592
 2244WAT      O 6973   8.148   3.232   5.467
 2244WAT     H1 6974   8.153   3.329   5.443
 2244WAT     H2 6975   8.093   3.221   5.549
 2245WAT      O 6976   9.082   5.091   6.767
 2245WAT     H1 6977   9.012   5.147   6.723
 2245WAT     H2 6978   9.097   5.125   6.860
 2246WAT      O 6979   0.950   1.904   0.669
 2246WAT     H1 6980   0.935   1.995   0.630
 2246WAT     H2 6981   0.875   1.882   0.732
 2247WAT      O 6982   3.645   7.619   0.202
 2247WAT     H1 6983   3.669   7.522   0.198
 2247WAT     H2 6984   3.582   7.641   0.128
 2248WAT      O 6985   3.639   5.670   3.759
 2248WAT     H1 6986   3.648   5.630   3.668
 2248WAT     H2 6987   3.726   5.712   3.785
 2249WAT      O 6988   0.965   0.515   3.178
 2249WAT     H1 6989   0.999   0.451   3.110
 2249WAT     H2 6990   1.031   0.590   3.190
 2250WAT      O 6991   5.816   1.173   5.334
 2250WAT     H1 6992   5.800   1.214   5.423
 2250WAT     H2 6993   5.803   1.074   5.340
 2251WAT      O 6994   8.249   7.211   7.362
 2251WAT     H1 6995   8.261   7.126   7.413
 2251WAT     H2 6996   8.329   7.270   7.376
 2252WAT      O 6997   8.842   2.348   7.851
 2252WAT     H1 6998   8.874   2.253   7.856
 2252WAT     H2 6999   8.856   2.393   7.939
 2253WAT      O 7000   8.487   1.569   9.277
 2253WAT     H1 7001   8.494   1.478   9.236
 2253WAT     H2 7002   8.419   1.568   9.350
 2254WAT      O 7003   2.501   8.471   3.955
 2254WAT     H1 7004   2.424   8.522   3.993
 2254WAT     H2 7005   2.537   8.521   3.876
 2255WAT      O 7006   9.379   8.088   4.976
 2255WAT     H1 7007   9.349   8.182   4.964
 2255WAT     H2 7008   9.410   8.075   5.070
 2256WAT      O 7009   6.418   3.782   7.997
 2256WAT     H1 7010   6.332   3.823   7.967
 2256WAT     H2 7011   6.495   3.835   7.961
 2257WAT      O 7012   4.179   5.815   5.177
 2257WAT     H1 7013   4.189   5.860   5.266
 2257WAT     H2 7014   4.253   5.844   5.117
 2258WAT      O 7015   8.125   8.360   7.138
 2258WAT     H1 7016   8.039   8.346   7.089
 2258WAT     H2 7017   8.111   8.427   7.211
 2259WAT      O 7018   2.669   5.404   9.826
 2259WAT     H1 7019   2.601   5.477   9.837
 2259WAT     H2 7020   2.625   5.315   9.838
 2260WAT      O 7021   5.904   4.907   1.432
 2260WAT     H1 7022   5.907   4.877   1.337
 2260WAT     H2 7023   5.941   5.000   1.439
 2261WAT      O 7024   9.736   7.631   8.524
 2261WAT     H1 7025   9.699   7.655   8.434
 2261WAT     H2 7026   9.718   7.534   8.542
 2262WAT      O 7027   7.270   6.294   7.897
 2262WAT     H1 7028   7.323   6.377   7.910
 2262WAT     H2 7029   7.326   6.214   7.919
 2263WAT      O 7030   6.890   8.497   4.240
 2263WAT     H1 7031   6.816   8.431   4.223
 2263WAT     H2 7032   6.900   8.512   4.338
 2264WAT      O 7033   1.169   5.826   4.075
 2264WAT     H1 7034   1.142   5.770   4.153
 2264WAT     H2 7035   1.266   5.811   4.056
 2265WAT      O 7036   1.707   9.206   3.393
 2265WAT     H1 7037   1.701   9.137   3.466
 2265WAT     H2 7038   1.634   9.191   3.327
 2266WAT      O 7039   7.178   5.176   8.464
 2266WAT     H1 7040   7.149   5.119   8.541
 2266WAT     H2 7041   7.098   5.203   8.410
 2267WAT      O 7042   8.426   7.231   2.791
 2267WAT     H1 7043   8.496   7.160   2.797
 2267WAT     H2 7044   8.377   7.237   2.878
 2268WAT      O 7045   0.715   0.867   9.819
 2268WAT     H1 7046   0.749   0.958   9.794
 2268WAT     H2 7047   0.670   0.826   9.740
 2269WAT      O 7048   9.128   5.585   9.674
 2269WAT     H1 7049   9.164   5.493   9.657
 2269WAT     H2 7050   9.187   5.632   9.739
 2270WAT      O 7051   1.712   9.597   0.757
 2270WAT     H1 7052   1.659   9.613   0.674
 2270WAT     H2 7053   1.654   9.613   0.837
 2271WAT      O 7054   3.380   9.074   2.790
 2271WAT     H1 7055   3.335   9.079   2.701
 2271WAT     H2 7056   3.317   9.105   2.862
 2272WAT      O 7057   1.324   1.411   8.446
 2272WAT     H1 7058   1.244   1.447   8.493
 2272WAT     H2 7059   1.344   1.468   8.366
 2273WAT      O 7060   4.444   1.513   4.234
 2273WAT     H1 7061   4.452   1.610   4.212
 2273WAT     H2 7062   4.379   1.470   4.171
 2274WAT      O 7063   3.126   6.865   3.061
 2274WAT     H1 7064   3.209   6.837   3.109
 2274WAT     H2 7065   3.047   6.850   3.120
 2275WAT      O 7066   7.808   3.383   3.790
 2275WAT     H1 7067   7.782   3.405   3.696
 2275WAT     H2 7068   7.905   3.403   3.803
 2276WAT      O 7069   0.263   7.377   7.493
 2276WAT     H1 7070   0.294   7.371   7.587
 2276WAT     H2 7071   0.163   7.385   7.491
 2277WAT      O 7072   3.200   7.767   2.717
 2277WAT     H1 7073   3.294   7.792   2.694
 2277WAT     H2 7074   3.139   7.799   2.644
 2278WAT      O 7075   3.227   5.895   8.064
 2278WAT     H1 7076   3.131   5.900   8.090
 2278WAT     H2 7077   3.257   5.985   8.032
 2279WAT      O 7078   2.137   3.769   3.430
 2279WAT     H1 7079   2.043   3.794   3.452
 2279WAT     H2 7080   2.195   3.786   3.509
 2280WAT      O 7081   5.197   9.498   4.369
 2280WAT     H1 7082   5.244   9.421   4.412
 2280WAT     H2 7083   5.147   9.549   4.439
 2281WAT      O 7084   6.748   3.889   1.911
 2281WAT     H1 7085   6.820   3.863   1.975
 2281WAT     H2 7086   6.692   3.961   1.951
 2282WAT      O 7087   6.490   5.308   9.819
 2282WAT     H1 7088   6.481   5.396   9.865
 2282WAT     H2 7089   6.400   5.265   9.811
 2283WAT      O 7090   8.681   6.251   1.187
 2283WAT     H1 7091   8.761   6.302   1.154
 2283WAT     H2 7092   8.675   6.258   1.286
 2284WAT      O 7093   3.931   6.366   1.117
 2284WAT     H1 7094   4.029   6.350   1.104
 2284WAT     H2 7095   3.916   6.457   1.155
 2285WAT      O 7096   1.278   0.490   6.271
 2285WAT     H1 7097   1.301   0.530   6.360
 2285WAT     H2 7098   1.353   0.432   6.240
 2286WAT      O 7099   0.462   7.215   0.636
 2286WAT     H1 7100   0.444   7.242   0.541
 2286WAT     H2 7101   0.545   7.260   0.668
 2287WAT      O 7102   2.039   7.665   0.865
 2287WAT     H1 7103   2.002   7.698   0.952
 2287WAT     H2 7104   2.059   7.567   0.872
 2288WAT      O 7105   1.188   7.517   8.231
 2288WAT     H1 7106   1.119   7.506   8.302
 2288WAT     H2 7107   1.254   7.587   8.257
 2289WAT      O 7108   5.100   0.696   9.449
 2289WAT     H1 7109   5.178   0.635   9.431
 2289WAT     H2 7110   5.018   0.641   9.464
 2290WAT      O 7111   1.893   6.875   8.531
 2290WAT     H1 7112   1.894   6.881   8.630
 2290WAT     H2 7113   1.806   6.910   8.496
 2291WAT      O 7114   9.043   1.513   1.466
 2291WAT     H1 7115   9.008   1.463   1.387
 2291WAT     H2 7116   9.085   1.599   1.436
 2292WAT      O 7117   9.607   1.055   1.835
 2292WAT     H1 7118   9.522   1.105   1.818
 2292WAT     H2 7119   9.606   0.969   1.785
 2293WAT      O 7120   4.351   8.455   5.371
 2293WAT     H1 7121   4.333   8.552   5.388
 2293WAT     H2 7122   4.450   8.439   5.368
 2294WAT      O 7123   0.687   3.238   8.864
 2294WAT     H1 7124   0.662   3.300   8.938
 2294WAT     H2 7125   0.776   3.196   8.884
 2295WAT      O 7126   0.557   7.678   8.429
 2295WAT     H1 7127   0.507   7.615   8.489
 2295WAT     H2 7128   0.530   7.772   8.449
 2296WAT      O 7129   7.365   0.347   0.738
 2296WAT     H1 7130   7.377   0.443   0.761
 2296WAT     H2 7131   7.439   0.317   0.678
 2297WAT      O 7132   4.091   5.535   4.004
 2297WAT     H1 7133   4.119   5.529   3.909
 2297WAT     H2 7134   4.167   5.569   4.060
 2298WAT      O 7135   2.115   0.148   5.018
 2298WAT     H1 7136   2.165   0.066   5.046
 2298WAT     H2 7137   2.046   0.124   4.950
 2299WAT      O 7138   7.009   0.645   9.551
 2299WAT     H1 7139   6.932   0.708   9.547
 2299WAT     H2 7140   7.083   0.685   9.605
 2300WAT      O 7141   3.550   3.231   1.165
 2300WAT     H1 7142   3.565   3.313   1.109
 2300WAT     H2 7143   3.544   3.151   1.105
 2301WAT      O 7144   2.721   3.892   1.398
 2301WAT     H1 7145   2.727   3.898   1.498
 2301WAT     H2 7146   2.806   3.854   1.362
 2302WAT      O 7147   8.830   9.228   4.679
 2302WAT     H1 7148   8.894   9.303   4.695
 2302WAT     H2 7149   8.738   9.265   4.669
 2303WAT      O 7150   3.333   5.946   5.680
 2303WAT     H1 7151   3.386   5.876   5.729
 2303WAT     H2 7152   3.366   6.037   5.706
 2304WAT      O 7153   1.665   9.711   2.751
 2304WAT     H1 7154   1.596   9.691   2.682
 2304WAT     H2 7155   1.749   9.742   2.706
 2305WAT      O 7156   4.659   8.917   0.415
 2305WAT     H1 7157   4.670   8.904   0.514
 2305WAT     H2 7158   4.747   8.943   0.375
 2306WAT      O 7159   9.759   6.481   1.404
 2306WAT     H1 7160   9.770   6.480   1.503
 2306WAT     H2 7161   9.668   6.446   1.381
 2307WAT      O 7162   3.390   1.541   1.542
 2307WAT     H1 7163   3.366   1.444   1.543
 2307WAT     H2 7164   3.467   1.556   1.604
 2308WAT      O 7165   7.929   7.977   3.567
 2308WAT     H1 7166   7.930   7.895   3.625
 2308WAT     H2 7167   8.020   7.991   3.528
 2309WAT      O 7168   7.795   2.591   2.452
 2309WAT     H1 7169   7.711   2.539   2.467
 2309WAT     H2 7170   7.872   2.528   2.438
 2310WAT      O 7171   9.860   7.855   7.520
 2310WAT     H1 7172   9.940   7.913   7.531
 2310WAT     H2 7173   9.847   7.801   7.603
 2311WAT      O 7174   0.762   4.400   6.490
 2311WAT     H1 7175   0.824   4.471   6.454
 2311WAT     H2 7176   0.675   4.442   6.515
 2312WAT      O 7177   2.832   0.146   5.042
 2312WAT     H1 7178   2.781   0.061   5.053
 2312WAT     H2 7179   2.923   0.136   5.083
 2313WAT      O 7180   0.193   0.964   2.636
 2313WAT     H1 7181   0.114   0.959   2.575
 2313WAT     H2 7182   0.185   1.046   2.693
 2314WAT      O 7183   0.692   3.606   1.678
 2314WAT     H1 7184   0.751   3.530   1.650
 2314WAT     H2 7185   0.735   3.655   1.754
 2315WAT      O 7186   4.674   5.040   8.197
 2315WAT     H1 7187   4.681   4.941   8.181
 2315WAT     H2 7188   4.594   5.058   8.254
 2316WAT      O 7189   8.230   8.552   9.734
 2316WAT     H1 7190   8.289   8.612   9.787
 2316WAT     H2 7191   8.216   8.590   9.643
 2317WAT      O 7192   3.225   2.192   5.194
 2317WAT     H1 7193   3.287   2.217   5.120
 2317WAT     H2 7194   3.276   2.150   5.268
 2318WAT      O 7195   1.082   4.701   0.986
 2318WAT     H1 7196   1.078   4.744   1.076
 2318WAT     H2 7197   0.991   4.670   0.960
 2319WAT      O 7198   8.555   8.119   8.266
 2319WAT     H1 7199   8.614   8.122   8.346
 2319WAT     H2 7200   8.563   8.029   8.221
 2320WAT      O 7201   6.679   8.062   8.081
 2320WAT     H1 7202   6.748   8.082   8.012
 2320WAT     H2 7203   6.588   8.060   8.040
 2321WAT      O 7204   6.628   1.374   8.162
 2321WAT     H1 7205   6.634   1.375   8.062
 2321WAT     H2 7206   6.719   1.392   8.201
 2322WAT      O 7207   2.819   1.255   6.205
 2322WAT     H1 7208   2.766   1.229   6.125
 2322WAT     H2 7209   2.770   1.228   6.288
 2323WAT      O 7210   2.847   2.431   8.518
 2323WAT     H1 7211   2.866   2.371   8.595
 2323WAT     H2 7212   2.926   2.433   8.456
 2324WAT      O 7213   6.723   9.116   4.124
 2324WAT     H1 7214   6.816   9.146   4.146
 2324WAT     H2 7215   6.686   9.175   4.052
 2325WAT      O 7216   5.970   8.168   6.944
 2325WAT     H1 7217   5.911   8.227   6.888
 2325WAT     H2 7218   6.047   8.221   6.978
 2326WAT      O 7219   2.441   0.643   0.687
 2326WAT     H1 7220   2.474   0.549   0.679
 2326WAT     H2 7221   2.350   0.649   0.647
 2327WAT      O 7222   5.720   3.522   4.643
 2327WAT     H1 7223   5.676   3.484   4.724
 2327WAT     H2 7224   5.819   3.511   4.652
 2328WAT      O 7225   0.571   9.374   1.762
 2328WAT     H1 7226   0.491   9.432   1.773
 2328WAT     H2 7227   0.599   9.373   1.666
 2329WAT      O 7228   7.760   8.835   5.069
 2329WAT     H1 7229   7.781   8.826   5.166
 2329WAT     H2 7230   7.845   8.851   5.018
 2330WAT      O 7231   7.768   2.223   3.627
 2330WAT     H1 7232   7.784   2.124   3.618
 2330WAT     H2 7233   7.723   2.257   3.545
 2331WAT      O 7234   2.778   2.820   5.920
 2331WAT     H1 7235   2.846   2.785   5.857
 2331WAT     H2 7236   2.820   2.886   5.982
 2332WAT      O 7237   2.622   7.125   7.315
 2332WAT     H1 7238   2.714   7.098   7.285
 2332WAT     H2 7239   2.558   7.113   7.239
 2333WAT      O 7240   9.243   1.901   0.600
 2333WAT     H1 7241   9.154   1.921   0.640
 2333WAT     H2 7242   9.315   1.933   0.662
 2334WAT      O 7243   7.730   9.478   1.541
 2334WAT     H1 7244   7.812   9.422   1.532
 2334WAT     H2 7245   7.743   9.565   1.494
 2335WAT      O 7246   1.103   3.207   7.089
 2335WAT     H1 7247   1.138   3.149   7.163
 2335WAT     H2 7248   1.025   3.162   7.047
 2336WAT      O 7249   9.723   5.560   2.204
 2336WAT     H1 7250   9.662   5.640   2.202
 2336WAT     H2 7251   9.668   5.477   2.202
 2337WAT      O 7252   1.579   6.228   6.390
 2337WAT     H1 7253   1.541   6.316   6.416
 2337WAT     H2 7254   1.505   6.164   6.371
 2338WAT      O 7255   9.424   8.924   8.716
 2338WAT     H1 7256   9.409   9.023   8.723
 2338WAT     H2 7257   9.351   8.876   8.764
 2339WAT      O 7258   1.426   0.663   2.774
 2339WAT     H1 7259   1.453   0.631   2.865
 2339WAT     H2 7260   1.463   0.755   2.759
 2340WAT      O 7261   2.191   3.917   4.854
 2340WAT     H1 7262   2.287   3.900   4.829
 2340WAT     H2 7263   2.142   3.830   4.859
 2341WAT      O 7264   0.393   5.286   8.574
 2341WAT     H1 7265   0.353   5.285   8.482
 2341WAT     H2 7266   0.321   5.304   8.641
 2342WAT      O 7267   2.607   5.283   9.229
 2342WAT     H1 7268   2.623   5.376   9.196
 2342WAT     H2 7269   2.610   5.282   9.329
 2343WAT      O 7270   5.393   3.464   0.462
 2343WAT     H1 7271   5.381   3.504   0.371
 2343WAT     H2 7272   5.419   3.536   0.527
 2344WAT      O 7273   7.385   8.082   6.056
 2344WAT     H1 7274   7.441   8.046   6.130
 2344WAT     H2 7275   7.320   8.149   6.092
 2345WAT      O 7276   2.703   4.300   2.550
 2345WAT     H1 7277   2.723   4.321   2.646
 2345WAT     H2 7278   2.651   4.376   2.510
 2346WAT      O 7279   3.275   3.833   9.415
 2346WAT     H1 7280   3.299   3.780   9.334
 2346WAT     H2 7281   3.206   3.783   9.468
 2347WAT      O 7282   8.004   4.374   9.806
 2347WAT     H1 7283   8.061   4.422   9.739
 2347WAT     H2 7284   7.938   4.438   9.846
 2348WAT      O 7285   6.202   4.403   9.137
 2348WAT     H1 7286   6.209   4.320   9.081
 2348WAT     H2 7287   6.113   4.446   9.121
 2349WAT      O 7288   4.858   3.301   4.175
 2349WAT     H1 7289   4.860   3.212   4.129
 2349WAT     H2 7290   4.945   3.315   4.222
 2350WAT      O 7291   5.725   4.232   0.634
 2350WAT     H1 7292   5.754   4.137   0.624
 2350WAT     H2 7293   5.629   4.240   0.608
 2351WAT      O 7294   3.206   3.542   7.268
 2351WAT     H1 7295   3.269   3.584   7.332
 2351WAT     H2 7296   3.161   3.464   7.311
 2352WAT      O 7297   8.541   5.886   1.417
 2352WAT     H1 7298   8.460   5.914   1.365
 2352WAT     H2 7299   8.514   5.865   1.511
 2353WAT      O 7300   4.483   1.208   7.892
 2353WAT     H1 7301   4.475   1.152   7.975
 2353WAT     H2 7302   4.448   1.155   7.814
 2354WAT      O 7303   8.423   1.376   6.684
 2354WAT     H1 7304   8.414   1.345   6.779
 2354WAT     H2 7305   8.342   1.351   6.632
 2355WAT      O 7306   2.780   0.049   9.208
 2355WAT     H1 7307   2.713  -0.011   9.252
 2355WAT     H2 7308   2.856  -0.005   9.173
 2356WAT      O 7309   2.490   5.765   3.436
 2356WAT     H1 7310   2.554   5.690   3.420
 2356WAT     H2 7311   2.529   5.829   3.502
 2357WAT      O 7312   8.416   1.855   4.123
 2357WAT     H1 7313   8.406   1.782   4.190
 2357WAT     H2 7314   8.373   1.828   4.037
 2358WAT      O 7315   3.216   2.674   1.280
 2358WAT     H1 7316   3.255   2.765   1.296
 2358WAT     H2 7317   3.158   2.648   1.357
 2359WAT      O 7318   1.485   0.726   8.272
 2359WAT     H1 7319   1.512   0.710   8.367
 2359WAT     H2 7320   1.495   0.823   8.250
 2360WAT      O 7321   5.172   6.892   2.176
 2360WAT     H1 7322   5.197   6.798   2.199
 2360WAT     H2 7323   5.180   6.949   2.258
 2361WAT      O 7324   8.390   2.030   3.081
 2361WAT     H1 7325   8.390   1.965   3.157
 2361WAT     H2 7326   8.315   2.095   3.092
 2362WAT      O 7327   4.286   7.961   8.381
 2362WAT     H1 7328   4.382   7.948   8.404
 2362WAT     H2 7329   4.237   7.875   8.392
 2363WAT      O 7330   8.875   0.515   1.565
 2363WAT     H1 7331   8.779   0.505   1.537
 2363WAT     H2 7332   8.903   0.611   1.554
 2364WAT      O 7333   3.497   2.600   6.296
 2364WAT     H1 7334   3.583   2.561   6.263
 2364WAT     H2 7335   3.476   2.683   6.244
 2365WAT      O 7336   0.969   1.691   3.840
 2365WAT     H1 7337   1.062   1.684   3.878
 2365WAT     H2 7338   0.904   1.654   3.906
 2366WAT      O 7339   8.654   2.758   3.876
 2366WAT     H1 7340   8.574   2.818   3.876
 2366WAT     H2 7341   8.723   2.794   3.813
 2367WAT      O 7342   0.922   2.612   5.476
 2367WAT     H1 7343   0.894   2.698   5.434
 2367WAT     H2 7344   0.921   2.539   5.408
 2368WAT      O 7345   8.383   5.030   8.673
 2368WAT     H1 7346   8.440   5.083   8.611
 2368WAT     H2 7347   8.308   4.989   8.622
 2369WAT      O 7348   1.676   7.794   5.960
 2369WAT     H1 7349   1.595   7.774   6.015
 2369WAT     H2 7350   1.688   7.893   5.954
 2370WAT      O 7351   3.817   1.384   8.708
 2370WAT     H1 7352   3.759   1.339   8.776
 2370WAT     H2 7353   3.761   1.438   8.646
 2371WAT      O 7354   9.640   4.668   5.172
 2371WAT     H1 7355   9.658   4.667   5.073
 2371WAT     H2 7356   9.727   4.662   5.221
 2372WAT      O 7357   9.857   9.604   6.643
 2372WAT     H1 7358   9.836   9.694   6.605
 2372WAT     H2 7359   9.776   9.568   6.690
 2373WAT      O 7360   0.679   4.897   9.031
 2373WAT     H1 7361   0.770   4.911   9.071
 2373WAT     H2 7362   0.657   4.800   9.031
 2374WAT      O 7363   7.441   2.092   3.563
 2374WAT     H1 7364   7.348   2.129   3.568
 2374WAT     H2 7365   7.493   2.142   3.493
 2375WAT      O 7366   7.998   1.716   4.339
 2375WAT     H1 7367   7.932   1.791   4.329
 2375WAT     H2 7368   8.086   1.751   4.370
 2376WAT      O 7369   7.556   3.821   7.556
 2376WAT     H1 7370   7.604   3.906   7.576
 2376WAT     H2 7371   7.617   3.743   7.569
 2377WAT      O 7372   3.446   0.883   3.273
 2377WAT     H1 7373   3.441   0.790   3.307
 2377WAT     H2 7374   3.512   0.935   3.327
 2378WAT      O 7375   8.460   3.738   9.690
 2378WAT     H1 7376   8.545   3.691   9.668
 2378WAT     H2 7377   8.445   3.736   9.789
 2379WAT      O 7378   5.006   2.251   9.271
 2379WAT     H1 7379   4.979   2.221   9.363
 2379WAT     H2 7380   5.104   2.270   9.270
 2380WAT      O 7381   3.917   1.059   1.150
 2380WAT     H1 7382   3.935   1.116   1.070
 2380WAT     H2 7383   3.962   0.970   1.139
 2381WAT      O 7384   5.186   4.931   4.112
 2381WAT     H1 7385   5.273   4.897   4.077
 2381WAT     H2 7386   5.195   5.029   4.133
 2382WAT      O 7387   9.600   6.221   9.670
 2382WAT     H1 7388   9.556   6.177   9.592
 2382WAT     H2 7389   9.697   6.199   9.670
 2383WAT      O 7390   8.133   7.230   5.292
 2383WAT     H1 7391   8.191   7.153   5.263
 2383WAT     H2 7392   8.044   7.196   5.320
 2384WAT      O 7393   1.914   2.015   8.774
 2384WAT     H1 7394   2.000   2.035   8.728
 2384WAT     H2 7395   1.868   2.100   8.799
 2385WAT      O 7396   0.028   6.001   9.527
 2385WAT     H1 7397   0.014   5.939   9.449
 2385WAT     H2 7398   0.112   5.975   9.574
 2386WAT      O 7399   8.268   6.981   9.714
 2386WAT     H1 7400   8.264   6.886   9.685
 2386WAT     H2 7401   8.185   7.004   9.765
 2387WAT      O 7402   5.227   1.953   8.255
 2387WAT     H1 7403   5.209   1.872   8.199
 2387WAT     H2 7404   5.150   2.017   8.247
 2388WAT      O 7405   6.891   3.777   3.803
 2388WAT     H1 7406   6.928   3.692   3.764
 2388WAT     H2 7407   6.878   3.844   3.730
 2389WAT      O 7408   1.139   4.940   0.839
 2389WAT     H1 7409   1.106   4.847   0.855
 2389WAT     H2 7410   1.071   4.992   0.788
 2390WAT      O 7411   6.868   1.457   8.269
 2390WAT     H1 7412   6.960   1.425   8.248
 2390WAT     H2 7413   6.844   1.532   8.207
 2391WAT      O 7414   7.239   6.791   0.455
 2391WAT     H1 7415   7.235   6.879   0.406
 2391WAT     H2 7416   7.304   6.798   0.530
 2392WAT      O 7417   5.889   3.006   1.052
 2392WAT     H1 7418   5.825   2.968   1.118
 2392WAT     H2 7419   5.978   3.020   1.095
 2393WAT      O 7420   1.129   7.093   2.154
 2393WAT     H1 7421   1.098   7.167   2.213
 2393WAT     H2 7422   1.052   7.034   2.131
 2394WAT      O 7423   4.857   6.875   3.395
 2394WAT     H1 7424   4.909   6.867   3.480
 2394WAT     H2 7425   4.866   6.967   3.358
 2395WAT      O 7426   7.849   1.576   1.171
 2395WAT     H1 7427   7.913   1.528   1.231
 2395WAT     H2 7428   7.779   1.620   1.227
 2396WAT      O 7429   2.969   4.970   7.537
 2396WAT     H1 7430   2.879   4.987   7.498
 2396WAT     H2 7431   3.037   4.966   7.464
 2397WAT      O 7432   1.448   4.305   8.182
 2397WAT     H1 7433   1.409   4.327   8.093
 2397WAT     H2 7434   1.414   4.215   8.212
 2398WAT      O 7435   8.969   9.701   2.743
 2398WAT     H1 7436   8.910   9.780   2.727
 2398WAT     H2 7437   9.064   9.732   2.754
 2399WAT      O 7438   6.572   2.749   6.766
 2399WAT     H1 7439   6.576   2.846   6.741
 2399WAT     H2 7440   6.565   2.741   6.865
 2400WAT      O 7441   5.887   9.246   1.351
 2400WAT     H1 7442   5.907   9.312   1.423
 2400WAT     H2 7443   5.808   9.277   1.298
 2401WAT      O 7444   9.263   1.526   8.139
 2401WAT     H1 7445   9.276   1.522   8.040
 2401WAT     H2 7446   9.250   1.622   8.167
 2402WAT      O 7447   6.197   9.579   7.001
 2402WAT     H1 7448   6.181   9.505   6.936
 2402WAT     H2 7449   6.211   9.665   6.951
 2403WAT      O 7450   3.043   0.460   5.571
 2403WAT     H1 7451   2.986   0.499   5.643
 2403WAT     H2 7452   3.124   0.518   5.559
 2404WAT      O 7453   8.981   5.351   0.985
 2404WAT     H1 7454   8.930   5.432   0.954
 2404WAT     H2 7455   8.917   5.284   1.022
 2405WAT      O 7456   3.618   9.350   7.678
 2405WAT     H1 7457   3.689   9.377   7.612
 2405WAT     H2 7458   3.589   9.257   7.660
 2406WAT      O 7459   3.561   2.245   1.292
 2406WAT     H1 7460   3.659   2.266   1.290
 2406WAT     H2 7461   3.510   2.318   1.246
 2407WAT      O 7462   8.749   7.131   5.706
 2407WAT     H1 7463   8.722   7.095   5.795
 2407WAT     H2 7464   8.716   7.070   5.634
 2408WAT      O 7465   0.695   6.423   4.958
 2408WAT     H1 7466   0.718   6.475   5.040
 2408WAT     H2 7467   0.599   6.439   4.934
 2409WAT      O 7468   2.988   4.835   4.324
 2409WAT     H1 7469   2.991   4.738   4.300
 2409WAT     H2 7470   3.076   4.878   4.304
 2410WAT      O 7471   5.142   3.922   9.339
 2410WAT     H1 7472   5.094   3.918   9.427
 2410WAT     H2 7473   5.110   4.001   9.287
 2411WAT      O 7474   9.490   9.119   2.260
 2411WAT     H1 7475   9.470   9.211   2.296
 2411WAT     H2 7476   9.545   9.127   2.177
 2412WAT      O 7477   3.219   5.276   9.346
 2412WAT     H1 7478   3.159   5.355   9.333
 2412WAT     H2 7479   3.254   5.247   9.257
 2413WAT      O 7480   8.648   3.487   8.501
 2413WAT     H1 7481   8.668   3.393   8.471
 2413WAT     H2 7482   8.727   3.545   8.481
 2414WAT      O 7483   9.185   7.006   8.913
 2414WAT     H1 7484   9.090   7.034   8.897
 2414WAT     H2 7485   9.243   7.087   8.921
 2415WAT      O 7486   9.091   3.094   5.457
 2415WAT     H1 7487   8.998   3.074   5.428
 2415WAT     H2 7488   9.128   3.168   5.401
 2416WAT      O 7489   1.926   3.305   7.402
 2416WAT     H1 7490   1.925   3.315   7.302
 2416WAT     H2 7491   1.884   3.217   7.426
 2417WAT      O 7492   9.238   2.105   1.000
 2417WAT     H1 7493   9.139   2.097   1.004
 2417WAT     H2 7494   9.273   2.131   1.090
 2418WAT      O 7495   0.926   1.350   8.204
 2418WAT     H1 7496   0.966   1.394   8.284
 2418WAT     H2 7497   0.843   1.399   8.177
 2419WAT      O 7498   5.597   9.073   4.065
 2419WAT     H1 7499   5.599   8.984   4.111
 2419WAT     H2 7500   5.621   9.145   4.130
 2420WAT      O 7501   9.526   3.277   4.708
 2420WAT     H1 7502   9.504   3.366   4.747
 2420WAT     H2 7503   9.493   3.205   4.769
 2421WAT      O 7504   4.166   2.295   2.283
 2421WAT     H1 7505   4.183   2.383   2.238
 2421WAT     H2 7506   4.083   2.301   2.338
 2422WAT      O 7507   5.318   5.418   3.448
 2422WAT     H1 7508   5.388   5.388   3.513
 2422WAT     H2 7509   5.324   5.363   3.365
 2423WAT      O 7510   2.058   1.035   4.939
 2423WAT     H1 7511   1.993   1.111   4.944
 2423WAT     H2 7512   2.034   0.976   4.861
 2424WAT      O 7513   4.155   1.732   6.646
 2424WAT     H1 7514   4.248   1.698   6.640
 2424WAT     H2 7515   4.157   1.831   6.662
 2425WAT      O 7516   7.817   3.809   5.201
 2425WAT     H1 7517   7.916   3.810   5.213
 2425WAT     H2 7518   7.777   3.741   5.262
 2426WAT      O 7519   2.291   1.883   7.450
 2426WAT     H1 7520   2.312   1.877   7.352
 2426WAT     H2 7521   2.335   1.808   7.499
 2427WAT      O 7522   1.050   0.945   5.963
 2427WAT     H1 7523   1.018   0.930   5.870
 2427WAT     H2 7524   1.128   0.884   5.981
 2428WAT      O 7525   8.897   0.221   2.252
 2428WAT     H1 7526   8.806   0.208   2.214
 2428WAT     H2 7527   8.939   0.132   2.270
 2429WAT      O 7528   9.763   3.790   7.041
 2429WAT     H1 7529   9.775   3.695   7.010
 2429WAT     H2 7530   9.840   3.845   7.008
 2430WAT      O 7531   2.168   5.682   6.220
 2430WAT     H1 7532   2.125   5.752   6.163
 2430WAT     H2 7533   2.264   5.705   6.234
 2431WAT      O 7534   9.705   7.137   8.647
 2431WAT     H1 7535   9.774   7.070   8.620
 2431WAT     H2 7536   9.633   7.092   8.699
 2432WAT      O 7537   8.438   4.790   9.567
 2432WAT     H1 7538   8.517   4.828   9.520
 2432WAT     H2 7539   8.358   4.847   9.550
 2433WAT      O 7540   9.208   4.622   1.308
 2433WAT     H1 7541   9.171   4.568   1.232
 2433WAT     H2 7542   9.170   4.715   1.303
 2434WAT      O 7543   1.480   6.482   6.897
 2434WAT     H1 7544   1.484   6.426   6.980
 2434WAT     H2 7545   1.520   6.572   6.916
 2435WAT      O 7546   5.563   7.549   2.692
 2435WAT     H1 7547   5.612   7.617   2.637
 2435WAT     H2 7548   5.513   7.595   2.765
 2436WAT      O 7549   0.264   3.803   9.297
 2436WAT     H1 7550   0.169   3.832   9.288
 2436WAT     H2 7551   0.324   3.872   9.255
 2437WAT      O 7552   2.485   9.139   7.953
 2437WAT     H1 7553   2.470   9.237   7.967
 2437WAT     H2 7554   2.484   9.119   7.855
 2438WAT      O 7555   2.950   1.710   9.246
 2438WAT     H1 7556   2.901   1.797   9.245
 2438WAT     H2 7557   2.887   1.637   9.271
 2439WAT      O 7558   5.124   0.162   2.311
 2439WAT     H1 7559   5.034   0.194   2.283
 2439WAT     H2 7560   5.192   0.190   2.243
 2440WAT      O 7561   0.174   0.693   1.111
 2440WAT     H1 7562   0.137   0.784   1.130
 2440WAT     H2 7563   0.270   0.690   1.136
 2441WAT      O 7564   5.465   0.462   2.140
 2441WAT     H1 7565   5.561   0.434   2.141
 2441WAT     H2 7566   5.439   0.496   2.231
 2442WAT      O 7567   3.461   0.907   7.056
 2442WAT     H1 7568   3.398   0.858   6.996
 2442WAT     H2 7569   3.413   0.985   7.098
 2443WAT      O 7570   5.369   5.898   9.341
 2443WAT     H1 7571   5.412   5.894   9.251
 2443WAT     H2 7572   5.274   5.867   9.334
 2444WAT      O 7573   3.807   2.468   1.267
 2444WAT     H1 7574   3.742   2.525   1.317
 2444WAT     H2 7575   3.866   2.526   1.211
 2445WAT      O 7576   4.759   3.868   4.202
 2445WAT     H1 7577   4.697   3.934   4.160
 2445WAT     H2 7578   4.805   3.910   4.281
 2446WAT      O 7579   9.589   4.731   3.216
 2446WAT     H1 7580   9.640   4.810   3.182
 2446WAT     H2 7581   9.492   4.753   3.223
 2447WAT      O 7582   0.043   4.556   9.602
 2447WAT     H1 7583  -0.004   4.544   9.514
 2447WAT     H2 7584   0.069   4.466   9.637
 2448WAT      O 7585   8.179   5.952   2.030
 2448WAT     H1 7586   8.256   5.938   1.968
 2448WAT     H2 7587   8.156   6.050   2.031
 2449WAT      O 7588   7.441   2.465   9.361
 2449WAT     H1 7589   7.512   2.528   9.331
 2449WAT     H2 7590   7.435   2.389   9.297
 2450WAT      O 7591   2.862   5.059   0.724
 2450WAT     H1 7592   2.765   5.080   0.738
 2450WAT     H2 7593   2.871   4.971   0.677
 2451WAT      O 7594   0.315   7.065   6.808
 2451WAT     H1 7595   0.398   7.098   6.763
 2451WAT     H2 7596   0.338   7.030   6.899
 2452WAT      O 7597   2.476   2.031   4.299
 2452WAT     H1 7598   2.569   2.054   4.271
 2452WAT     H2 7599   2.424   1.999   4.220
 2453WAT      O 7600   5.557   2.606   7.018
 2453WAT     H1 7601   5.559   2.682   6.954
 2453WAT     H2 7602   5.635   2.613   7.081
 2454WAT      O 7603   4.094   4.327   5.889
 2454WAT     H1 7604   4.188   4.361   5.882
 2454WAT     H2 7605   4.031   4.405   5.893
 2455WAT      O 7606   5.320   1.646   7.864
 2455WAT     H1 7607   5.357   1.700   7.788
 2455WAT     H2 7608   5.393   1.596   7.909
 2456WAT      O 7609   4.671   2.248   4.348
 2456WAT     H1 7610   4.627   2.227   4.435
 2456WAT     H2 7611   4.653   2.342   4.322
 2457WAT      O 7612   3.296   5.842   7.266
 2457WAT     H1 7613   3.331   5.778   7.334
 2457WAT     H2 7614   3.306   5.936   7.300
 2458WAT      O 7615   8.739   1.840   8.180
 2458WAT     H1 7616   8.752   1.773   8.254
 2458WAT     H2 7617   8.680   1.914   8.212
 2459WAT      O 7618   2.016   2.829   3.792
 2459WAT     H1 7619   1.951   2.766   3.833
 2459WAT     H2 7620   2.109   2.797   3.808
 2460WAT      O 7621   6.382   8.172   8.217
 2460WAT     H1 7622   6.425   8.222   8.292
 2460WAT     H2 7623   6.365   8.235   8.141
 2461WAT      O 7624   9.659   4.798   9.233
 2461WAT     H1 7625   9.583   4.737   9.255
 2461WAT     H2 7626   9.623   4.885   9.201
 2462WAT      O 7627   4.445   2.730   3.830
 2462WAT     H1 7628   4.500   2.695   3.754
 2462WAT     H2 7629   4.494   2.714   3.916
 2463WAT      O 7630   9.332   5.558   4.755
 2463WAT     H1 7631   9.240   5.520   4.758
 2463WAT     H2 7632   9.347   5.618   4.834
 2464WAT      O 7633   3.588   5.627   2.816
 2464WAT     H1 7634   3.645   5.707   2.798
 2464WAT     H2 7635   3.644   5.544   2.809
 2465WAT      O 7636   7.633   9.453   7.865
 2465WAT     H1 7637   7.563   9.458   7.794
 2465WAT     H2 7638   7.657   9.545   7.896
 2466WAT      O 7639   0.020   8.747   7.272
 2466WAT     H1 7640  -0.013   8.787   7.358
 2466WAT     H2 7641   0.077   8.668   7.292
 2467WAT      O 7642   2.482   1.598   9.617
 2467WAT     H1 7643   2.402   1.586   9.676
 2467WAT     H2 7644   2.525   1.685   9.636
 2468WAT      O 7645   5.065   2.678   8.540
 2468WAT     H1 7646   5.074   2.676   8.440
 2468WAT     H2 7647   5.012   2.598   8.570
 2469WAT      O 7648   3.454   1.974   4.951
 2469WAT     H1 7649   3.527   1.985   4.883
 2469WAT     H2 7650   3.479   1.900   5.014
 2470WAT      O 7651   9.800   1.047   7.508
 2470WAT     H1 7652   9.710   1.005   7.519
 2470WAT     H2 7653   9.849   1.044   7.595
 2471WAT      O 7654   0.143   9.772   9.726
 2471WAT     H1 7655   0.179   9.721   9.648
 2471WAT     H2 7656   0.218   9.795   9.788
 2472WAT      O 7657   8.733   7.771   7.061
 2472WAT     H1 7658   8.824   7.795   7.095
 2472WAT     H2 7659   8.663   7.815   7.118
 2473WAT      O 7660   9.093   6.592   4.288
 2473WAT     H1 7661   9.010   6.537   4.279
 2473WAT     H2 7662   9.068   6.688   4.298
 2474WAT      O 7663   7.023   0.659   2.807
 2474WAT     H1 7664   7.017   0.600   2.887
 2474WAT     H2 7665   7.116   0.659   2.771
 2475WAT      O 7666   4.321   6.967   8.617
 2475WAT     H1 7667   4.284   7.060   8.619
 2475WAT     H2 7668   4.267   6.909   8.679
 2476WAT      O 7669   0.792   9.284   9.208
 2476WAT     H1 7670   0.800   9.292   9.307
 2476WAT     H2 7671   0.706   9.240   9.184
 2477WAT      O 7672   4.110   3.019   3.801
 2477WAT     H1 7673   4.067   2.933   3.775
 2477WAT     H2 7674   4.125   3.075   3.720
 2478WAT      O 7675   2.182   9.680   3.157
 2478WAT     H1 7676   2.135   9.767   3.172
 2478WAT     H2 7677   2.116   9.611   3.128
 2479WAT      O 7678   0.556   5.327   1.020
 2479WAT     H1 7679   0.483   5.323   0.952
 2479WAT     H2 7680   0.516   5.346   1.110
 2480WAT      O 7681   9.169   7.670   9.516
 2480WAT     H1 7682   9.121   7.590   9.552
 2480WAT     H2 7683   9.199   7.728   9.591
 2481WAT      O 7684   3.315   3.029   4.611
 2481WAT     H1 7685   3.225   3.000   4.579
 2481WAT     H2 7686   3.318   3.128   4.617
 2482WAT      O 7687   3.610   4.537   3.024
 2482WAT     H1 7688   3.625   4.449   3.069
 2482WAT     H2 7689   3.567   4.522   2.935
 2483WAT      O 7690   4.637   9.300   2.804
 2483WAT     H1 7691   4.562   9.305   2.870
 2483WAT     H2 7692   4.631   9.377   2.741
 2484WAT      O 7693   7.190   0.411   3.867
 2484WAT     H1 7694   7.100   0.423   3.910
 2484WAT     H2 7695   7.243   0.495   3.876
 2485WAT      O 7696   1.718   0.168   9.265
 2485WAT     H1 7697   1.636   0.110   9.269
 2485WAT     H2 7698   1.733   0.198   9.171
 2486WAT      O 7699   0.926   0.902   0.956
 2486WAT     H1 7700   1.005   0.961   0.973
 2486WAT     H2 7701   0.958   0.816   0.915
 2487WAT      O 7702   2.870   4.386   7.099
 2487WAT     H1 7703   2.833   4.459   7.041
 2487WAT     H2 7704   2.891   4.306   7.043
 2488WAT      O 7705   6.352   7.450   2.406
 2488WAT     H1 7706   6.371   7.388   2.482
 2488WAT     H2 7707   6.434   7.504   2.385
 2489WAT      O 7708   6.300   8.003   0.652
 2489WAT     H1 7709   6.369   7.996   0.580
 2489WAT     H2 7710   6.314   7.931   0.719
 2490WAT      O 7711   5.049   9.584   9.756
 2490WAT     H1 7712   4.985   9.614   9.827
 2490WAT     H2 7713   5.109   9.659   9.731
 2491WAT      O 7714   8.255   5.376   3.355
 2491WAT     H1 7715   8.279   5.472   3.343
 2491WAT     H2 7716   8.280   5.325   3.273
 2492WAT      O 7717   2.870   7.420   6.426
 2492WAT     H1 7718   2.809   7.498   6.439
 2492WAT     H2 7719   2.873   7.395   6.329
 2493WAT      O 7720   6.093   7.653   6.306
 2493WAT     H1 7721   6.003   7.622   6.336
 2493WAT     H2 7722   6.100   7.752   6.320
 2494WAT      O 7723   2.695   4.219   8.309
 2494WAT     H1 7724   2.710   4.138   8.365
 2494WAT     H2 7725   2.619   4.202   8.245
 2495WAT      O 7726   9.601   2.172   6.764
 2495WAT     H1 7727   9.522   2.112   6.779
 2495WAT     H2 7728   9.685   2.125   6.793
 2496WAT      O 7729   5.487   8.075   2.215
 2496WAT     H1 7730   5.562   8.130   2.254
 2496WAT     H2 7731   5.421   8.136   2.171
 2497WAT      O 7732   9.048   2.400   5.251
 2497WAT     H1 7733   9.011   2.491   5.269
 2497WAT     H2 7734   8.985   2.349   5.192
 2498WAT      O 7735   9.378   8.165   7.312
 2498WAT     H1 7736   9.318   8.103   7.260
 2498WAT     H2 7737   9.322   8.232   7.361
 2499WAT      O 7738   4.333   2.908   2.134
 2499WAT     H1 7739   4.258   2.889   2.071
 2499WAT     H2 7740   4.411   2.850   2.111
 2500WAT      O 7741   5.736   0.010   8.295
 2500WAT     H1 7742   5.804   0.061   8.242
 2500WAT     H2 7743   5.701  -0.066   8.242
 2501WAT      O 7744   0.614   9.147   0.764
 2501WAT     H1 7745   0.613   9.196   0.851
 2501WAT     H2 7746   0.708   9.126   0.739
 2502WAT      O 7747   3.559   1.287   8.016
 2502WAT     H1 7748   3.645   1.241   7.997
 2502WAT     H2 7749   3.488   1.219   8.036
 2503WAT      O 7750   1.708   4.067   0.931
 2503WAT     H1 7751   1.782   4.005   0.956
 2503WAT     H2 7752   1.741   4.161   0.933
 2504WAT      O 7753   4.643   8.499   0.746
 2504WAT     H1 7754   4.686   8.570   0.802
 2504WAT     H2 7755   4.543   8.507   0.752
 2505WAT      O 7756   7.847   6.449   5.718
 2505WAT     H1 7757   7.818   6.385   5.789
 2505WAT     H2 7758   7.792   6.434   5.636
 2506WAT      O 7759   7.094   4.124   3.223
 2506WAT     H1 7760   7.150   4.042   3.233
 2506WAT     H2 7761   7.146   4.195   3.175
 2507WAT      O 7762   7.409   0.893   9.079
 2507WAT     H1 7763   7.400   0.840   8.994
 2507WAT     H2 7764   7.328   0.951   9.090
 2508WAT      O 7765   4.418   4.316   9.378
 2508WAT     H1 7766   4.351   4.369   9.326
 2508WAT     H2 7767   4.422   4.223   9.342
 2509WAT      O 7768   4.086   9.211   7.977
 2509WAT     H1 7769   4.046   9.143   7.916
 2509WAT     H2 7770   4.182   9.188   7.993
 2510WAT      O 7771   5.592   0.579   8.277
 2510WAT     H1 7772   5.612   0.544   8.186
 2510WAT     H2 7773   5.602   0.504   8.344
 2511WAT      O 7774   7.509   7.138   2.412
 2511WAT     H1 7775   7.560   7.193   2.478
 2511WAT     H2 7776   7.527   7.171   2.320
 2512WAT      O 7777   6.919   1.058   8.864
 2512WAT     H1 7778   6.865   1.027   8.942
 2512WAT     H2 7779   7.001   1.001   8.855
 2513WAT      O 7780   1.037   8.072   7.307
 2513WAT     H1 7781   1.066   8.022   7.389
 2513WAT     H2 7782   0.947   8.113   7.323
 2514WAT      O 7783   7.721   9.226   8.327
 2514WAT     H1 7784   7.643   9.180   8.371
 2514WAT     H2 7785   7.705   9.230   8.228
 2515WAT      O 7786   3.157   7.597   2.483
 2515WAT     H1 7787   3.226   7.555   2.542
 2515WAT     H2 7788   3.074   7.615   2.537
 2516WAT      O 7789   3.211   6.311   6.678
 2516WAT     H1 7790   3.247   6.225   6.712
 2516WAT     H2 7791   3.126   6.294   6.627
 2517WAT      O 7792   4.398   9.021   5.454
 2517WAT     H1 7793   4.377   9.069   5.539
 2517WAT     H2 7794   4.315   9.017   5.397
 2518WAT      O 7795   5.643   6.194   8.949
 2518WAT     H1 7796   5.691   6.108   8.965
 2518WAT     H2 7797   5.544   6.179   8.956
 2519WAT      O 7798   0.752   7.178   9.126
 2519WAT     H1 7799   0.761   7.260   9.070
 2519WAT     H2 7800   0.686   7.194   9.199
 2520WAT      O 7801   1.854   6.052   7.802
 2520WAT     H1 7802   1.860   6.045   7.702
 2520WAT     H2 7803   1.932   6.104   7.837
 2521WAT      O 7804   6.539   1.334   3.673
 2521WAT     H1 7805   6.586   1.250   3.698
 2521WAT     H2 7806   6.606   1.402   3.643
 2522WAT      O 7807   7.029   8.818   3.954
 2522WAT     H1 7808   7.036   8.846   4.050
 2522WAT     H2 7809   7.096   8.747   3.934
 2523WAT      O 7810   0.118   1.198   5.079
 2523WAT     H1 7811   0.067   1.177   4.996
 2523WAT     H2 7812   0.187   1.267   5.059
 2524WAT      O 7813   5.190   3.419   2.324
 2524WAT     H1 7814   5.272   3.426   2.267
 2524WAT     H2 7815   5.149   3.510   2.334
 2525WAT      O 7816   4.327   6.955   3.593
 2525WAT     H1 7817   4.252   6.960   3.659
 2525WAT     H2 7818   4.408   7.000   3.631
 2526WAT      O 7819   2.974   2.312   0.090
 2526WAT     H1 7820   2.916   2.245   0.044
 2526WAT     H2 7821   3.015   2.271   0.171
 2527WAT      O 7822   3.796   6.386   6.446
 2527WAT     H1 7823   3.775   6.469   6.497
 2527WAT     H2 7824   3.728   6.372   6.374
 2528WAT      O 7825   6.726   4.993   3.135
 2528WAT     H1 7826   6.793   4.953   3.072
 2528WAT     H2 7827   6.729   5.093   3.127
 2529WAT      O 7828   1.923   1.931   9.768
 2529WAT     H1 7829   1.840   1.934   9.825
 2529WAT     H2 7830   2.004   1.931   9.827
 2530WAT      O 7831   5.763   6.316   3.463
 2530WAT     H1 7832   5.724   6.323   3.555
 2530WAT     H2 7833   5.859   6.342   3.465
 2531WAT      O 7834   5.719   7.212   5.584
 2531WAT     H1 7835   5.625   7.245   5.586
 2531WAT     H2 7836   5.756   7.211   5.677
 2532WAT      O 7837   8.902   2.560   2.647
 2532WAT     H1 7838   8.866   2.653   2.657
 2532WAT     H2 7839   8.941   2.530   2.734
 2533WAT      O 7840   4.088   3.191   3.613
 2533WAT     H1 7841   4.050   3.283   3.621
 2533WAT     H2 7842   4.068   3.154   3.523
 2534WAT      O 7843   7.441   9.206   2.200
 2534WAT     H1 7844   7.367   9.235   2.260
 2534WAT     H2 7845   7.408   9.138   2.136
 2535WAT      O 7846   8.654   8.925   5.233
 2535WAT     H1 7847   8.572   8.898   5.183
 2535WAT     H2 7848   8.629   8.983   5.311
 2536WAT      O 7849   1.405   8.005   0.867
 2536WAT     H1 7850   1.488   8.059   0.879
 2536WAT     H2 7851   1.330   8.047   0.918
 2537WAT      O 7852   8.669   5.541   6.122
 2537WAT     H1 7853   8.709   5.619   6.171
 2537WAT     H2 7854   8.664   5.562   6.024
 2538WAT      O 7855   0.198   0.326   7.607
 2538WAT     H1 7856   0.249   0.307   7.523
 2538WAT     H2 7857   0.130   0.397   7.589
 2539WAT      O 7858   1.941   0.756   5.614
 2539WAT     H1 7859   1.966   0.665   5.646
 2539WAT     H2 7860   2.022   0.802   5.578
 2540WAT      O 7861   6.728   1.304   4.211
 2540WAT     H1 7862   6.717   1.218   4.262
 2540WAT     H2 7863   6.746   1.379   4.275
 2541WAT      O 7864   5.579   0.693   3.266
 2541WAT     H1 7865   5.629   0.775   3.237
 2541WAT     H2 7866   5.603   0.617   3.206
 2542WAT      O 7867   8.429   5.143   4.160
 2542WAT     H1 7868   8.477   5.223   4.197
 2542WAT     H2 7869   8.456   5.129   4.064
 2543WAT      O 7870   0.645   7.211   5.261
 2543WAT     H1 7871   0.721   7.147   5.247
 2543WAT     H2 7872   0.673   7.303   5.234
 2544WAT      O 7873   9.016   8.728   6.261
 2544WAT     H1 7874   8.968   8.804   6.305
 2544WAT     H2 7875   8.949   8.658   6.235
 2545WAT      O 7876   2.315   0.297   5.486
 2545WAT     H1 7877   2.235   0.355   5.473
 2545WAT     H2 7878   2.292   0.220   5.545
 2546WAT      O 7879   1.360   2.051   8.567
 2546WAT     H1 7880   1.455   2.038   8.540
 2546WAT     H2 7881   1.328   2.140   8.536
 2547WAT      O 7882   0.877   3.042   9.750
 2547WAT     H1 7883   0.832   3.093   9.824
 2547WAT     H2 7884   0.913   2.956   9.786
 2548WAT      O 7885   8.439   2.965   7.746
 2548WAT     H1 7886   8.451   2.950   7.648
 2548WAT     H2 7887   8.375   2.897   7.782
 2549WAT      O 7888   3.040   2.041   9.032
 2549WAT     H1 7889   3.088   2.024   9.118
 2549WAT     H2 7890   3.033   2.140   9.016
 2550WAT      O 7891   2.120   4.074   4.512
 2550WAT     H1 7892   2.168   3.987   4.504
 2550WAT     H2 7893   2.167   4.132   4.578
 2551WAT      O 7894   4.120   1.087   2.731
 2551WAT     H1 7895   4.109   1.144   2.650
 2551WAT     H2 7896   4.075   1.131   2.809
 2552WAT      O 7897   3.250   1.746   6.478
 2552WAT     H1 7898   3.320   1.814   6.499
 2552WAT     H2 7899   3.210   1.713   6.563
 2553WAT      O 7900   1.020   1.485   2.905
 2553WAT     H1 7901   1.075   1.487   2.989
 2553WAT     H2 7902   1.017   1.391   2.870
 2554WAT      O 7903   9.382   8.271   2.732
 2554WAT     H1 7904   9.427   8.356   2.707
 2554WAT     H2 7905   9.413   8.198   2.672
 2555WAT      O 7906   0.834   8.672   7.439
 2555WAT     H1 7907   0.867   8.579   7.457
 2555WAT     H2 7908   0.910   8.730   7.411
 2556WAT      O 7909   5.084   6.646   7.175
 2556WAT     H1 7910   5.002   6.702   7.157
 2556WAT     H2 7911   5.142   6.646   7.093
 2557WAT      O 7912   6.642   0.964   1.490
 2557WAT     H1 7913   6.591   1.017   1.422
 2557WAT     H2 7914   6.733   1.004   1.502
 2558WAT      O 7915   5.306   3.053   6.059
 2558WAT     H1 7916   5.274   2.959   6.061
 2558WAT     H2 7917   5.340   3.078   6.150
 2559WAT      O 7918   1.813   2.112   2.091
 2559WAT     H1 7919   1.897   2.166   2.075
 2559WAT     H2 7920   1.838   2.020   2.120
 2560WAT      O 7921   7.069   5.541   1.414
 2560WAT     H1 7922   7.142   5.491   1.367
 2560WAT     H2 7923   6.981   5.499   1.393
 2561WAT      O 7924   1.310   8.853   0.080
 2561WAT     H1 7925   1.265   8.767   0.056
 2561WAT     H2 7926   1.388   8.835   0.139
 2562WAT      O 7927   8.177   4.435   2.972
 2562WAT     H1 7928   8.233   4.397   3.045
 2562WAT     H2 7929   8.161   4.532   2.990
 2563WAT      O 7930   0.766   5.968   6.075
 2563WAT     H1 7931   0.750   6.063   6.100
 2563WAT     H2 7932   0.754   5.910   6.157
 2564WAT      O 7933   0.868   7.758   2.303
 2564WAT     H1 7934   0.911   7.759   2.393
 2564WAT     H2 7935   0.809   7.678   2.295
 2565WAT      O 7936   4.678   2.693   5.630
 2565WAT     H1 7937   4.714   2.624   5.693
 2565WAT     H2 7938   4.736   2.774   5.632
 2566WAT      O 7939   6.184   9.104   2.279
 2566WAT     H1 7940   6.204   9.192   2.321
 2566WAT     H2 7941   6.151   9.118   2.185
 2567WAT      O 7942   0.511   4.843   1.531
 2567WAT     H1 7943   0.563   4.872   1.450
 2567WAT     H2 7944   0.563   4.864   1.613
 2568WAT      O 7945   9.251   5.826   3.726
 2568WAT     H1 7946   9.221   5.852   3.634
 2568WAT     H2 7947   9.291   5.735   3.723
 2569WAT      O 7948   8.627   0.165   2.066
 2569WAT     H1 7949   8.652   0.075   2.032
 2569WAT     H2 7950   8.609   0.161   2.164
 2570WAT      O 7951   8.546   7.554   3.233
 2570WAT     H1 7952   8.464   7.506   3.265
 2570WAT     H2 7953   8.623   7.490   3.231
 2571WAT      O 7954   7.549   1.401   5.939
 2571WAT     H1 7955   7.500   1.317   5.916
 2571WAT     H2 7956   7.490   1.480   5.922
 2572WAT      O 7957   6.427   5.403   4.836
 2572WAT     H1 7958   6.523   5.390   4.858
 2572WAT     H2 7959   6.374   5.417   4.920
 2573WAT      O 7960   5.337   5.242   1.019
 2573WAT     H1 7961   5.293   5.200   0.940
 2573WAT     H2 7962   5.287   5.325   1.044
 2574WAT      O 7963   3.117   0.713   1.819
 2574WAT     H1 7964   3.128   0.796   1.763
 2574WAT     H2 7965   3.026   0.711   1.859
 2575WAT      O 7966   0.043   0.443   9.750
 2575WAT     H1 7967   0.071   0.412   9.660
 2575WAT     H2 7968   0.052   0.367   9.815
 2576WAT      O 7969   2.693   1.701   0.964
 2576WAT     H1 7970   2.783   1.743   0.949
 2576WAT     H2 7971   2.671   1.642   0.887
 2577WAT      O 7972   5.936   8.343   3.085
 2577WAT     H1 7973   6.007   8.390   3.032
 2577WAT     H2 7974   5.852   8.396   3.082
 2578WAT      O 7975   1.065   3.088   7.867
 2578WAT     H1 7976   1.073   2.988   7.858
 2578WAT     H2 7977   0.979   3.118   7.826
 2579WAT      O 7978   0.631   6.621   8.289
 2579WAT     H1 7979   0.668   6.529   8.305
 2579WAT     H2 7980   0.558   6.640   8.355
 2580WAT      O 7981   1.814   4.323   6.002
 2580WAT     H1 7982   1.897   4.368   5.969
 2580WAT     H2 7983   1.784   4.256   5.934
 2581WAT      O 7984   6.459   3.330   1.786
 2581WAT     H1 7985   6.497   3.320   1.878
 2581WAT     H2 7986   6.426   3.424   1.773
 2582WAT      O 7987   4.259   3.735   9.109
 2582WAT     H1 7988   4.176   3.680   9.116
 2582WAT     H2 7989   4.261   3.803   9.181
 2583WAT      O 7990   3.822   2.855   3.963
 2583WAT     H1 7991   3.911   2.823   3.996
 2583WAT     H2 7992   3.815   2.954   3.977
 2584WAT      O 7993   9.036   3.724   3.971
 2584WAT     H1 7994   9.076   3.732   3.880
 2584WAT     H2 7995   8.939   3.701   3.964
 2585WAT      O 7996   5.070   2.747   2.355
 2585WAT     H1 7997   5.092   2.706   2.267
 2585WAT     H2 7998   5.077   2.846   2.350
 2586WAT      O 7999   7.728   7.684   2.206
 2586WAT     H1 8000   7.690   7.658   2.117
 2586WAT     H2 8001   7.793   7.759   2.193
 2587WAT      O 8002   4.766   1.210   5.639
 2587WAT     H1 8003   4.807   1.193   5.549
 2587WAT     H2 8004   4.795   1.299   5.673
 2588WAT      O 8005   8.582   9.060   5.969
 2588WAT     H1 8006   8.654   9.102   5.914
 2588WAT     H2 8007   8.620   9.024   6.054
 2589WAT      O 8008   5.522   8.602   8.589
 2589WAT     H1 8009   5.464   8.648   8.521
 2589WAT     H2 8010   5.472   8.526   8.629
 2590WAT      O 8011   6.361   1.226   3.479
 2590WAT     H1 8012   6.400   1.312   3.513
 2590WAT     H2 8013   6.407   1.149   3.523
 2591WAT      O 8014   5.032   9.677   0.453
 2591WAT     H1 8015   5.124   9.639   0.467
 2591WAT     H2 8016   4.973   9.606   0.414
 2592WAT      O 8017   3.157   4.292   2.596
 2592WAT     H1 8018   3.120   4.326   2.682
 2592WAT     H2 8019   3.256   4.287   2.601
 2593WAT      O 8020   0.193   5.773   8.500
 2593WAT     H1 8021   0.237   5.693   8.540
 2593WAT     H2 8022   0.260   5.825   8.446
 2594WAT      O 8023   6.772   2.971   5.558
 2594WAT     H1 8024   6.855   2.990   5.506
 2594WAT     H2 8025   6.770   3.029   5.640
 2595WAT      O 8026   5.175   9.399   9.876
 2595WAT     H1 8027   5.132   9.483   9.844
 2595WAT     H2 8028   5.226   9.357   9.801
 2596WAT      O 8029   0.233   6.683   7.360
 2596WAT     H1 8030   0.140   6.651   7.343
 2596WAT     H2 8031   0.257   6.667   7.456
 2597WAT      O 8032   3.757   5.732   0.822
 2597WAT     H1 8033   3.833   5.694   0.875
 2597WAT     H2 8034   3.791   5.769   0.736
 2598WAT      O 8035   4.346   3.407   3.404
 2598WAT     H1 8036   4.379   3.472   3.335
 2598WAT     H2 8037   4.274   3.451   3.459
 2599WAT      O 8038   2.504   9.420   4.741
 2599WAT     H1 8039   2.440   9.346   4.762
 2599WAT     H2 8040   2.456   9.508   4.745
 2600WAT      O 8041   5.753   4.605   0.809
 2600WAT     H1 8042   5.658   4.634   0.796
 2600WAT     H2 8043   5.814   4.679   0.783
 2601WAT      O 8044   4.351   0.826   4.608
 2601WAT     H1 8045   4.446   0.857   4.610
 2601WAT     H2 8046   4.314   0.837   4.515
 2602WAT      O 8047   0.997   6.478   2.868
 2602WAT     H1 8048   1.037   6.561   2.905
 2602WAT     H2 8049   0.922   6.502   2.806
 2603WAT      O 8050   3.672   2.305   4.401
 2603WAT     H1 8051   3.592   2.271   4.452
 2603WAT     H2 8052   3.749   2.244   4.416
 2604WAT      O 8053   3.817   3.182   4.597
 2604WAT     H1 8054   3.843   3.244   4.670
 2604WAT     H2 8055   3.899   3.143   4.555
 2605WAT      O 8056   9.130   9.338   8.172
 2605WAT     H1 8057   9.139   9.298   8.263
 2605WAT     H2 8058   9.151   9.268   8.103
 2606WAT      O 8059   8.929   1.965   2.411
 2606WAT     H1 8060   9.015   1.956   2.360
 2606WAT     H2 8061   8.938   2.038   2.478
 2607WAT      O 8062   2.695   7.210   1.914
 2607WAT     H1 8063   2.680   7.127   1.967
 2607WAT     H2 8064   2.698   7.289   1.976
 2608WAT      O 8065   2.778   9.671   7.302
 2608WAT     H1 8066   2.862   9.655   7.354
 2608WAT     H2 8067   2.800   9.724   7.220
 2609WAT      O 8068   6.119   8.163   1.856
 2609WAT     H1 8069   6.029   8.159   1.900
 2609WAT     H2 8070   6.139   8.258   1.830
 2610WAT      O 8071   0.052   6.979   9.830
 2610WAT     H1 8072  -0.014   6.949   9.899
 2610WAT     H2 8073   0.127   6.913   9.824
 2611WAT      O 8074   2.125   3.386   2.988
 2611WAT     H1 8075   2.184   3.394   3.069
 2611WAT     H2 8076   2.104   3.477   2.952
 2612WAT      O 8077   3.061   4.201   3.488
 2612WAT     H1 8078   2.972   4.204   3.533
 2612WAT     H2 8079   3.082   4.291   3.450
 2613WAT      O 8080   4.596   5.199   9.371
 2613WAT     H1 8081   4.691   5.229   9.357
 2613WAT     H2 8082   4.565   5.231   9.461
 2614WAT      O 8083   1.558   1.271   4.071
 2614WAT     H1 8084   1.601   1.335   4.006
 2614WAT     H2 8085   1.511   1.199   4.020
 2615WAT      O 8086   2.525   2.526   8.295
 2615WAT     H1 8087   2.466   2.459   8.251
 2615WAT     H2 8088   2.618   2.490   8.302
 2616WAT      O 8089   2.294   2.183   7.208
 2616WAT     H1 8090   2.315   2.169   7.305
 2616WAT     H2 8091   2.374   2.158   7.154
 2617WAT      O 8092   3.273   7.335   6.647
 2617WAT     H1 8093   3.323   7.420   6.626
 2617WAT     H2 8094   3.318   7.290   6.725
 2618WAT      O 8095   7.199   7.720   7.718
 2618WAT     H1 8096   7.298   7.707   7.713
 2618WAT     H2 8097   7.178   7.807   7.763
 2619WAT      O 8098   7.513   8.164   3.360
 2619WAT     H1 8099   7.446   8.226   3.401
 2619WAT     H2 8100   7.553   8.107   3.431
 2620WAT      O 8101   6.279   1.016   4.009
 2620WAT     H1 8102   6.198   1.034   4.064
 2620WAT     H2 8103   6.308   1.101   3.963
 2621WAT      O 8104   7.054   3.199   4.981
 2621WAT     H1 8105   6.960   3.167   4.976
 2621WAT     H2 8106   7.114   3.134   4.935
 2622WAT      O 8107   8.189   7.567   4.221
 2622WAT     H1 8108   8.090   7.550   4.222
 2622WAT     H2 8109   8.206   7.665   4.220
 2623WAT      O 8110   5.026   3.615   4.121
 2623WAT     H1 8111   5.075   3.701   4.136
 2623WAT     H2 8112   5.025   3.562   4.206
 2624WAT      O 8113   8.999   7.638   1.133
 2624WAT     H1 8114   9.094   7.639   1.101
 2624WAT     H2 8115   8.970   7.731   1.155
 2625WAT      O 8116   0.341   0.271   2.452
 2625WAT     H1 8117   0.420   0.298   2.396
 2625WAT     H2 8118   0.299   0.352   2.491
 2626WAT      O 8119   2.435   8.364   0.061
 2626WAT     H1 8120   2.507   8.358   0.131
 2626WAT     H2 8121   2.425   8.276   0.017
 2627WAT      O 8122   0.250   1.670   5.776
 2627WAT     H1 8123   0.347   1.650   5.762
 2627WAT     H2 8124   0.229   1.759   5.736
 2628WAT      O 8125   9.091   9.322   8.744
 2628WAT     H1 8126   9.158   9.369   8.687
 2628WAT     H2 8127   9.006   9.375   8.745
 2629WAT      O 8128   0.109   4.384   6.248
 2629WAT     H1 8129   0.069   4.297   6.277
 2629WAT     H2 8130   0.077   4.406   6.156
 2630WAT      O 8131   2.499   1.612   8.338
 2630WAT     H1 8132   2.494   1.513   8.346
 2630WAT     H2 8133   2.407   1.651   8.331
 2631WAT      O 8134   2.973   6.870   1.849
 2631WAT     H1 8135   2.874   6.881   1.856
 2631WAT     H2 8136   3.004   6.902   1.759
 2632WAT      O 8137   6.456   9.716   9.306
 2632WAT     H1 8138   6.402   9.649   9.356
 2632WAT     H2 8139   6.396   9.773   9.250
 2633WAT      O 8140   2.378   3.749   2.178
 2633WAT     H1 8141   2.406   3.842   2.155
 2633WAT     H2 8142   2.420   3.685   2.114
 2634WAT      O 8143   7.737   4.816   6.275
 2634WAT     H1 8144   7.740   4.735   6.216
 2634WAT     H2 8145   7.735   4.898   6.219
 2635WAT      O 8146   4.248   7.236   8.673
 2635WAT     H1 8147   4.333   7.256   8.722
 2635WAT     H2 8148   4.172   7.233   8.738
 2636WAT      O 8149   8.252   3.011   7.192
 2636WAT     H1 8150   8.315   2.980   7.263
 2636WAT     H2 8151   8.300   3.019   7.105
 2637WAT      O 8152   1.199   7.107   1.056
 2637WAT     H1 8153   1.272   7.140   0.997
 2637WAT     H2 8154   1.232   7.032   1.112
 2638WAT      O 8155   3.193   8.440   8.435
 2638WAT     H1 8156   3.283   8.484   8.431
 2638WAT     H2 8157   3.195   8.367   8.503
 2639WAT      O 8158   4.853   3.237   3.788
 2639WAT     H1 8159   4.949   3.234   3.813
 2639WAT     H2 8160   4.809   3.316   3.830
 2640WAT      O 8161   2.978   8.158   2.299
 2640WAT     H1 8162   2.965   8.257   2.300
 2640WAT     H2 8163   3.055   8.133   2.357
 2641WAT      O 8164   5.373   1.915   3.977
 2641WAT     H1 8165   5.411   1.944   4.065
 2641WAT     H2 8166   5.283   1.956   3.965
 2642WAT      O 8167   1.911   8.259   2.984
 2642WAT     H1 8168   1.982   8.276   3.053
 2642WAT     H2 8169   1.838   8.204   3.024
 2643WAT      O 8170   1.821   6.647   1.845
 2643WAT     H1 8171   1.775   6.585   1.782
 2643WAT     H2 8172   1.813   6.741   1.810
 2644WAT      O 8173   0.476   6.254   3.573
 2644WAT     H1 8174   0.397   6.203   3.606
 2644WAT     H2 8175   0.470   6.349   3.604
 2645WAT      O 8176   1.311   6.014   0.529
 2645WAT     H1 8177   1.251   6.018   0.609
 2645WAT     H2 8178   1.301   6.098   0.476
 2646WAT      O 8179   6.122   6.967   5.512
 2646WAT     H1 8180   6.088   7.042   5.454
 2646WAT     H2 8181   6.057   6.951   5.587
 2647WAT      O 8182   6.932   5.702   7.457
 2647WAT     H1 8183   7.002   5.762   7.419
 2647WAT     H2 8184   6.852   5.702   7.396
 2648WAT      O 8185   0.577   6.776   6.709
 2648WAT     H1 8186   0.515   6.767   6.787
 2648WAT     H2 8187   0.524   6.795   6.626
 2649WAT      O 8188   7.865   2.967   6.553
 2649WAT     H1 8189   7.882   2.875   6.519
 2649WAT     H2 8190   7.952   3.007   6.585
 2650WAT      O 8191   7.984   1.212   7.331
 2650WAT     H1 8192   7.922   1.236   7.256
 2650WAT     H2 8193   8.070   1.177   7.295
 2651WAT      O 8194   1.868   1.807   1.214
 2651WAT     H1 8195   1.868   1.773   1.120
 2651WAT     H2 8196   1.862   1.906   1.214
 2652WAT      O 8197   4.011   7.316   9.840
 2652WAT     H1 8198   4.014   7.232   9.785
 2652WAT     H2 8199   3.973   7.390   9.785
 2653WAT      O 8200   5.344   6.694   2.468
 2653WAT     H1 8201   5.438   6.665   2.448
 2653WAT     H2 8202   5.289   6.683   2.385
 2654WAT      O 8203   4.423   3.864   7.950
 2654WAT     H1 8204   4.375   3.812   8.021
 2654WAT     H2 8205   4.419   3.961   7.972
 2655WAT      O 8206   1.250   8.452   4.708
 2655WAT     H1 8207   1.167   8.472   4.760
 2655WAT     H2 8208   1.277   8.532   4.655
 2656WAT      O 8209   3.181   2.519   9.192
 2656WAT     H1 8210   3.257   2.455   9.204
 2656WAT     H2 8211   3.206   2.608   9.229
 2657WAT      O 8212   7.238   2.538   5.679
 2657WAT     H1 8213   7.175   2.609   5.712
 2657WAT     H2 8214   7.254   2.552   5.581
 2658WAT      O 8215   2.125   2.790   1.516
 2658WAT     H1 8216   2.126   2.812   1.613
 2658WAT     H2 8217   2.134   2.874   1.463
 2659WAT      O 8218   4.896   0.680   6.917
 2659WAT     H1 8219   4.979   0.732   6.939
 2659WAT     H2 8220   4.920   0.584   6.904
 2660WAT      O 8221   4.133   4.233   7.323
 2660WAT     H1 8222   4.091   4.222   7.233
 2660WAT     H2 8223   4.089   4.171   7.388
 2661WAT      O 8224   6.814   0.037   3.910
 2661WAT     H1 8225   6.872   0.049   3.829
 2661WAT     H2 8226   6.824  -0.057   3.943
 2662WAT      O 8227   6.465   3.891   4.746
 2662WAT     H1 8228   6.449   3.957   4.819
 2662WAT     H2 8229   6.563   3.884   4.729
 2663WAT      O 8230   9.130   3.884   0.487
 2663WAT     H1 8231   9.198   3.811   0.488
 2663WAT     H2 8232   9.130   3.928   0.397
 2664WAT      O 8233   2.847   0.820   5.462
 2664WAT     H1 8234   2.873   0.868   5.378
 2664WAT     H2 8235   2.806   0.732   5.439
 2665WAT      O 8236   0.384   5.593   3.357
 2665WAT     H1 8237   0.427   5.518   3.307
 2665WAT     H2 8238   0.425   5.601   3.448
 2666WAT      O 8239   6.567   1.590   0.702
 2666WAT     H1 8240   6.650   1.557   0.657
 2666WAT     H2 8241   6.564   1.690   0.695
 2667WAT      O 8242   0.794   9.369   7.732
 2667WAT     H1 8243   0.888   9.356   7.763
 2667WAT     H2 8244   0.769   9.466   7.740
 2668WAT      O 8245   9.564   9.033   3.276
 2668WAT     H1 8246   9.474   8.988   3.274
 2668WAT     H2 8247   9.563   9.112   3.215
 2669WAT      O 8248   7.107   7.257   3.551
 2669WAT     H1 8249   7.054   7.313   3.487
 2669WAT     H2 8250   7.091   7.160   3.531
 2670WAT      O 8251   5.948   3.782   1.747
 2670WAT     H1 8252   5.887   3.772   1.669
 2670WAT     H2 8253   6.041   3.758   1.721
 2671WAT      O 8254   1.323   3.907   5.983
 2671WAT     H1 8255   1.393   3.839   5.959
 2671WAT     H2 8256   1.244   3.896   5.922
 2672WAT      O 8257   2.977   7.130   8.768
 2672WAT     H1 8258   3.042   7.104   8.840
 2672WAT     H2 8259   2.997   7.223   8.737
 2673WAT      O 8260   2.320   4.433   9.266
 2673WAT     H1 8261   2.378   4.403   9.342
 2673WAT     H2 8262   2.232   4.386   9.270
 2674WAT      O 8263   1.821   4.022   7.799
 2674WAT     H1 8264   1.863   3.972   7.723
 2674WAT     H2 8265   1.855   4.116   7.800
 2675WAT      O 8266   7.520   1.341   0.192
 2675WAT     H1 8267   7.423   1.331   0.213
 2675WAT     H2 8268   7.536   1.322   0.095
 2676WAT      O 8269   9.435   8.731   1.824
 2676WAT     H1 8270   9.342   8.694   1.822
 2676WAT     H2 8271   9.500   8.660   1.797
 2677WAT      O 8272   8.837   2.518   1.664
 2677WAT     H1 8273   8.815   2.420   1.667
 2677WAT     H2 8274   8.924   2.533   1.710
 2678WAT      O 8275   4.092   1.666   2.081
 2678WAT     H1 8276   4.030   1.716   2.020
 2678WAT     H2 8277   4.075   1.693   2.176
 2679WAT      O 8278   2.610   0.752   4.388
 2679WAT     H1 8279   2.584   0.725   4.481
 2679WAT     H2 8280   2.551   0.825   4.356
 2680WAT      O 8281   1.311   0.064   7.676
 2680WAT     H1 8282   1.379  -0.007   7.695
 2680WAT     H2 8283   1.271   0.048   7.586
 2681WAT      O 8284   9.773   4.898   6.276
 2681WAT     H1 8285   9.697   4.963   6.267
 2681WAT     H2 8286   9.752   4.834   6.350
 2682WAT      O 8287   1.222   3.783   7.307
 2682WAT     H1 8288   1.226   3.698   7.256
 2682WAT     H2 8289   1.283   3.778   7.387
 2683WAT      O 8290   0.224   7.604   5.525
 2683WAT     H1 8291   0.207   7.651   5.438
 2683WAT     H2 8292   0.137   7.575   5.565
 2684WAT      O 8293   9.511   6.901   5.066
 2684WAT     H1 8294   9.558   6.986   5.091
 2684WAT     H2 8295   9.413   6.912   5.081
 2685WAT      O 8296   3.930   8.866   1.019
 2685WAT     H1 8297   3.907   8.771   1.036
 2685WAT     H2 8298   3.850   8.924   1.035
 2686WAT      O 8299   4.925   7.772   9.763
 2686WAT     H1 8300   4.975   7.841   9.711
 2686WAT     H2 8301   4.849   7.737   9.708
 2687WAT      O 8302   6.712   9.691   1.384
 2687WAT     H1 8303   6.687   9.744   1.465
 2687WAT     H2 8304   6.643   9.621   1.367
 2688WAT      O 8305   1.652   3.526   1.374
 2688WAT     H1 8306   1.682   3.549   1.281
 2688WAT     H2 8307   1.630   3.610   1.424
 2689WAT      O 8308   1.843   1.525   1.874
 2689WAT     H1 8309   1.860   1.623   1.872
 2689WAT     H2 8310   1.909   1.479   1.813
 2690WAT      O 8311   9.713   1.718   0.399
 2690WAT     H1 8312   9.788   1.784   0.404
 2690WAT     H2 8313   9.699   1.676   0.488
 2691WAT      O 8314   0.612   9.652   1.879
 2691WAT     H1 8315   0.529   9.694   1.915
 2691WAT     H2 8316   0.588   9.574   1.820
 2692WAT      O 8317   8.892   3.798   9.385
 2692WAT     H1 8318   8.815   3.820   9.325
 2692WAT     H2 8319   8.880   3.844   9.473
 2693WAT      O 8320   7.092   0.529   5.091
 2693WAT     H1 8321   7.126   0.623   5.082
 2693WAT     H2 8322   7.007   0.529   5.144
 2694WAT      O 8323   0.059   4.268   5.733
 2694WAT     H1 8324   0.050   4.354   5.783
 2694WAT     H2 8325   0.100   4.199   5.793
 2695WAT      O 8326   4.688   5.020   7.360
 2695WAT     H1 8327   4.690   5.117   7.387
 2695WAT     H2 8328   4.628   4.970   7.423
 2696WAT      O 8329   0.893   0.493   2.347
 2696WAT     H1 8330   0.812   0.435   2.353
 2696WAT     H2 8331   0.877   0.565   2.280
 2697WAT      O 8332   6.014   0.089   3.304
 2697WAT     H1 8333   5.940   0.134   3.354
 2697WAT     H2 8334   5.975   0.031   3.232
 2698WAT      O 8335   7.451   4.052   3.900
 2698WAT     H1 8336   7.418   4.077   3.809
 2698WAT     H2 8337   7.546   4.020   3.894
 2699WAT      O 8338   8.174   5.187   0.785
 2699WAT     H1 8339   8.200   5.092   0.801
 2699WAT     H2 8340   8.257   5.242   0.774
 2700WAT      O 8341   8.074   2.040   4.489
 2700WAT     H1 8342   8.082   2.068   4.393
 2700WAT     H2 8343   8.126   1.956   4.503
 2701WAT      O 8344   9.505   3.623   3.462
 2701WAT     H1 8345   9.526   3.721   3.459
 2701WAT     H2 8346   9.571   3.577   3.521
 2702WAT      O 8347   6.990   0.916   2.713
 2702WAT     H1 8348   7.020   0.824   2.736
 2702WAT     H2 8349   6.992   0.929   2.614
 2703WAT      O 8350   6.616   9.147   1.947
 2703WAT     H1 8351   6.607   9.124   2.044
 2703WAT     H2 8352   6.697   9.203   1.933
 2704WAT      O 8353   0.625   8.279   7.733
 2704WAT     H1 8354   0.583   8.200   7.777
 2704WAT     H2 8355   0.607   8.361   7.788
 2705WAT      O 8356   8.246   8.376   0.050
 2705WAT     H1 8357   8.208   8.426  -0.027
 2705WAT     H2 8358   8.196   8.291   0.063
 2706WAT      O 8359   0.996   3.413   4.572
 2706WAT     H1 8360   1.079   3.443   4.527
 2706WAT     H2 8361   1.017   3.338   4.634
 2707WAT      O 8362   2.760   9.543   7.707
 2707WAT     H1 8363   2.713   9.497   7.782
 2707WAT     H2 8364   2.695   9.599   7.656
 2708WAT      O 8365   5.839   8.817   0.715
 2708WAT     H1 8366   5.893   8.765   0.648
 2708WAT     H2 8367   5.752   8.770   0.730
 2709WAT      O 8368   3.701   1.148   4.420
 2709WAT     H1 8369   3.783   1.191   4.384
 2709WAT     H2 8370   3.724   1.096   4.503
 2710WAT      O 8371   7.456   3.660   6.378
 2710WAT     H1 8372   7.504   3.683   6.463
 2710WAT     H2 8373   7.428   3.564   6.381
 2711WAT      O 8374   6.719   2.691   3.762
 2711WAT     H1 8375   6.805   2.670   3.808
 2711WAT     H2 8376   6.720   2.653   3.670
 2712WAT      O 8377   5.058   0.787   7.984
 2712WAT     H1 8378   4.960   0.767   7.977
 2712WAT     H2 8379   5.075   0.845   8.064
 2713WAT      O 8380   5.785   8.321   8.794
 2713WAT     H1 8381   5.739   8.251   8.849
 2713WAT     H2 8382   5.742   8.410   8.812
 2714WAT      O 8383   8.089   5.920   2.794
 2714WAT     H1 8384   8.168   5.864   2.770
 2714WAT     H2 8385   8.040   5.877   2.870
 2715WAT      O 8386   3.161   2.076   1.659
 2715WAT     H1 8387   3.233   2.106   1.722
 2715WAT     H2 8388   3.197   2.004   1.599
 2716WAT      O 8389   4.620   8.755   2.352
 2716WAT     H1 8390   4.544   8.744   2.288
 2716WAT     H2 8391   4.706   8.761   2.300
 2717WAT      O 8392   9.622   8.527   1.801
 2717WAT     H1 8393   9.640   8.463   1.876
 2717WAT     H2 8394   9.671   8.612   1.818
 2718WAT      O 8395   8.357   0.913   7.006
 2718WAT     H1 8396   8.362   0.822   6.965
 2718WAT     H2 8397   8.303   0.973   6.946
 2719WAT      O 8398   5.296   2.227   4.261
 2719WAT     H1 8399   5.339   2.291   4.198
 2719WAT     H2 8400   5.337   2.137   4.250
 2720WAT      O 8401   8.457   1.897   3.608
 2720WAT     H1 8402   8.551   1.929   3.601
 2720WAT     H2 8403   8.434   1.843   3.527
 2721WAT      O 8404   1.353   1.550   0.828
 2721WAT     H1 8405   1.281   1.561   0.896
 2721WAT     H2 8406   1.314   1.562   0.736
 2722WAT      O 8407   1.178   8.633   9.857
 2722WAT     H1 8408   1.130   8.629   9.769
 2722WAT     H2 8409   1.216   8.544   9.878
 2723WAT      O 8410   0.389   0.713   8.359
 2723WAT     H1 8411   0.322   0.654   8.315
 2723WAT     H2 8412   0.443   0.659   8.424
 2724WAT      O 8413   7.869   1.889   6.476
 2724WAT     H1 8414   7.928   1.864   6.399
 2724WAT     H2 8415   7.912   1.862   6.562
 2725WAT      O 8416   6.700   0.383   9.330
 2725WAT     H1 8417   6.645   0.311   9.287
 2725WAT     H2 8418   6.643   0.464   9.344
 2726WAT      O 8419   0.686   0.760   4.963
 2726WAT     H1 8420   0.704   0.711   5.049
 2726WAT     H2 8421   0.617   0.711   4.910
 2727WAT      O 8422   4.254   2.279   2.915
 2727WAT     H1 8423   4.270   2.180   2.910
 2727WAT     H2 8424   4.302   2.316   2.995
 2728WAT      O 8425   9.342   6.785   0.739
 2728WAT     H1 8426   9.324   6.783   0.641
 2728WAT     H2 8427   9.438   6.761   0.755
 2729WAT      O 8428   0.034   1.843   4.785
 2729WAT     H1 8429   0.050   1.925   4.839
 2729WAT     H2 8430  -0.058   1.807   4.805
 2730WAT      O 8431   9.160   6.449   4.933
 2730WAT     H1 8432   9.080   6.395   4.908
 2730WAT     H2 8433   9.224   6.452   4.856
 2731WAT      O 8434   2.506   9.315   7.566
 2731WAT     H1 8435   2.550   9.293   7.479
 2731WAT     H2 8436   2.488   9.414   7.570
 2732WAT      O 8437   1.277   6.989   9.540
 2732WAT     H1 8438   1.190   6.977   9.492
 2732WAT     H2 8439   1.307   7.084   9.531
 2733WAT      O 8440   2.104   6.019   5.052
 2733WAT     H1 8441   2.056   5.970   5.125
 2733WAT     H2 8442   2.049   6.017   4.969
 2734WAT      O 8443   5.537   3.905   1.337
 2734WAT     H1 8444   5.458   3.924   1.279
 2734WAT     H2 8445   5.512   3.837   1.405
 2735WAT      O 8446   8.059   1.725   3.526
 2735WAT     H1 8447   8.070   1.690   3.619
 2735WAT     H2 8448   8.106   1.664   3.462
 2736WAT      O 8449   5.562   5.929   2.702
 2736WAT     H1 8450   5.551   5.884   2.614
 2736WAT     H2 8451   5.645   5.897   2.747
 2737WAT      O 8452   7.845   5.804   0.970
 2737WAT     H1 8453   7.928   5.850   0.937
 2737WAT     H2 8454   7.869   5.741   1.044
 2738WAT      O 8455   2.137   0.178   7.700
 2738WAT     H1 8456   2.233   0.154   7.687
 2738WAT     H2 8457   2.104   0.230   7.620
 2739WAT      O 8458   7.931   0.519   1.633
 2739WAT     H1 8459   7.936   0.595   1.568
 2739WAT     H2 8460   7.838   0.513   1.669
 2740WAT      O 8461   1.267   6.490   1.301
 2740WAT     H1 8462   1.219   6.509   1.215
 2740WAT     H2 8463   1.214   6.526   1.378
 2741WAT      O 8464   5.548   6.451   9.363
 2741WAT     H1 8465   5.504   6.451   9.453
 2741WAT     H2 8466   5.591   6.362   9.347
 2742WAT      O 8467   5.539   3.268   1.458
 2742WAT     H1 8468   5.449   3.248   1.418
 2742WAT     H2 8469   5.544   3.227   1.549
 2743WAT      O 8470   3.035   1.320   8.353
 2743WAT     H1 8471   3.082   1.333   8.266
 2743WAT     H2 8472   3.027   1.407   8.401
 2744WAT      O 8473   7.205   1.617   2.802
 2744WAT     H1 8474   7.198   1.706   2.848
 2744WAT     H2 8475   7.195   1.630   2.703
 2745WAT      O 8476   8.093   0.922   1.408
 2745WAT     H1 8477   8.179   0.901   1.361
 2745WAT     H2 8478   8.048   0.998   1.360
 2746WAT      O 8479   9.543   7.137   3.258
 2746WAT     H1 8480   9.472   7.123   3.327
 2746WAT     H2 8481   9.506   7.115   3.167
 2747WAT      O 8482   0.911   2.788   4.372
 2747WAT     H1 8483   0.880   2.875   4.333
 2747WAT     H2 8484   0.837   2.747   4.425
 2748WAT      O 8485   1.720   0.495   8.126
 2748WAT     H1 8486   1.741   0.586   8.164
 2748WAT     H2 8487   1.719   0.500   8.026
 2749WAT      O 8488   9.664   6.553   3.053
 2749WAT     H1 8489   9.637   6.584   2.962
 2749WAT     H2 8490   9.658   6.630   3.117
 2750WAT      O 8491   4.153   1.151   5.100
 2750WAT     H1 8492   4.170   1.061   5.061
 2750WAT     H2 8493   4.061   1.153   5.139
 2751WAT      O 8494   2.498   2.846   1.680
 2751WAT     H1 8495   2.496   2.871   1.583
 2751WAT     H2 8496   2.524   2.926   1.734
 2752WAT      O 8497   7.723   8.280   4.124
 2752WAT     H1 8498   7.776   8.256   4.206
 2752WAT     H2 8499   7.647   8.340   4.151
 2753WAT      O 8500   8.270   5.019   2.694
 2753WAT     H1 8501   8.189   5.008   2.752
 2753WAT     H2 8502   8.297   5.116   2.694
 2754WAT      O 8503   2.826   5.931   5.825
 2754WAT     H1 8504   2.849   6.024   5.854
 2754WAT     H2 8505   2.770   5.934   5.743
 2755WAT      O 8506   2.234   0.840   3.700
 2755WAT     H1 8507   2.142   0.818   3.734
 2755WAT     H2 8508   2.295   0.764   3.719
 2756WAT      O 8509   7.937   6.513   4.646
 2756WAT     H1 8510   7.868   6.501   4.574
 2756WAT     H2 8511   8.022   6.468   4.618
 2757WAT      O 8512   8.854   4.284   7.390
 2757WAT     H1 8513   8.947   4.314   7.366
 2757WAT     H2 8514   8.857   4.188   7.420
 2758WAT      O 8515   5.262   5.165   7.655
 2758WAT     H1 8516   5.250   5.067   7.671
 2758WAT     H2 8517   5.250   5.214   7.742
 2759WAT      O 8518   0.727   2.422   5.974
 2759WAT     H1 8519   0.655   2.464   5.919
 2759WAT     H2 8520   0.706   2.325   5.989
 2760WAT      O 8521   7.862   2.129   2.896
 2760WAT     H1 8522   7.790   2.138   2.827
 2760WAT     H2 8523   7.823   2.087   2.978
 2761WAT      O 8524   1.079   2.585   1.728
 2761WAT     H1 8525   0.996   2.632   1.698
 2761WAT     H2 8526   1.065   2.486   1.724
 2762WAT      O 8527   5.650   8.836   6.831
 2762WAT     H1 8528   5.687   8.785   6.909
 2762WAT     H2 8529   5.687   8.799   6.746
 2763WAT      O 8530   6.057   8.560   3.641
 2763WAT     H1 8531   6.011   8.541   3.554
 2763WAT     H2 8532   5.990   8.557   3.715
 2764WAT      O 8533   1.412   9.290   0.036
 2764WAT     H1 8534   1.353   9.214   0.011
 2764WAT     H2 8535   1.385   9.325   0.125
 2765WAT      O 8536   0.788   1.636   6.218
 2765WAT     H1 8537   0.702   1.662   6.174
 2765WAT     H2 8538   0.768   1.588   6.304
 2766WAT      O 8539   3.616   0.116   8.817
 2766WAT     H1 8540   3.611   0.049   8.891
 2766WAT     H2 8541   3.585   0.205   8.850
 2767WAT      O 8542   9.675   1.684   6.433
 2767WAT     H1 8543   9.684   1.766   6.491
 2767WAT     H2 8544   9.607   1.701   6.362
 2768WAT      O 8545   8.275   9.202   1.193
 2768WAT     H1 8546   8.210   9.226   1.121
 2768WAT     H2 8547   8.226   9.186   1.278
 2769WAT      O 8548   7.239   8.989   2.496
 2769WAT     H1 8549   7.233   9.082   2.458
 2769WAT     H2 8550   7.175   8.929   2.448
 2770WAT      O 8551   8.784   3.098   5.744
 2770WAT     H1 8552   8.820   3.013   5.705
 2770WAT     H2 8553   8.688   3.086   5.767
 2771WAT      O 8554   8.366   5.182   0.456
 2771WAT     H1 8555   8.455   5.204   0.417
 2771WAT     H2 8556   8.363   5.084   0.478
 2772WAT      O 8557   7.308   7.603   5.262
 2772WAT     H1 8558   7.336   7.518   5.308
 2772WAT     H2 8559   7.348   7.606   5.170
 2773WAT      O 8560   1.078   4.770   5.222
 2773WAT     H1 8561   1.050   4.753   5.128
 2773WAT     H2 8562   0.998   4.795   5.277
 2774WAT      O 8563   8.709   7.651   6.513
 2774WAT     H1 8564   8.807   7.632   6.505
 2774WAT     H2 8565   8.657   7.569   6.490
 2775WAT      O 8566   3.050   8.540   0.285
 2775WAT     H1 8567   3.104   8.509   0.207
 2775WAT     H2 8568   3.111   8.567   0.360
 2776WAT      O 8569   9.620   5.392   5.950
 2776WAT     H1 8570   9.681   5.444   6.009
 2776WAT     H2 8571   9.588   5.311   5.998
 2777WAT      O 8572   9.715   0.938   0.128
 2777WAT     H1 8573   9.621   0.937   0.163
 2777WAT     H2 8574   9.768   1.007   0.178
 2778WAT      O 8575   0.209   7.148   9.013
 2778WAT     H1 8576   0.132   7.085   9.006
 2778WAT     H2 8577   0.258   7.151   8.925
 2779WAT      O 8578   2.330   8.854   2.228
 2779WAT     H1 8579   2.353   8.829   2.323
 2779WAT     H2 8580   2.414   8.878   2.179
 2780WAT      O 8581   9.420   0.834   1.214
 2780WAT     H1 8582   9.415   0.926   1.175
 2780WAT     H2 8583   9.343   0.779   1.179
 2781WAT      O 8584   6.253   9.800   6.530
 2781WAT     H1 8585   6.288   9.757   6.447
 2781WAT     H2 8586   6.244   9.732   6.602
 2782WAT      O 8587   2.473   3.851   0.254
 2782WAT     H1 8588   2.526   3.772   0.224
 2782WAT     H2 8589   2.392   3.861   0.196
 2783WAT      O 8590   7.231   2.897   0.716
 2783WAT     H1 8591   7.248   2.813   0.768
 2783WAT     H2 8592   7.167   2.955   0.766
 2784WAT      O 8593   4.608   7.902   2.772
 2784WAT     H1 8594   4.549   7.983   2.770
 2784WAT     H2 8595   4.698   7.926   2.737
 2785WAT      O 8596   2.547   1.111   0.672
 2785WAT     H1 8597   2.625   1.049   0.670
 2785WAT     H2 8598   2.534   1.145   0.765
 2786WAT      O 8599   2.934   7.232   4.153
 2786WAT     H1 8600   2.869   7.308   4.148
 2786WAT     H2 8601   2.895   7.159   4.210
 2787WAT      O 8602   0.429   4.773   0.214
 2787WAT     H1 8603   0.523   4.787   0.184
 2787WAT     H2 8604   0.392   4.692   0.168
 2788WAT      O 8605   7.757   5.721   6.169
 2788WAT     H1 8606   7.701   5.797   6.204
 2788WAT     H2 8607   7.799   5.672   6.246
 2789WAT      O 8608   8.979   2.878   4.507
 2789WAT     H1 8609   8.899   2.920   4.549
 2789WAT     H2 8610   8.986   2.783   4.538
 2790WAT      O 8611   8.285   5.612   9.163
 2790WAT     H1 8612   8.301   5.563   9.077
 2790WAT     H2 8613   8.372   5.644   9.200
 2791WAT      O 8614   9.328   5.869   7.932
 2791WAT     H1 8615   9.316   5.834   7.840
 2791WAT     H2 8616   9.239   5.896   7.970
 2792WAT      O 8617   9.806   9.624   1.499
 2792WAT     H1 8618   9.770   9.532   1.489
 2792WAT     H2 8619   9.735   9.691   1.478
 2793WAT      O 8620   8.619   8.178   2.460
 2793WAT     H1 8621   8.536   8.169   2.405
 2793WAT     H2 8622   8.690   8.225   2.408
 2794WAT      O 8623   6.355   3.751   1.135
 2794WAT     H1 8624   6.374   3.821   1.066
 2794WAT     H2 8625   6.428   3.682   1.132
 2795WAT      O 8626   5.388   0.961   0.400
 2795WAT     H1 8627   5.292   0.957   0.427
 2795WAT     H2 8628   5.403   1.040   0.341
 2796WAT      O 8629   8.660   7.478   2.560
 2796WAT     H1 8630   8.691   7.436   2.645
 2796WAT     H2 8631   8.579   7.430   2.527
 2797WAT      O 8632   2.460   6.950   6.450
 2797WAT     H1 8633   2.471   6.988   6.358
 2797WAT     H2 8634   2.540   6.894   6.472
 2798WAT      O 8635   9.421   9.810   2.035
 2798WAT     H1 8636   9.432   9.806   2.135
 2798WAT     H2 8637   9.329   9.779   2.011
 2799WAT      O 8638   7.559   6.134   5.953
 2799WAT     H1 8639   7.483   6.161   5.894
 2799WAT     H2 8640   7.528   6.131   6.048
 2800WAT      O 8641   2.937   5.613   7.491
 2800WAT     H1 8642   2.853   5.620   7.437
 2800WAT     H2 8643   2.970   5.519   7.490
 2801WAT      O 8644   4.188   6.755   0.987
 2801WAT     H1 8645   4.277   6.721   1.019
 2801WAT     H2 8646   4.154   6.823   1.052
 2802WAT      O 8647   3.069   5.441   8.720
 2802WAT     H1 8648   2.972   5.463   8.731
 2802WAT     H2 8649   3.080   5.345   8.694
 2803WAT      O 8650   5.260   7.461   4.072
 2803WAT     H1 8651   5.202   7.476   3.992
 2803WAT     H2 8652   5.220   7.508   4.151
 2804WAT      O 8653   8.358   5.743   2.730
 2804WAT     H1 8654   8.307   5.670   2.684
 2804WAT     H2 8655   8.404   5.800   2.662
 2805WAT      O 8656   4.330   3.951   7.664
 2805WAT     H1 8657   4.358   3.856   7.675
 2805WAT     H2 8658   4.271   3.977   7.741
 2806WAT      O 8659   9.304   4.854   8.787
 2806WAT     H1 8660   9.249   4.909   8.850
 2806WAT     H2 8661   9.298   4.758   8.812
 2807WAT      O 8662   1.438   9.444   9.677
 2807WAT     H1 8663   1.435   9.384   9.756
 2807WAT     H2 8664   1.514   9.509   9.687
 2808WAT      O 8665   6.394   5.094   2.820
 2808WAT     H1 8666   6.485   5.131   2.837
 2808WAT     H2 8667   6.355   5.138   2.739
 2809WAT      O 8668   6.689   4.463   2.599
 2809WAT     H1 8669   6.786   4.482   2.615
 2809WAT     H2 8670   6.648   4.429   2.683
 2810WAT      O 8671   4.227   5.318   7.410
 2810WAT     H1 8672   4.281   5.286   7.488
 2810WAT     H2 8673   4.134   5.338   7.440
 2811WAT      O 8674   9.119   5.547   1.294
 2811WAT     H1 8675   9.027   5.586   1.293
 2811WAT     H2 8676   9.163   5.567   1.382
 2812WAT      O 8677   6.934   5.455   4.571
 2812WAT     H1 8678   6.920   5.394   4.648
 2812WAT     H2 8679   6.999   5.527   4.597
 2813WAT      O 8680   4.921   5.416   4.461
 2813WAT     H1 8681   4.968   5.331   4.438
 2813WAT     H2 8682   4.972   5.494   4.424
 2814WAT      O 8683   6.623   4.481   5.513
 2814WAT     H1 8684   6.559   4.557   5.513
 2814WAT     H2 8685   6.699   4.501   5.575
 2815WAT      O 8686   8.977   5.758   6.538
 2815WAT     H1 8687   8.993   5.767   6.636
 2815WAT     H2 8688   8.889   5.712   6.523
 2816WAT      O 8689   1.627   5.978   3.634
 2816WAT     H1 8690   1.531   6.000   3.619
 2816WAT     H2 8691   1.671   6.052   3.685
 2817WAT      O 8692   8.808   2.102   9.707
 2817WAT     H1 8693   8.727   2.160   9.698
 2817WAT     H2 8694   8.782   2.014   9.746
 2818WAT      O 8695   1.429   5.451   1.996
 2818WAT     H1 8696   1.330   5.438   1.990
 2818WAT     H2 8697   1.448   5.529   2.056
 2819WAT      O 8698   6.799   1.854   5.668
 2819WAT     H1 8699   6.718   1.902   5.636
 2819WAT     H2 8700   6.772   1.772   5.717
 2820WAT      O 8701   0.298   1.753   9.758
 2820WAT     H1 8702   0.282   1.839   9.710
 2820WAT     H2 8703   0.383   1.712   9.726
 2821WAT      O 8704   9.183   2.147   4.239
 2821WAT     H1 8705   9.091   2.113   4.258
 2821WAT     H2 8706   9.222   2.183   4.324
 2822WAT      O 8707   0.616   3.790   2.062
 2822WAT     H1 8708   0.629   3.737   2.146
 2822WAT     H2 8709   0.686   3.764   1.995
 2823WAT      O 8710   0.080   1.083   9.794
 2823WAT     H1 8711   0.074   1.180   9.771
 2823WAT     H2 8712   0.164   1.067   9.846
 2824WAT      O 8713   3.041   1.729   7.714
 2824WAT     H1 8714   3.002   1.814   7.680
 2824WAT     H2 8715   3.031   1.658   7.645
 2825WAT      O 8716   5.998   8.702   7.190
 2825WAT     H1 8717   5.962   8.636   7.257
 2825WAT     H2 8718   6.060   8.655   7.127
 2826WAT      O 8719   5.525   7.205   8.424
 2826WAT     H1 8720   5.581   7.279   8.462
 2826WAT     H2 8721   5.582   7.126   8.403
 2827WAT      O 8722   2.464   5.389   5.296
 2827WAT     H1 8723   2.481   5.472   5.349
 2827WAT     H2 8724   2.548   5.335   5.291
 2828WAT      O 8725   7.312   9.557   9.054
 2828WAT     H1 8726   7.272   9.591   8.969
 2828WAT     H2 8727   7.265   9.473   9.082
 2829WAT      O 8728   3.408   7.142   1.326
 2829WAT     H1 8729   3.455   7.084   1.393
 2829WAT     H2 8730   3.311   7.149   1.349
 2830WAT      O 8731   8.188   3.481   8.558
 2830WAT     H1 8732   8.143   3.479   8.469
 2830WAT     H2 8733   8.122   3.505   8.629
 2831WAT      O 8734   1.598   4.379   1.210
 2831WAT     H1 8735   1.658   4.359   1.287
 2831WAT     H2 8736   1.646   4.360   1.124
 2832WAT      O 8737   1.248   7.238   1.495
 2832WAT     H1 8738   1.277   7.329   1.523
 2832WAT     H2 8739   1.329   7.184   1.469
 2833WAT      O 8740   7.700   5.748   2.700
 2833WAT     H1 8741   7.758   5.805   2.641
 2833WAT     H2 8742   7.609   5.741   2.660
 2834WAT      O 8743   7.943   1.962   6.069
 2834WAT     H1 8744   7.974   2.050   6.034
 2834WAT     H2 8745   7.847   1.949   6.045
 2835WAT      O 8746   0.875   4.118   7.406
 2835WAT     H1 8747   0.883   4.028   7.363
 2835WAT     H2 8748   0.788   4.160   7.378
 2836WAT      O 8749   9.409   1.617   0.371
 2836WAT     H1 8750   9.367   1.577   0.452
 2836WAT     H2 8751   9.504   1.585   0.363
 2837WAT      O 8752   1.024   7.401   8.064
 2837WAT     H1 8753   1.085   7.438   8.135
 2837WAT     H2 8754   1.079   7.349   7.998
 2838WAT      O 8755   3.832   3.287   2.280
 2838WAT     H1 8756   3.796   3.369   2.235
 2838WAT     H2 8757   3.770   3.259   2.353
 2839WAT      O 8758   3.921   2.445   5.014
 2839WAT     H1 8759   3.938   2.348   5.032
 2839WAT     H2 8760   3.919   2.461   4.915
 2840WAT      O 8761   5.153   9.255   8.789
 2840WAT     H1 8762   5.131   9.318   8.863
 2840WAT     H2 8763   5.086   9.181   8.787
 2841WAT      O 8764   9.511   9.769   5.156
 2841WAT     H1 8765   9.589   9.708   5.172
 2841WAT     H2 8766   9.538   9.863   5.173
 2842WAT      O 8767   1.964   7.961   4.140
 2842WAT     H1 8768   2.038   7.897   4.164
 2842WAT     H2 8769   1.990   8.013   4.059
 2843WAT      O 8770   1.208   1.987   5.005
 2843WAT     H1 8771   1.266   1.922   4.956
 2843WAT     H2 8772   1.169   1.944   5.086
 2844WAT      O 8773   8.046   8.595   3.088
 2844WAT     H1 8774   8.021   8.545   3.171
 2844WAT     H2 8775   8.065   8.530   3.015
 2845WAT      O 8776   7.045   3.656   5.240
 2845WAT     H1 8777   7.059   3.709   5.324
 2845WAT     H2 8778   7.134   3.630   5.202
 2846WAT      O 8779   8.172   2.154   0.550
 2846WAT     H1 8780   8.097   2.114   0.497
 2846WAT     H2 8781   8.166   2.122   0.644
 2847WAT      O 8782   3.491   9.509   6.766
 2847WAT     H1 8783   3.582   9.509   6.725
 2847WAT     H2 8784   3.500   9.512   6.866
 2848WAT      O 8785   4.304   9.816   1.430
 2848WAT     H1 8786   4.388   9.798   1.481
 2848WAT     H2 8787   4.298   9.753   1.352
 2849WAT      O 8788   3.797   7.722   4.676
 2849WAT     H1 8789   3.870   7.726   4.609
 2849WAT     H2 8790   3.793   7.808   4.727
 2850WAT      O 8791   5.902   4.390   3.656
 2850WAT     H1 8792   5.940   4.298   3.645
 2850WAT     H2 8793   5.804   4.388   3.635
 2851WAT      O 8794   0.314   4.022   8.220
 2851WAT     H1 8795   0.353   4.109   8.189
 2851WAT     H2 8796   0.348   3.948   8.162
 2852WAT      O 8797   7.104   1.345   0.482
 2852WAT     H1 8798   7.053   1.264   0.509
 2852WAT     H2 8799   7.201   1.332   0.502
 2853WAT      O 8800   8.344   6.818   5.871
 2853WAT     H1 8801   8.289   6.784   5.947
 2853WAT     H2 8802   8.287   6.874   5.811
 2854WAT      O 8803   0.728   2.304   4.935
 2854WAT     H1 8804   0.681   2.302   5.023
 2854WAT     H2 8805   0.813   2.355   4.944
 2855WAT      O 8806   1.824   2.691   7.351
 2855WAT     H1 8807   1.751   2.624   7.366
 2855WAT     H2 8808   1.874   2.704   7.437
 2856WAT      O 8809   3.825   0.119   0.479
 2856WAT     H1 8810   3.786   0.030   0.457
 2856WAT     H2 8811   3.752   0.188   0.482
 2857WAT      O 8812   5.003   9.012   2.783
 2857WAT     H1 8813   5.059   9.092   2.762
 2857WAT     H2 8814   4.915   9.041   2.820
 2858WAT      O 8815   6.491   0.428   1.275
 2858WAT     H1 8816   6.516   0.334   1.253
 2858WAT     H2 8817   6.463   0.433   1.371
 2859WAT      O 8818   6.830   3.614   7.209
 2859WAT     H1 8819   6.827   3.692   7.146
 2859WAT     H2 8820   6.860   3.645   7.299
 2860WAT      O 8821   3.347   6.622   2.498
 2860WAT     H1 8822   3.358   6.592   2.403
 2860WAT     H2 8823   3.250   6.637   2.517
 2861WAT      O 8824   2.975   2.941   6.359
 2861WAT     H1 8825   3.053   2.952   6.421
 2861WAT     H2 8826   2.892   2.925   6.412
 2862WAT      O 8827   5.023   6.863   0.286
 2862WAT     H1 8828   5.031   6.851   0.187
 2862WAT     H2 8829   4.939   6.819   0.318
 2863WAT      O 8830   2.063   5.340   8.474
 2863WAT     H1 8831   2.058   5.265   8.407
 2863WAT     H2 8832   1.994   5.326   8.545
 2864WAT      O 8833   8.133   6.326   9.178
 2864WAT     H1 8834   8.070   6.384   9.230
 2864WAT     H2 8835   8.164   6.251   9.236
 2865WAT      O 8836   6.765   0.944   3.936
 2865WAT     H1 8837   6.815   0.865   3.971
 2865WAT     H2 8838   6.818   1.027   3.954
 2866WAT      O 8839   3.515   6.258   0.651
 2866WAT     H1 8840   3.474   6.169   0.631
 2866WAT     H2 8841   3.504   6.278   0.749
 2867WAT      O 8842   3.029   6.398   2.135
 2867WAT     H1 8843   2.975   6.349   2.202
 2867WAT     H2 8844   2.969   6.444   2.070
 2868WAT      O 8845   3.683   2.569   7.447
 2868WAT     H1 8846   3.595   2.524   7.465
 2868WAT     H2 8847   3.744   2.506   7.400
 2869WAT      O 8848   3.041   9.360   2.792
 2869WAT     H1 8849   3.138   9.371   2.772
 2869WAT     H2 8850   3.018   9.411   2.874
 2870WAT      O 8851   4.375   3.592   0.902
 2870WAT     H1 8852   4.320   3.664   0.945
 2870WAT     H2 8853   4.389   3.615   0.805
 2871WAT      O 8854   0.698   9.752   5.372
 2871WAT     H1 8855   0.771   9.715   5.315
 2871WAT     H2 8856   0.732   9.832   5.422
 2872WAT      O 8857   7.015   6.234   8.495
 2872WAT     H1 8858   6.956   6.258   8.418
 2872WAT     H2 8859   7.005   6.303   8.568
 2873WAT      O 8860   2.333   5.070   8.709
 2873WAT     H1 8861   2.342   5.021   8.623
 2873WAT     H2 8862   2.415   5.055   8.765
 2874WAT      O 8863   1.341   5.614   8.301
 2874WAT     H1 8864   1.293   5.583   8.383
 2874WAT     H2 8865   1.287   5.684   8.255
 2875WAT      O 8866   8.745   6.626   7.586
 2875WAT     H1 8867   8.683   6.704   7.577
 2875WAT     H2 8868   8.761   6.586   7.496
 2876WAT      O 8869   0.193   7.530   2.069
 2876WAT     H1 8870   0.181   7.442   2.022
 2876WAT     H2 8871   0.287   7.538   2.102
 2877WAT      O 8872   7.476   2.796   2.893
 2877WAT     H1 8873   7.539   2.866   2.928
 2877WAT     H2 8874   7.428   2.832   2.813
 2878WAT      O 8875   4.799   2.794   8.239
 2878WAT     H1 8876   4.872   2.861   8.256
 2878WAT     H2 8877   4.711   2.835   8.262
 2879WAT      O 8878   0.032   0.957   7.273
 2879WAT     H1 8879   0.007   0.976   7.368
 2879WAT     H2 8880  -0.009   0.870   7.244
 2880WAT      O 8881   5.132   3.027   4.015
 2880WAT     H1 8882   5.117   2.994   4.108
 2880WAT     H2 8883   5.178   3.116   4.018
 2881WAT      O 8884   7.591   9.170   5.205
 2881WAT     H1 8885   7.650   9.243   5.239
 2881WAT     H2 8886   7.619   9.146   5.112
 2882WAT      O 8887   9.187   1.984   5.934
 2882WAT     H1 8888   9.126   2.060   5.913
 2882WAT     H2 8889   9.246   2.009   6.011
 2883WAT      O 8890   1.162   3.856   4.395
 2883WAT     H1 8891   1.210   3.944   4.391
 2883WAT     H2 8892   1.107   3.852   4.479
 2884WAT      O 8893   6.775   0.853   5.145
 2884WAT     H1 8894   6.762   0.951   5.133
 2884WAT     H2 8895   6.830   0.818   5.069
 2885WAT      O 8896   5.229   4.222   8.310
 2885WAT     H1 8897   5.233   4.144   8.248
 2885WAT     H2 8898   5.211   4.190   8.403
 2886WAT      O 8899   5.863   7.368   7.999
 2886WAT     H1 8900   5.925   7.305   8.045
 2886WAT     H2 8901   5.770   7.330   7.999
 2887WAT      O 8902   5.752   1.496   4.557
 2887WAT     H1 8903   5.714   1.420   4.504
 2887WAT     H2 8904   5.710   1.498   4.647
 2888WAT      O 8905   7.533   8.443   9.377
 2888WAT     H1 8906   7.521   8.396   9.290
 2888WAT     H2 8907   7.556   8.539   9.361
 2889WAT      O 8908   9.041   2.999   1.009
 2889WAT     H1 8909   8.992   2.943   1.076
 2889WAT     H2 8910   8.977   3.057   0.960
 2890WAT      O 8911   1.335   8.048   5.502
 2890WAT     H1 8912   1.421   8.037   5.451
 2890WAT     H2 8913   1.351   8.101   5.585
 2891WAT      O 8914   5.500   2.344   9.652
 2891WAT     H1 8915   5.565   2.420   9.641
 2891WAT     H2 8916   5.474   2.336   9.748
 2892WAT      O 8917   9.671   2.918   4.890
 2892WAT     H1 8918   9.681   2.900   4.792
 2892WAT     H2 8919   9.682   2.833   4.941
 2893WAT      O 8920   2.499   9.213   5.885
 2893WAT     H1 8921   2.512   9.281   5.958
 2893WAT     H2 8922   2.511   9.258   5.796
 2894WAT      O 8923   8.354   3.860   4.423
 2894WAT     H1 8924   8.439   3.897   4.459
 2894WAT     H2 8925   8.373   3.781   4.366
 2895WAT      O 8926   3.544   1.720   1.069
 2895WAT     H1 8927   3.467   1.669   1.106
 2895WAT     H2 8928   3.511   1.789   1.004
 2896WAT      O 8929   0.650   1.764   4.747
 2896WAT     H1 8930   0.592   1.706   4.690
 2896WAT     H2 8931   0.599   1.847   4.770
 2897WAT      O 8932   7.218   6.437   2.246
 2897WAT     H1 8933   7.266   6.378   2.181
 2897WAT     H2 8934   7.266   6.524   2.254
 2898WAT      O 8935   8.392   9.119   6.148
 2898WAT     H1 8936   8.318   9.174   6.108
 2898WAT     H2 8937   8.460   9.098   6.078
 2899WAT      O 8938   2.659   4.060   2.806
 2899WAT     H1 8939   2.662   4.159   2.790
 2899WAT     H2 8940   2.703   4.039   2.894
 2900WAT      O 8941   6.977   9.638   0.898
 2900WAT     H1 8942   6.919   9.664   0.975
 2900WAT     H2 8943   6.978   9.539   0.888
 2901WAT      O 8944   2.481   5.531   0.890
 2901WAT     H1 8945   2.458   5.531   0.988
 2901WAT     H2 8946   2.578   5.513   0.879
 2902WAT      O 8947   0.330   1.451   3.279
 2902WAT     H1 8948   0.349   1.472   3.375
 2902WAT     H2 8949   0.407   1.481   3.223
 2903WAT      O 8950   6.275   9.616   9.556
 2903WAT     H1 8951   6.345   9.557   9.516
 2903WAT     H2 8952   6.307   9.651   9.644
 2904WAT      O 8953   6.384   8.093   6.868
 2904WAT     H1 8954   6.456   8.033   6.832
 2904WAT     H2 8955   6.425   8.168   6.920
 2905WAT      O 8956   1.620   2.285   3.696
 2905WAT     H1 8957   1.705   2.334   3.716
 2905WAT     H2 8958   1.552   2.306   3.766
 2906WAT      O 8959   5.912   5.057   2.178
 2906WAT     H1 8960   5.912   5.151   2.144
 2906WAT     H2 8961   5.827   5.012   2.150
 2907WAT      O 8962   7.086   1.773   3.790
 2907WAT     H1 8963   7.069   1.744   3.884
 2907WAT     H2 8964   7.041   1.710   3.727
 2908WAT      O 8965   4.987   6.716   5.682
 2908WAT     H1 8966   5.013   6.760   5.596
 2908WAT     H2 8967   4.916   6.648   5.664
 2909WAT      O 8968   0.209   3.794   5.681
 2909WAT     H1 8969   0.218   3.798   5.781
 2909WAT     H2 8970   0.172   3.704   5.654
 2910WAT      O 8971   6.275   2.128   8.952
 2910WAT     H1 8972   6.278   2.168   8.860
 2910WAT     H2 8973   6.186   2.085   8.966
 2911WAT      O 8974   1.822   2.682   1.054
 2911WAT     H1 8975   1.744   2.680   1.117
 2911WAT     H2 8976   1.872   2.595   1.061
 2912WAT      O 8977   7.597   8.537   3.529
 2912WAT     H1 8978   7.648   8.615   3.563
 2912WAT     H2 8979   7.650   8.453   3.542
 2913WAT      O 8980   7.756   7.098   0.717
 2913WAT     H1 8981   7.769   7.197   0.708
 2913WAT     H2 8982   7.663   7.074   0.691
 2914WAT      O 8983   9.414   1.162   4.603
 2914WAT     H1 8984   9.444   1.220   4.678
 2914WAT     H2 8985   9.327   1.119   4.626
 2915WAT      O 8986   0.093   7.251   9.875
 2915WAT     H1 8987   0.079   7.314   9.798
 2915WAT     H2 8988   0.058   7.160   9.851
 2916WAT      O 8989   4.113   1.249   3.191
 2916WAT     H1 8990   4.118   1.312   3.268
 2916WAT     H2 8991   4.193   1.189   3.192
 2917WAT      O 8992   0.212   4.105   7.232
 2917WAT     H1 8993   0.122   4.117   7.275
 2917WAT     H2 8994   0.226   4.177   7.164
 2918WAT      O 8995   1.226   5.109   8.620
 2918WAT     H1 8996   1.140   5.143   8.658
 2918WAT     H2 8997   1.238   5.142   8.527
 2919WAT      O 8998   2.527   2.591   4.527
 2919WAT     H1 8999   2.535   2.690   4.535
 2919WAT     H2 9000   2.605   2.555   4.476
 2920WAT      O 9001   8.073   8.110   4.156
 2920WAT     H1 9002   8.141   8.179   4.133
 2920WAT     H2 9003   8.041   8.125   4.250
 2921WAT      O 9004   9.744   1.041   6.816
 2921WAT     H1 9005   9.693   1.103   6.876
 2921WAT     H2 9006   9.794   0.974   6.871
 2922WAT      O 9007   6.325   3.426   4.840
 2922WAT     H1 9008   6.261   3.458   4.910
 2922WAT     H2 9009   6.358   3.505   4.788
 2923WAT      O 9010   3.532   4.806   0.780
 2923WAT     H1 9011   3.506   4.794   0.876
 2923WAT     H2 9012   3.512   4.900   0.752
 2924WAT      O 9013   3.723   5.122   8.720
 2924WAT     H1 9014   3.815   5.093   8.694
 2924WAT     H2 9015   3.691   5.191   8.656
 2925WAT      O 9016   1.893   3.118   2.720
 2925WAT     H1 9017   1.957   3.195   2.712
 2925WAT     H2 9018   1.933   3.047   2.777
 2926WAT      O 9019   2.546   2.292   3.119
 2926WAT     H1 9020   2.531   2.260   3.026
 2926WAT     H2 9021   2.605   2.373   3.117
 2927WAT      O 9022   5.999   5.564   1.607
 2927WAT     H1 9023   5.912   5.518   1.627
 2927WAT     H2 9024   6.063   5.549   1.681
 2928WAT      O 9025   3.659   5.240   6.161
 2928WAT     H1 9026   3.709   5.325   6.179
 2928WAT     H2 9027   3.723   5.163   6.164
 2929WAT      O 9028   4.388   9.660   1.206
 2929WAT     H1 9029   4.421   9.685   1.115
 2929WAT     H2 9030   4.465   9.649   1.268
 2930WAT      O 9031   8.615   4.015   7.441
 2930WAT     H1 9032   8.625   4.073   7.522
 2930WAT     H2 9033   8.566   3.932   7.465
 2931WAT      O 9034   7.806   5.334   2.610
 2931WAT     H1 9035   7.712   5.304   2.626
 2931WAT     H2 9036   7.826   5.414   2.667
 2932WAT      O 9037   1.273   9.138   4.833
 2932WAT     H1 9038   1.285   9.040   4.818
 2932WAT     H2 9039   1.200   9.172   4.774
 2933WAT      O 9040   2.122   7.993   8.559
 2933WAT     H1 9041   2.080   7.904   8.578
 2933WAT     H2 9042   2.095   8.023   8.468
 2934WAT      O 9043   3.005   3.793   2.689
 2934WAT     H1 9044   2.993   3.865   2.621
 2934WAT     H2 9045   2.937   3.721   2.674
 2935WAT      O 9046   9.256   2.412   9.146
 2935WAT     H1 9047   9.210   2.343   9.090
 2935WAT     H2 9048   9.247   2.502   9.103
 2936WAT      O 9049   1.650   2.549   7.086
 2936WAT     H1 9050   1.607   2.639   7.083
 2936WAT     H2 9051   1.701   2.533   7.002
 2937WAT      O 9052   5.362   0.047   1.879
 2937WAT     H1 9053   5.295   0.022   1.949
 2937WAT     H2 9054   5.453   0.014   1.906
 2938WAT      O 9055   4.066   4.525   3.391
 2938WAT     H1 9056   3.976   4.502   3.355
 2938WAT     H2 9057   4.119   4.441   3.406
 2939WAT      O 9058   3.200   0.165   5.236
 2939WAT     H1 9059   3.228   0.082   5.187
 2939WAT     H2 9060   3.259   0.241   5.208
 2940WAT      O 9061   8.199   4.581   6.735
 2940WAT     H1 9062   8.132   4.615   6.669
 2940WAT     H2 9063   8.179   4.485   6.755
 2941WAT      O 9064   3.221   1.407   3.991
 2941WAT     H1 9065   3.230   1.481   3.924
 2941WAT     H2 9066   3.138   1.355   3.972
 2942WAT      O 9067   9.775   8.931   2.982
 2942WAT     H1 9068   9.830   9.004   2.942
 2942WAT     H2 9069   9.680   8.959   2.987
 2943WAT      O 9070   5.541   8.943   8.632
 2943WAT     H1 9071   5.543   9.026   8.688
 2943WAT     H2 9072   5.606   8.950   8.557
 2944WAT      O 9073   6.520   2.690   0.553
 2944WAT     H1 9074   6.460   2.641   0.489
 2944WAT     H2 9075   6.607   2.710   0.508
 2945WAT      O 9076   7.957   6.988   3.137
 2945WAT     H1 9077   8.053   7.015   3.146
 2945WAT     H2 9078   7.903   7.067   3.109
 2946WAT      O 9079   8.172   3.644   4.110
 2946WAT     H1 9080   8.104   3.695   4.163
 2946WAT     H2 9081   8.263   3.661   4.148
 2947WAT      O 9082   7.270   8.527   5.651
 2947WAT     H1 9083   7.300   8.505   5.743
 2947WAT     H2 9084   7.248   8.443   5.601
 2948WAT      O 9085   1.179   2.708   2.757
 2948WAT     H1 9086   1.166   2.618   2.716
 2948WAT     H2 9087   1.190   2.776   2.684
 2949WAT      O 9088   2.817   8.055   5.570
 2949WAT     H1 9089   2.808   7.994   5.491
 2949WAT     H2 9090   2.808   8.150   5.539
 2950WAT      O 9091   9.559   8.634   1.064
 2950WAT     H1 9092   9.612   8.564   1.112
 2950WAT     H2 9093   9.611   8.719   1.063
 2951WAT      O 9094   9.198   3.356   9.753
 2951WAT     H1 9095   9.204   3.272   9.807
 2951WAT     H2 9096   9.156   3.336   9.664
 2952WAT      O 9097   9.677   1.343   4.480
 2952WAT     H1 9098   9.612   1.387   4.418
 2952WAT     H2 9099   9.672   1.244   4.469
 2953WAT      O 9100   2.408   1.699   5.774
 2953WAT     H1 9101   2.483   1.708   5.710
 2953WAT     H2 9102   2.386   1.602   5.786
 2954WAT      O 9103   4.808   5.562   2.072
 2954WAT     H1 9104   4.841   5.637   2.129
 2954WAT     H2 9105   4.765   5.493   2.129
 2955WAT      O 9106   6.414   8.901   0.855
 2955WAT     H1 9107   6.315   8.908   0.869
 2955WAT     H2 9108   6.459   8.885   0.943
 2956WAT      O 9109   8.473   8.198   0.691
 2956WAT     H1 9110   8.546   8.205   0.758
 2956WAT     H2 9111   8.384   8.202   0.737
 2957WAT      O 9112   8.227   7.601   6.689
 2957WAT     H1 9113   8.163   7.674   6.665
 2957WAT     H2 9114   8.178   7.514   6.699
 2958WAT      O 9115   9.256   5.161   5.102
 2958WAT     H1 9116   9.210   5.225   5.039
 2958WAT     H2 9117   9.341   5.128   5.061
 2959WAT      O 9118   4.013   2.735   3.229
 2959WAT     H1 9119   3.967   2.653   3.263
 2959WAT     H2 9120   4.085   2.709   3.165
 2960WAT      O 9121   9.176   4.584   6.196
 2960WAT     H1 9122   9.273   4.586   6.171
 2960WAT     H2 9123   9.134   4.500   6.160
 2961WAT      O 9124   6.713   0.171   4.826
 2961WAT     H1 9125   6.642   0.241   4.815
 2961WAT     H2 9126   6.790   0.210   4.876
 2962WAT      O 9127   7.177   1.904   1.494
 2962WAT     H1 9128   7.122   1.858   1.563
 2962WAT     H2 9129   7.250   1.956   1.538
 2963WAT      O 9130   6.257   3.238   3.875
 2963WAT     H1 9131   6.167   3.221   3.915
 2963WAT     H2 9132   6.247   3.269   3.781
 2964WAT      O 9133   3.216   6.814   3.789
 2964WAT     H1 9134   3.288   6.806   3.858
 2964WAT     H2 9135   3.136   6.762   3.818
 2965WAT      O 9136   4.653   7.386   1.670
 2965WAT     H1 9137   4.617   7.479   1.657
 2965WAT     H2 9138   4.743   7.379   1.626
 2966WAT      O 9139   2.469   3.088   2.990
 2966WAT     H1 9140   2.422   3.061   3.074
 2966WAT     H2 9141   2.423   3.047   2.911
 2967WAT      O 9142   2.516   8.248   6.639
 2967WAT     H1 9143   2.566   8.171   6.680
 2967WAT     H2 9144   2.574   8.294   6.572
 2968WAT      O 9145   1.413   7.001   4.753
 2968WAT     H1 9146   1.466   7.009   4.837
 2968WAT     H2 9147   1.403   7.091   4.711
 2969WAT      O 9148   7.567   5.248   2.706
 2969WAT     H1 9149   7.525   5.165   2.742
 2969WAT     H2 9150   7.516   5.278   2.625
 2970WAT      O 9151   2.931   0.957   1.317
 2970WAT     H1 9152   2.909   0.926   1.410
 2970WAT     H2 9153   2.975   0.882   1.267
 2971WAT      O 9154   1.087   3.500   1.431
 2971WAT     H1 9155   1.013   3.472   1.492
 2971WAT     H2 9156   1.070   3.593   1.399
 2972WAT      O 9157   4.661   3.536   1.456
 2972WAT     H1 9158   4.649   3.453   1.401
 2972WAT     H2 9159   4.572   3.571   1.484
 2973WAT      O 9160   8.698   2.616   6.373
 2973WAT     H1 9161   8.739   2.525   6.378
 2973WAT     H2 9162   8.757   2.683   6.418
 2974WAT      O 9163   6.453   6.519   2.977
 2974WAT     H1 9164   6.534   6.467   3.004
 2974WAT     H2 9165   6.405   6.471   2.904
 2975WAT      O 9166   0.775   2.881   1.302
 2975WAT     H1 9167   0.789   2.813   1.231
 2975WAT     H2 9168   0.849   2.948   1.300
 2976WAT      O 9169   4.111   2.721   7.601
 2976WAT     H1 9170   4.023   2.749   7.564
 2976WAT     H2 9171   4.174   2.799   7.600
 2977WAT      O 9172   0.057   0.483   5.630
 2977WAT     H1 9173  -0.035   0.464   5.596
 2977WAT     H2 9174   0.123   0.430   5.576
 2978WAT      O 9175   4.166   5.000   1.417
 2978WAT     H1 9176   4.246   4.951   1.384
 2978WAT     H2 9177   4.085   4.943   1.408
 2979WAT      O 9178   0.268   8.618   6.937
 2979WAT     H1 9179   0.187   8.620   6.996
 2979WAT     H2 9180   0.349   8.602   6.993
 2980WAT      O 9181   9.862   9.821   6.482
 2980WAT     H1 9182   9.962   9.826   6.481
 2980WAT     H2 9183   9.824   9.897   6.430
 2981WAT      O 9184   6.491   0.518   3.319
 2981WAT     H1 9185   6.478   0.441   3.382
 2981WAT     H2 9186   6.484   0.485   3.224
 2982WAT      O 9187   4.400   4.386   0.588
 2982WAT     H1 9188   4.424   4.476   0.550
 2982WAT     H2 9189   4.439   4.314   0.531
 2983WAT      O 9190   2.240   5.425   4.614
 2983WAT     H1 9191   2.188   5.372   4.547
 2983WAT     H2 9192   2.239   5.378   4.702
 2984WAT      O 9193   4.438   4.588   2.206
 2984WAT     H1 9194   4.343   4.603   2.233
 2984WAT     H2 9195   4.464   4.493   2.225
 2985WAT      O 9196   4.829   0.487   2.313
 2985WAT     H1 9197   4.903   0.534   2.361
 2985WAT     H2 9198   4.861   0.398   2.280
 2986WAT      O 9199   9.254   0.084   8.340
 2986WAT     H1 9200   9.193   0.061   8.264
 2986WAT     H2 9201   9.203   0.080   8.426
 2987WAT      O 9202   7.401   0.463   4.805
 2987WAT     H1 9203   7.402   0.384   4.866
 2987WAT     H2 9204   7.318   0.461   4.748
 2988WAT      O 9205   0.208   3.508   2.540
 2988WAT     H1 9206   0.296   3.536   2.500
 2988WAT     H2 9207   0.224   3.464   2.628
 2989WAT      O 9208   1.784   1.165   9.121
 2989WAT     H1 9209   1.735   1.128   9.200
 2989WAT     H2 9210   1.728   1.152   9.039
 2990WAT      O 9211   8.374   8.013   4.115
 2990WAT     H1 9212   8.315   7.964   4.179
 2990WAT     H2 9213   8.443   8.064   4.166
 2991WAT      O 9214   8.046   5.469   1.064
 2991WAT     H1 9215   8.075   5.421   1.146
 2991WAT     H2 9216   7.983   5.411   1.012
 2992WAT      O 9217   6.274   2.345   4.459
 2992WAT     H1 9218   6.207   2.414   4.485
 2992WAT     H2 9219   6.328   2.318   4.539
 2993WAT      O 9220   5.166   1.758   8.050
 2993WAT     H1 9221   5.232   1.721   7.984
 2993WAT     H2 9222   5.106   1.824   8.005
 2994WAT      O 9223   1.717   0.615   4.770
 2994WAT     H1 9224   1.703   0.544   4.838
 2994WAT     H2 9225   1.815   0.632   4.758
 2995WAT      O 9226   1.138   7.663   1.865
 2995WAT     H1 9227   1.118   7.725   1.789
 2995WAT     H2 9228   1.083   7.688   1.944
 2996WAT      O 9229   7.135   3.888   5.413
 2996WAT     H1 9230   7.231   3.868   5.392
 2996WAT     H2 9231   7.098   3.950   5.344
 2997WAT      O 9232   6.211   7.746   0.311
 2997WAT     H1 9233   6.261   7.824   0.274
 2997WAT     H2 9234   6.264   7.662   0.298
 2998WAT      O 9235   1.238   4.737   8.435
 2998WAT     H1 9236   1.248   4.716   8.532
 2998WAT     H2 9237   1.264   4.658   8.381
 2999WAT      O 9238   5.428   2.790   8.886
 2999WAT     H1 9239   5.358   2.861   8.892
 2999WAT     H2 9240   5.390   2.703   8.917
 3000WAT      O 9241   3.032   2.942   6.958
 3000WAT     H1 9242   2.953   2.881   6.951
 3000WAT     H2 9243   3.001   3.036   6.973
 3001WAT      O 9244   4.982   1.639   6.049
 3001WAT     H1 9245   4.935   1.563   6.006
 3001WAT     H2 9246   4.936   1.664   6.134
 3002WAT      O 9247   0.980   6.633   5.761
 3002WAT     H1 9248   1.048   6.638   5.688
 3002WAT     H2 9249   0.889   6.650   5.724
 3003WAT      O 9250   2.340   2.729   8.927
 3003WAT     H1 9251   2.363   2.779   8.844
 3003WAT     H2 9252   2.270   2.661   8.906
 3004WAT      O 9253   0.932   8.849   6.818
 3004WAT     H1 9254   0.863   8.777   6.808
 3004WAT     H2 9255   0.943   8.896   6.730
 3005WAT      O 9256   8.965   4.406   1.363
 3005WAT     H1 9257   9.038   4.341   1.345
 3005WAT     H2 9258   8.994   4.472   1.433
 3006WAT      O 9259   0.735   5.401   8.339
 3006WAT     H1 9260   0.714   5.425   8.434
 3006WAT     H2 9261   0.672   5.330   8.308
 3007WAT      O 9262   0.623   4.805   5.052
 3007WAT     H1 9263   0.646   4.878   4.988
 3007WAT     H2 9264   0.537   4.763   5.025
 3008WAT      O 9265   0.387   9.669   6.580
 3008WAT     H1 9266   0.483   9.695   6.593
 3008WAT     H2 9267   0.342   9.734   6.519
 3009WAT      O 9268   4.347   2.817   4.159
 3009WAT     H1 9269   4.277   2.882   4.129
 3009WAT     H2 9270   4.321   2.779   4.247
 3010WAT      O 9271   9.363   9.791   9.505
 3010WAT     H1 9272   9.354   9.870   9.445
 3010WAT     H2 9273   9.305   9.803   9.585
 3011WAT      O 9274   8.855   7.076   8.475
 3011WAT     H1 9275   8.853   6.984   8.513
 3011WAT     H2 9276   8.771   7.124   8.499
 3012WAT      O 9277   8.672   9.765   4.440
 3012WAT     H1 9278   8.701   9.776   4.535
 3012WAT     H2 9279   8.684   9.669   4.412
 3013WAT      O 9280   8.741   5.784   6.253
 3013WAT     H1 9281   8.666   5.850   6.248
 3013WAT     H2 9282   8.724   5.720   6.328
 3014WAT      O 9283   9.272   5.675   0.653
 3014WAT     H1 9284   9.195   5.611   0.653
 3014WAT     H2 9285   9.316   5.675   0.743
 3015WAT      O 9286   7.834   8.710   7.355
 3015WAT     H1 9287   7.784   8.662   7.427
 3015WAT     H2 9288   7.785   8.700   7.268
 3016WAT      O 9289   7.939   0.171   7.303
 3016WAT     H1 9290   7.876   0.177   7.226
 3016WAT     H2 9291   7.997   0.090   7.293
 3017WAT      O 9292   1.366   6.850   7.778
 3017WAT     H1 9293   1.286   6.889   7.733
 3017WAT     H2 9294   1.375   6.754   7.753
 3018WAT      O 9295   2.400   4.328   9.490
 3018WAT     H1 9296   2.344   4.257   9.532
 3018WAT     H2 9297   2.472   4.356   9.553
 3019WAT      O 9298   3.439   8.469   7.350
 3019WAT     H1 9299   3.402   8.385   7.311
 3019WAT     H2 9300   3.447   8.459   7.450
 3020WAT      O 9301   5.770   4.628   6.923
 3020WAT     H1 9302   5.809   4.613   7.013
 3020WAT     H2 9303   5.804   4.715   6.886
 3021WAT      O 9304   1.913   8.928   8.503
 3021WAT     H1 9305   1.815   8.918   8.488
 3021WAT     H2 9306   1.946   9.009   8.453
 3022WAT      O 9307   8.771   3.244   8.424
 3022WAT     H1 9308   8.740   3.199   8.340
 3022WAT     H2 9309   8.837   3.315   8.402
 3023WAT      O 9310   3.555   4.012   3.453
 3023WAT     H1 9311   3.638   3.989   3.403
 3023WAT     H2 9312   3.554   3.962   3.540
 3024WAT      O 9313   4.531   3.569   9.139
 3024WAT     H1 9314   4.515   3.511   9.218
 3024WAT     H2 9315   4.449   3.624   9.120
 3025WAT      O 9316   4.541   7.540   4.037
 3025WAT     H1 9317   4.484   7.571   4.114
 3025WAT     H2 9318   4.615   7.483   4.072
 3026WAT      O 9319   2.314   9.454   2.439
 3026WAT     H1 9320   2.246   9.438   2.511
 3026WAT     H2 9321   2.398   9.405   2.461
 3027WAT      O 9322   0.608   1.443   1.345
 3027WAT     H1 9323   0.516   1.432   1.307
 3027WAT     H2 9324   0.620   1.538   1.373
 3028WAT      O 9325   6.860   8.269   7.983
 3028WAT     H1 9326   6.945   8.220   8.002
 3028WAT     H2 9327   6.879   8.367   7.977
 3029WAT      O 9328   2.372   1.767   0.677
 3029WAT     H1 9329   2.417   1.732   0.594
 3029WAT     H2 9330   2.274   1.749   0.671
 3030WAT      O 9331   5.424   1.949   2.182
 3030WAT     H1 9332   5.348   1.896   2.217
 3030WAT     H2 9333   5.494   1.960   2.253
 3031WAT      O 9334   8.211   7.454   6.027
 3031WAT     H1 9335   8.133   7.398   5.999
 3031WAT     H2 9336   8.292   7.426   5.976
 3032WAT      O 9337   6.752   1.342   2.448
 3032WAT     H1 9338   6.778   1.364   2.542
 3032WAT     H2 9339   6.823   1.283   2.408
 3033WAT      O 9340   6.087   4.762   9.053
 3033WAT     H1 9341   6.169   4.718   9.017
 3033WAT     H2 9342   6.007   4.726   9.005
 3034WAT      O 9343   5.616   4.424   0.214
 3034WAT     H1 9344   5.525   4.397   0.180
 3034WAT     H2 9345   5.683   4.354   0.188
 3035WAT      O 9346   3.409   5.813   6.143
 3035WAT     H1 9347   3.347   5.736   6.160
 3035WAT     H2 9348   3.503   5.785   6.161
 3036WAT      O 9349   6.431   2.970   4.769
 3036WAT     H1 9350   6.501   2.926   4.713
 3036WAT     H2 9351   6.343   2.925   4.755
 3037WAT      O 9352   8.973   6.041   2.239
 3037WAT     H1 9353   8.968   6.120   2.178
 3037WAT     H2 9354   9.020   6.068   2.324
 3038WAT      O 9355   0.960   7.505   2.706
 3038WAT     H1 9356   0.902   7.435   2.665
 3038WAT     H2 9357   1.048   7.508   2.658
 3039WAT      O 9358   8.360   2.051   4.286
 3039WAT     H1 9359   8.268   2.080   4.261
 3039WAT     H2 9360   8.387   1.973   4.231
 3040WAT      O 9361   7.010   0.086   7.968
 3040WAT     H1 9362   6.970   0.056   8.054
 3040WAT     H2 9363   6.942   0.138   7.916
 3041WAT      O 9364   2.088   7.013   5.834
 3041WAT     H1 9365   2.007   6.977   5.787
 3041WAT     H2 9366   2.155   6.939   5.845
 3042WAT      O 9367   4.150   2.474   1.819
 3042WAT     H1 9368   4.233   2.444   1.867
 3042WAT     H2 9369   4.094   2.395   1.795
 3043WAT      O 9370   5.286   5.414   0.780
 3043WAT     H1 9371   5.244   5.328   0.807
 3043WAT     H2 9372   5.371   5.428   0.831
 3044WAT      O 9373   4.040   4.481   8.790
 3044WAT     H1 9374   3.987   4.473   8.705
 3044WAT     H2 9375   3.992   4.432   8.863
 3045WAT      O 9376   3.496   3.801   3.228
 3045WAT     H1 9377   3.570   3.866   3.218
 3045WAT     H2 9378   3.533   3.710   3.246
 3046WAT      O 9379   6.644   9.599   4.527
 3046WAT     H1 9380   6.639   9.548   4.442
 3046WAT     H2 9381   6.599   9.546   4.600
 3047WAT      O 9382   1.920   0.873   8.734
 3047WAT     H1 9383   1.858   0.799   8.760
 3047WAT     H2 9384   1.868   0.947   8.691
 3048WAT      O 9385   5.808   9.003   0.298
 3048WAT     H1 9386   5.721   8.959   0.278
 3048WAT     H2 9387   5.793   9.079   0.362
 3049WAT      O 9388   5.049   3.930   0.041
 3049WAT     H1 9389   5.118   3.994   0.007
 3049WAT     H2 9390   4.962   3.946  -0.006
 3050WAT      O 9391   7.030   3.972   1.433
 3050WAT     H1 9392   6.987   4.001   1.518
 3050WAT     H2 9393   7.112   4.028   1.416
 3051WAT      O 9394   0.838   6.963   5.460
 3051WAT     H1 9395   0.829   7.015   5.375
 3051WAT     H2 9396   0.784   7.007   5.531
 3052WAT      O 9397   3.940   4.450   5.431
 3052WAT     H1 9398   3.956   4.413   5.339
 3052WAT     H2 9399   3.893   4.538   5.423
 3053WAT      O 9400   7.691   1.610   4.256
 3053WAT     H1 9401   7.622   1.576   4.321
 3053WAT     H2 9402   7.782   1.585   4.289
 3054WAT      O 9403   6.089   2.711   5.117
 3054WAT     H1 9404   6.033   2.698   5.036
 3054WAT     H2 9405   6.147   2.792   5.106
 3055WAT      O 9406   3.646   8.082   5.121
 3055WAT     H1 9407   3.689   7.994   5.103
 3055WAT     H2 9408   3.655   8.141   5.041
 3056WAT      O 9409   3.744   3.920   3.257
 3056WAT     H1 9410   3.795   3.841   3.291
 3056WAT     H2 9411   3.808   3.991   3.226
 3057WAT      O 9412   5.576   8.763   9.689
 3057WAT     H1 9413   5.586   8.858   9.716
 3057WAT     H2 9414   5.598   8.703   9.766
 3058WAT      O 9415   1.069   1.187   9.028
 3058WAT     H1 9416   1.104   1.176   9.121
 3058WAT     H2 9417   1.076   1.283   9.001
 3059WAT      O 9418   5.824   2.469   6.660
 3059WAT     H1 9419   5.897   2.456   6.592
 3059WAT     H2 9420   5.859   2.447   6.751
 3060WAT      O 9421   2.028   4.579   9.024
 3060WAT     H1 9422   2.037   4.605   8.928
 3060WAT     H2 9423   2.051   4.657   9.082
 3061WAT      O 9424   8.691   4.480   0.269
 3061WAT     H1 9425   8.594   4.487   0.247
 3061WAT     H2 9426   8.721   4.385   0.263
 3062WAT      O 9427   0.560   7.566   3.524
 3062WAT     H1 9428   0.644   7.543   3.573
 3062WAT     H2 9429   0.493   7.493   3.536
 3063WAT      O 9430   2.771   1.510   8.340
 3063WAT     H1 9431   2.699   1.579   8.347
 3063WAT     H2 9432   2.855   1.545   8.383
 3064WAT      O 9433   6.617   5.811   8.760
 3064WAT     H1 9434   6.536   5.856   8.797
 3064WAT     H2 9435   6.598   5.714   8.745
 3065WAT      O 9436   1.084   4.219   0.802
 3065WAT     H1 9437   1.086   4.131   0.754
 3065WAT     H2 9438   1.002   4.224   0.858
 3066WAT      O 9439   0.966   9.809   3.108
 3066WAT     H1 9440   0.915   9.787   3.025
 3066WAT     H2 9441   1.063   9.818   3.085
 3067WAT      O 9442   1.688   8.523   5.095
 3067WAT     H1 9443   1.618   8.537   5.165
 3067WAT     H2 9444   1.645   8.488   5.012
 3068WAT      O 9445   4.833   8.488   3.869
 3068WAT     H1 9446   4.823   8.586   3.886
 3068WAT     H2 9447   4.794   8.437   3.947
 3069WAT      O 9448   0.428   4.080   0.343
 3069WAT     H1 9449   0.393   4.005   0.286
 3069WAT     H2 9450   0.417   4.166   0.294
 3070WAT      O 9451   9.201   0.945   6.494
 3070WAT     H1 9452   9.140   0.940   6.414
 3070WAT     H2 9453   9.157   0.902   6.572
 3071WAT      O 9454   1.717   5.235   3.751
 3071WAT     H1 9455   1.648   5.172   3.787
 3071WAT     H2 9456   1.749   5.202   3.662
 3072WAT      O 9457   9.628   7.633   6.814
 3072WAT     H1 9458   9.539   7.632   6.768
 3072WAT     H2 9459   9.631   7.559   6.882
 3073WAT      O 9460   5.759   3.040   5.196
 3073WAT     H1 9461   5.828   3.096   5.242
 3073WAT     H2 9462   5.759   3.061   5.098
 3074WAT      O 9463   1.546   4.518   9.209
 3074WAT     H1 9464   1.543   4.564   9.298
 3074WAT     H2 9465   1.640   4.494   9.187
 3075WAT      O 9466   4.682   6.383   6.255
 3075WAT     H1 9467   4.755   6.334   6.303
 3075WAT     H2 9468   4.719   6.430   6.176
 3076WAT      O 9469   4.537   4.597   0.907
 3076WAT     H1 9470   4.447   4.623   0.872
 3076WAT     H2 9471   4.593   4.563   0.832
 3077WAT      O 9472   5.345   1.386   6.729
 3077WAT     H1 9473   5.292   1.446   6.669
 3077WAT     H2 9474   5.343   1.421   6.823
 3078WAT      O 9475   7.642   9.268   6.423
 3078WAT     H1 9476   7.722   9.278   6.363
 3078WAT     H2 9477   7.672   9.248   6.516
 3079WAT      O 9478   9.640   7.531   3.551
 3079WAT     H1 9479   9.553   7.514   3.598
 3079WAT     H2 9480   9.690   7.445   3.541
 3080WAT      O 9481   7.784   1.575   0.457
 3080WAT     H1 9482   7.689   1.586   0.429
 3080WAT     H2 9483   7.843   1.573   0.376
 3081WAT      O 9484   6.959   4.626   2.626
 3081WAT     H1 9485   6.992   4.710   2.582
 3081WAT     H2 9486   7.020   4.602   2.702
 3082WAT      O 9487   8.469   4.271   7.921
 3082WAT     H1 9488   8.392   4.292   7.861
 3082WAT     H2 9489   8.455   4.314   8.010
 3083WAT      O 9490   9.005   1.201   3.431
 3083WAT     H1 9491   8.973   1.287   3.473
 3083WAT     H2 9492   9.088   1.171   3.478
 3084WAT      O 9493   4.277   9.380   4.703
 3084WAT     H1 9494   4.188   9.411   4.738
 3084WAT     H2 9495   4.330   9.340   4.778
 3085WAT      O 9496   9.255   7.346   4.685
 3085WAT     H1 9497   9.244   7.356   4.586
 3085WAT     H2 9498   9.343   7.303   4.705
 3086WAT      O 9499   6.861   7.305   1.600
 3086WAT     H1 9500   6.776   7.355   1.611
 3086WAT     H2 9501   6.931   7.343   1.660
 3087WAT      O 9502   5.504   7.618   8.501
 3087WAT     H1 9503   5.517   7.546   8.433
 3087WAT     H2 9504   5.512   7.579   8.593
 3088WAT      O 9505   7.810   5.215   3.427
 3088WAT     H1 9506   7.859   5.130   3.410
 3088WAT     H2 9507   7.875   5.288   3.446
 3089WAT      O 9508   6.355   7.583   5.518
 3089WAT     H1 9509   6.424   7.636   5.567
 3089WAT     H2 9510   6.316   7.638   5.445
 3090WAT      O 9511   1.013   4.731   8.851
 3090WAT     H1 9512   1.082   4.715   8.781
 3090WAT     H2 9513   1.023   4.663   8.924
 3091WAT      O 9514   2.843   2.378   3.574
 3091WAT     H1 9515   2.791   2.350   3.494
 3091WAT     H2 9516   2.784   2.425   3.638
 3092WAT      O 9517   9.776   3.041   9.278
 3092WAT     H1 9518   9.703   2.975   9.294
 3092WAT     H2 9519   9.812   3.072   9.366
 3093WAT      O 9520   0.291   1.146   3.895
 3093WAT     H1 9521   0.321   1.077   3.961
 3093WAT     H2 9522   0.366   1.165   3.831
 3094WAT      O 9523   7.163   6.078   3.507
 3094WAT     H1 9524   7.213   5.992   3.519
 3094WAT     H2 9525   7.224   6.148   3.470
 3095WAT      O 9526   2.897   8.985   3.181
 3095WAT     H1 9527   2.915   9.053   3.252
 3095WAT     H2 9528   2.942   8.899   3.205
 3096WAT      O 9529   0.452   9.116   8.180
 3096WAT     H1 9530   0.368   9.165   8.203
 3096WAT     H2 9531   0.512   9.175   8.128
 3097WAT      O 9532   3.047   7.336   9.380
 3097WAT     H1 9533   3.010   7.326   9.473
 3097WAT     H2 9534   3.007   7.416   9.337
 3098WAT      O 9535   5.803   9.330   3.852
 3098WAT     H1 9536   5.763   9.409   3.805
 3098WAT     H2 9537   5.888   9.304   3.807
 3099WAT      O 9538   4.598   3.947   3.936
 3099WAT     H1 9539   4.698   3.957   3.930
 3099WAT     H2 9540   4.566   3.987   4.022
 3100WAT      O 9541   8.707   9.685   2.147
 3100WAT     H1 9542   8.734   9.598   2.106
 3100WAT     H2 9543   8.724   9.682   2.245
 3101WAT      O 9544   2.651   3.618   9.551
 3101WAT     H1 9545   2.712   3.567   9.611
 3101WAT     H2 9546   2.702   3.693   9.508
 3102WAT      O 9547   7.325   8.292   3.513
 3102WAT     H1 9548   7.339   8.389   3.490
 3102WAT     H2 9549   7.230   8.278   3.540
 3103WAT      O 9550   1.315   2.824   1.322
 3103WAT     H1 9551   1.406   2.796   1.292
 3103WAT     H2 9552   1.296   2.787   1.413
 3104WAT      O 9553   4.029   5.147   2.099
 3104WAT     H1 9554   4.109   5.091   2.120
 3104WAT     H2 9555   4.022   5.159   2.000
 3105WAT      O 9556   0.079   3.883   1.770
 3105WAT     H1 9557   0.049   3.934   1.690
 3105WAT     H2 9558   0.163   3.832   1.748
 3106WAT      O 9559   1.205   7.514   2.555
 3106WAT     H1 9560   1.289   7.496   2.606
 3106WAT     H2 9561   1.224   7.574   2.478
 3107WAT      O 9562   3.667   3.428   4.547
 3107WAT     H1 9563   3.703   3.501   4.489
 3107WAT     H2 9564   3.741   3.364   4.569
 3108WAT      O 9565   8.341   2.220   3.835
 3108WAT     H1 9566   8.361   2.262   3.923
 3108WAT     H2 9567   8.246   2.239   3.810
 3109WAT      O 9568   8.402   9.081   0.770
 3109WAT     H1 9569   8.468   9.150   0.742
 3109WAT     H2 9570   8.450   9.002   0.807
 3110WAT      O 9571   6.953   6.397   2.119
 3110WAT     H1 9572   6.999   6.360   2.038
 3110WAT     H2 9573   7.021   6.440   2.178
 3111WAT      O 9574   1.343   8.238   8.055
 3111WAT     H1 9575   1.420   8.255   8.116
 3111WAT     H2 9576   1.354   8.291   7.971
 3112WAT      O 9577   1.691   5.494   9.174
 3112WAT     H1 9578   1.670   5.569   9.110
 3112WAT     H2 9579   1.642   5.412   9.146
 3113WAT      O 9580   4.019   8.163   2.977
 3113WAT     H1 9581   3.986   8.208   3.060
 3113WAT     H2 9582   3.961   8.191   2.900
 3114WAT      O 9583   1.660   8.178   1.858
 3114WAT     H1 9584   1.566   8.152   1.881
 3114WAT     H2 9585   1.663   8.212   1.764
 3115WAT      O 9586   6.754   9.406   2.835
 3115WAT     H1 9587   6.822   9.392   2.907
 3115WAT     H2 9588   6.786   9.363   2.750
 3116WAT      O 9589   2.257   3.109   9.247
 3116WAT     H1 9590   2.335   3.146   9.195
 3116WAT     H2 9591   2.257   3.147   9.339
 3117WAT      O 9592   4.983   0.135   1.962
 3117WAT     H1 9593   5.024   0.226   1.972
 3117WAT     H2 9594   5.004   0.099   1.872
 3118WAT      O 9595   6.767   2.243   6.205
 3118WAT     H1 9596   6.754   2.190   6.122
 3118WAT     H2 9597   6.780   2.340   6.182
 3119WAT      O 9598   1.123   4.157   1.331
 3119WAT     H1 9599   1.104   4.086   1.263
 3119WAT     H2 9600   1.082   4.243   1.300
 3120WAT      O 9601   2.875   5.357   3.098
 3120WAT     H1 9602   2.951   5.302   3.065
 3120WAT     H2 9603   2.873   5.445   3.051
 3121WAT      O 9604   8.200   8.861   7.118
 3121WAT     H1 9605   8.146   8.792   7.072
 3121WAT     H2 9606   8.296   8.831   7.122
 3122WAT      O 9607   9.559   8.329   6.554
 3122WAT     H1 9608   9.505   8.304   6.474
 3122WAT     H2 9609   9.608   8.415   6.536
 3123WAT      O 9610   0.667   1.963   3.533
 3123WAT     H1 9611   0.592   2.008   3.582
 3123WAT     H2 9612   0.729   1.920   3.599
 3124WAT      O 9613   2.135   7.568   9.191
 3124WAT     H1 9614   2.063   7.500   9.207
 3124WAT     H2 9615   2.149   7.622   9.274
 3125WAT      O 9616   1.863   6.781   4.941
 3125WAT     H1 9617   1.884   6.875   4.967
 3125WAT     H2 9618   1.838   6.778   4.844
 3126WAT      O 9619   2.303   7.218   4.489
 3126WAT     H1 9620   2.321   7.120   4.504
 3126WAT     H2 9621   2.316   7.240   4.393
 3127WAT      O 9622   0.844   1.915   8.323
 3127WAT     H1 9623   0.821   2.002   8.366
 3127WAT     H2 9624   0.774   1.847   8.347
 3128WAT      O 9625   5.173   4.525   6.771
 3128WAT     H1 9626   5.227   4.549   6.690
 3128WAT     H2 9627   5.100   4.592   6.784
 3129WAT      O 9628   7.066   9.519   1.584
 3129WAT     H1 9629   6.987   9.495   1.640
 3129WAT     H2 9630   7.066   9.463   1.501
 3130WAT      O 9631   0.625   4.912   1.774
 3130WAT     H1 9632   0.621   5.004   1.814
 3130WAT     H2 9633   0.719   4.891   1.749
 3131WAT      O 9634   7.469   2.057   5.010
 3131WAT     H1 9635   7.525   2.117   4.953
 3131WAT     H2 9636   7.444   1.975   4.959
 3132WAT      O 9637   8.556   9.716   3.574
 3132WAT     H1 9638   8.511   9.728   3.663
 3132WAT     H2 9639   8.607   9.631   3.574
 3133WAT      O 9640   8.551   6.299   7.781
 3133WAT     H1 9641   8.503   6.350   7.852
 3133WAT     H2 9642   8.647   6.328   7.778
 3134WAT      O 9643   4.675   2.066   9.751
 3134WAT     H1 9644   4.705   1.971   9.748
 3134WAT     H2 9645   4.661   2.093   9.847
 3135WAT      O 9646   3.704   5.589   1.405
 3135WAT     H1 9647   3.765   5.510   1.399
 3135WAT     H2 9648   3.674   5.600   1.500
 3136WAT      O 9649   3.805   4.896   9.732
 3136WAT     H1 9650   3.878   4.831   9.753
 3136WAT     H2 9651   3.814   4.927   9.638
 3137WAT      O 9652   5.745   3.797   6.152
 3137WAT     H1 9653   5.746   3.761   6.058
 3137WAT     H2 9654   5.828   3.851   6.168
 3138WAT      O 9655   7.829   0.969   7.823
 3138WAT     H1 9656   7.811   0.879   7.783
 3138WAT     H2 9657   7.744   1.021   7.827
 3139WAT      O 9658   5.281   7.834   6.979
 3139WAT     H1 9659   5.313   7.927   6.965
 3139WAT     H2 9660   5.201   7.816   6.922
 3140WAT      O 9661   5.883   7.502   0.018
 3140WAT     H1 9662   5.836   7.590   0.029
 3140WAT     H2 9663   5.977   7.518  -0.013
 3141WAT      O 9664   1.588   0.498   5.725
 3141WAT     H1 9665   1.508   0.505   5.665
 3141WAT     H2 9666   1.628   0.407   5.715
 3142WAT      O 9667   5.809   0.634   8.641
 3142WAT     H1 9668   5.747   0.562   8.672
 3142WAT     H2 9669   5.769   0.681   8.562
 3143WAT      O 9670   4.226   8.645   8.782
 3143WAT     H1 9671   4.231   8.571   8.849
 3143WAT     H2 9672   4.138   8.692   8.792
 3144WAT      O 9673   1.205   8.976   0.514
 3144WAT     H1 9674   1.134   8.909   0.536
 3144WAT     H2 9675   1.206   9.048   0.585
 3145WAT      O 9676   4.748   9.496   9.429
 3145WAT     H1 9677   4.689   9.534   9.500
 3145WAT     H2 9678   4.698   9.425   9.379
 3146WAT      O 9679   1.818   8.685   7.592
 3146WAT     H1 9680   1.720   8.687   7.573
 3146WAT     H2 9681   1.865   8.752   7.536
 3147WAT      O 9682   5.474   1.802   7.235
 3147WAT     H1 9683   5.518   1.803   7.145
 3147WAT     H2 9684   5.413   1.881   7.243
 3148WAT      O 9685   6.195   6.337   4.959
 3148WAT     H1 9686   6.249   6.327   5.043
 3148WAT     H2 9687   6.197   6.251   4.908
 3149WAT      O 9688   7.524   4.915   7.243
 3149WAT     H1 9689   7.542   4.967   7.326
 3149WAT     H2 9690   7.464   4.968   7.183
 3150WAT      O 9691   1.017   5.733   0.011
 3150WAT     H1 9692   0.949   5.708   0.079
 3150WAT     H2 9693   1.109   5.720   0.049
 3151WAT      O 9694   4.864   8.804   6.407
 3151WAT     H1 9695   4.794   8.810   6.336
 3151WAT     H2 9696   4.896   8.896   6.430
 3152WAT      O 9697   6.420   9.259   5.291
 3152WAT     H1 9698   6.380   9.172   5.318
 3152WAT     H2 9699   6.519   9.249   5.282
 3153WAT      O 9700   8.682   8.173   0.039
 3153WAT     H1 9701   8.710   8.215   0.125
 3153WAT     H2 9702   8.647   8.081   0.055
 3154WAT      O 9703   9.115   2.558   7.983
 3154WAT     H1 9704   9.182   2.483   7.987
 3154WAT     H2 9705   9.033   2.532   8.033
 3155WAT      O 9706   4.297   8.049   3.122
 3155WAT     H1 9707   4.345   8.134   3.146
 3155WAT     H2 9708   4.199   8.059   3.140
 3156WAT      O 9709   1.667   7.294   4.560
 3156WAT     H1 9710   1.729   7.234   4.610
 3156WAT     H2 9711   1.706   7.386   4.555
 3157WAT      O 9712   0.320   0.317   5.018
 3157WAT     H1 9713   0.365   0.228   5.021
 3157WAT     H2 9714   0.389   0.389   5.018
 3158WAT      O 9715   9.115   0.297   7.568
 3158WAT     H1 9716   9.015   0.291   7.568
 3158WAT     H2 9717   9.149   0.280   7.661
 3159WAT      O 9718   5.312   5.360   9.451
 3159WAT     H1 9719   5.379   5.286   9.446
 3159WAT     H2 9720   5.319   5.405   9.540
 3160WAT      O 9721   3.116   2.451   6.322
 3160WAT     H1 9722   3.097   2.494   6.234
 3160WAT     H2 9723   3.104   2.352   6.314
 3161WAT      O 9724   2.930   3.459   1.734
 3161WAT     H1 9725   3.016   3.462   1.785
 3161WAT     H2 9726   2.860   3.510   1.784
 3162WAT      O 9727   9.887   4.187   7.365
 3162WAT     H1 9728   9.855   4.156   7.455
 3162WAT     H2 9729   9.907   4.285   7.370
 3163WAT      O 9730   6.234   5.584   3.992
 3163WAT     H1 9731   6.325   5.574   3.951
 3163WAT     H2 9732   6.214   5.681   4.004
 3164WAT      O 9733   6.869   0.867   4.737
 3164WAT     H1 9734   6.862   0.896   4.832
 3164WAT     H2 9735   6.881   0.947   4.678
 3165WAT      O 9736   7.092   1.722   5.165
 3165WAT     H1 9737   7.138   1.722   5.076
 3165WAT     H2 9738   7.133   1.791   5.224
 3166WAT      O 9739   5.425   2.293   0.887
 3166WAT     H1 9740   5.519   2.327   0.877
 3166WAT     H2 9741   5.375   2.309   0.802
 3167WAT      O 9742   0.652   7.402   0.717
 3167WAT     H1 9743   0.595   7.464   0.663
 3167WAT     H2 9744   0.646   7.428   0.813
 3168WAT      O 9745   1.632   4.969   6.282
 3168WAT     H1 9746   1.544   4.975   6.327
 3168WAT     H2 9747   1.646   4.875   6.250
 3169WAT      O 9748   5.135   1.478   0.207
 3169WAT     H1 9749   5.198   1.549   0.238
 3169WAT     H2 9750   5.096   1.431   0.286
 3170WAT      O 9751   2.558   3.025   0.400
 3170WAT     H1 9752   2.490   3.075   0.453
 3170WAT     H2 9753   2.642   3.079   0.393
 3171WAT      O 9754   6.066   8.248   9.475
 3171WAT     H1 9755   6.145   8.282   9.527
 3171WAT     H2 9756   6.004   8.200   9.537
 3172WAT      O 9757   3.951   2.214   7.945
 3172WAT     H1 9758   3.904   2.169   8.020
 3172WAT     H2 9759   3.987   2.302   7.976
 3173WAT      O 9760   6.615   0.536   0.195
 3173WAT     H1 9761   6.563   0.452   0.181
 3173WAT     H2 9762   6.713   0.516   0.190
 3174WAT      O 9763   4.707   5.270   0.188
 3174WAT     H1 9764   4.622   5.308   0.226
 3174WAT     H2 9765   4.785   5.320   0.225
 3175WAT      O 9766   8.743   3.157   2.364
 3175WAT     H1 9767   8.814   3.087   2.375
 3175WAT     H2 9768   8.664   3.117   2.318
 3176WAT      O 9769   2.717   3.222   6.497
 3176WAT     H1 9770   2.731   3.314   6.532
 3176WAT     H2 9771   2.622   3.211   6.467
 3177WAT      O 9772   8.596   7.828   2.724
 3177WAT     H1 9773   8.550   7.837   2.812
 3177WAT     H2 9774   8.532   7.792   2.656
 3178WAT      O 9775   0.323   1.361   5.066
 3178WAT     H1 9776   0.350   1.444   5.019
 3178WAT     H2 9777   0.275   1.385   5.151
 3179WAT      O 9778   4.925   2.144   6.945
 3179WAT     H1 9779   4.918   2.067   6.882
 3179WAT     H2 9780   4.849   2.141   7.009
 3180WAT      O 9781   1.361   5.995   3.543
 3180WAT     H1 9782   1.315   6.028   3.625
 3180WAT     H2 9783   1.346   6.060   3.468
 3181WAT      O 9784   5.272   3.596   8.798
 3181WAT     H1 9785   5.192   3.623   8.744
 3181WAT     H2 9786   5.242   3.560   8.886
 3182WAT      O 9787   5.573   5.635   7.050
 3182WAT     H1 9788   5.528   5.637   6.961
 3182WAT     H2 9789   5.515   5.680   7.118
 3183WAT      O 9790   9.098   3.374   8.608
 3183WAT     H1 9791   9.068   3.375   8.513
 3183WAT     H2 9792   9.176   3.435   8.619
 3184WAT      O 9793   5.981   1.264   6.535
 3184WAT     H1 9794   6.065   1.306   6.501
 3184WAT     H2 9795   5.928   1.227   6.458
 3185WAT      O 9796   1.184   9.089   7.295
 3185WAT     H1 9797   1.154   9.109   7.202
 3185WAT     H2 9798   1.272   9.134   7.312
 3186WAT      O 9799   4.130   9.483   2.975
 3186WAT     H1 9800   4.062   9.411   2.991
 3186WAT     H2 9801   4.172   9.510   3.061
 3187WAT      O 9802   9.190   1.615   7.015
 3187WAT     H1 9803   9.272   1.565   7.046
 3187WAT     H2 9804   9.142   1.560   6.948
 3188WAT      O 9805   6.386   3.152   1.576
 3188WAT     H1 9806   6.352   3.061   1.601
 3188WAT     H2 9807   6.397   3.207   1.659
 3189WAT      O 9808   1.319   8.750   3.849
 3189WAT     H1 9809   1.413   8.724   3.870
 3189WAT     H2 9810   1.264   8.746   3.932
 3190WAT      O 9811   2.860   3.557   9.141
 3190WAT     H1 9812   2.871   3.475   9.085
 3190WAT     H2 9813   2.943   3.614   9.133
 3191WAT      O 9814   7.744   7.607   7.904
 3191WAT     H1 9815   7.683   7.527   7.908
 3191WAT     H2 9816   7.736   7.650   7.814
 3192WAT      O 9817   4.008   7.071   9.437
 3192WAT     H1 9818   4.010   7.171   9.445
 3192WAT     H2 9819   3.915   7.042   9.413
 3193WAT      O 9820   3.960   0.219   5.084
 3193WAT     H1 9821   3.937   0.293   5.021
 3193WAT     H2 9822   4.055   0.192   5.071
 3194WAT      O 9823   7.427   6.336   1.025
 3194WAT     H1 9824   7.509   6.318   1.078
 3194WAT     H2 9825   7.439   6.301   0.932
 3195WAT      O 9826   5.964   0.152   4.255
 3195WAT     H1 9827   5.941   0.206   4.335
 3195WAT     H2 9828   5.897   0.169   4.182
 3196WAT      O 9829   1.635   9.445   3.824
 3196WAT     H1 9830   1.597   9.412   3.911
 3196WAT     H2 9831   1.560   9.465   3.761
 3197WAT      O 9832   1.577   9.020   1.588
 3197WAT     H1 9833   1.526   9.021   1.502
 3197WAT     H2 9834   1.673   8.998   1.570
 3198WAT      O 9835   9.861   0.868   3.872
 3198WAT     H1 9836   9.800   0.832   3.943
 3198WAT     H2 9837   9.814   0.940   3.821
 3199WAT      O 9838   3.053   3.092   7.449
 3199WAT     H1 9839   3.008   3.104   7.360
 3199WAT     H2 9840   3.065   2.995   7.467
 3200WAT      O 9841   3.915   5.898   1.171
 3200WAT     H1 9842   3.945   5.849   1.253
 3200WAT     H2 9843   3.885   5.990   1.196
 3201WAT      O 9844   8.396   1.655   8.103
 3201WAT     H1 9845   8.389   1.689   8.197
 3201WAT     H2 9846   8.413   1.732   8.042
 3202WAT      O 9847   2.046   4.282   3.896
 3202WAT     H1 9848   2.109   4.206   3.911
 3202WAT     H2 9849   2.059   4.350   3.968
 3203WAT      O 9850   8.185   3.136   4.753
 3203WAT     H1 9851   8.086   3.139   4.744
 3203WAT     H2 9852   8.222   3.229   4.754
 3204WAT      O 9853   8.333   7.176   8.492
 3204WAT     H1 9854   8.279   7.225   8.424
 3204WAT     H2 9855   8.310   7.210   8.583
 3205WAT      O 9856   1.420   3.984   1.998
 3205WAT     H1 9857   1.437   4.022   1.908
 3205WAT     H2 9858   1.401   3.886   1.990
 3206WAT      O 9859   3.331   5.154   0.044
 3206WAT     H1 9860   3.413   5.109   0.080
 3206WAT     H2 9861   3.351   5.197  -0.044
 3207WAT      O 9862   2.750   7.420   4.105
 3207WAT     H1 9863   2.759   7.512   4.068
 3207WAT     H2 9864   2.654   7.395   4.110
 3208WAT      O 9865   9.322   7.703   7.930
 3208WAT     H1 9866   9.409   7.747   7.957
 3208WAT     H2 9867   9.331   7.668   7.837
 3209WAT      O 9868   4.480   9.508   8.978
 3209WAT     H1 9869   4.410   9.579   8.981
 3209WAT     H2 9870   4.568   9.549   8.953
 3210WAT      O 9871   6.662   9.074   9.003
 3210WAT     H1 9872   6.694   9.001   8.941
 3210WAT     H2 9873   6.621   9.147   8.949
 3211WAT      O 9874   9.646   5.276   6.549
 3211WAT     H1 9875   9.629   5.374   6.557
 3211WAT     H2 9876   9.566   5.232   6.507
 3212WAT      O 9877   2.082   0.603   2.788
 3212WAT     H1 9878   2.080   0.684   2.847
 3212WAT     H2 9879   2.176   0.586   2.759
 3213WAT      O 9880   5.306   2.973   4.919
 3213WAT     H1 9881   5.347   3.057   4.954
 3213WAT     H2 9882   5.281   2.985   4.823
 3214WAT      O 9883   1.719   3.808   7.929
 3214WAT     H1 9884   1.732   3.822   8.028
 3214WAT     H2 9885   1.740   3.893   7.881
 3215WAT      O 9886   4.899   0.403   8.790
 3215WAT     H1 9887   4.945   0.485   8.823
 3215WAT     H2 9888   4.963   0.348   8.736
 3216WAT      O 9889   8.517   7.297   6.908
 3216WAT     H1 9890   8.447   7.230   6.885
 3216WAT     H2 9891   8.499   7.334   6.999
 3217WAT      O 9892   1.758   5.648   0.995
 3217WAT     H1 9893   1.675   5.655   1.051
 3217WAT     H2 9894   1.784   5.552   0.987
 3218WAT      O 9895   4.848   6.366   9.077
 3218WAT     H1 9896   4.871   6.463   9.079
 3218WAT     H2 9897   4.838   6.335   8.983
 3219WAT      O 9898   3.241   0.989   1.647
 3219WAT     H1 9899   3.189   1.071   1.623
 3219WAT     H2 9900   3.337   1.013   1.661
 3220WAT      O 9901   6.770   1.127   6.121
 3220WAT     H1 9902   6.817   1.198   6.174
 3220WAT     H2 9903   6.836   1.083   6.059
 3221WAT      O 9904   6.082   2.836   6.082
 3221WAT     H1 9905   6.113   2.828   5.987
 3221WAT     H2 9906   5.989   2.800   6.090
 3222WAT      O 9907   2.766   9.313   3.976
 3222WAT     H1 9908   2.690   9.337   3.915
 3222WAT     H2 9909   2.737   9.240   4.037
 3223WAT      O 9910   2.509   5.074   1.774
 3223WAT     H1 9911   2.439   5.135   1.734
 3223WAT     H2 9912   2.587   5.069   1.712
 3224WAT      O 9913   8.418   4.136   4.140
 3224WAT     H1 9914   8.467   4.076   4.204
 3224WAT     H2 9915   8.382   4.215   4.190
 3225WAT      O 9916   8.506   5.401   7.639
 3225WAT     H1 9917   8.590   5.423   7.589
 3225WAT     H2 9918   8.442   5.355   7.576
 3226WAT      O 9919   5.056   4.717   1.601
 3226WAT     H1 9920   5.004   4.635   1.624
 3226WAT     H2 9921   5.013   4.764   1.524
 3227WAT      O 9922   1.734   7.850   7.116
 3227WAT     H1 9923   1.662   7.911   7.149
 3227WAT     H2 9924   1.694   7.783   7.054
 3228WAT      O 9925   5.957   9.345   8.514
 3228WAT     H1 9926   6.039   9.360   8.569
 3228WAT     H2 9927   5.939   9.426   8.457
 3229WAT      O 9928   8.867   6.790   9.737
 3229WAT     H1 9929   8.852   6.712   9.798
 3229WAT     H2 9930   8.785   6.847   9.736
 3230WAT      O 9931   8.812   2.939   8.011
 3230WAT     H1 9932   8.789   2.873   7.940
 3230WAT     H2 9933   8.908   2.966   8.001
 3231WAT      O 9934   7.685   5.943   6.940
 3231WAT     H1 9935   7.605   5.991   6.904
 3231WAT     H2 9936   7.681   5.847   6.914
 3232WAT      O 9937   6.845   0.229   0.458
 3232WAT     H1 9938   6.903   0.200   0.535
 3232WAT     H2 9939   6.752   0.196   0.472
 3233WAT      O 9940   2.102   0.555   9.568
 3233WAT     H1 9941   2.201   0.540   9.557
 3233WAT     H2 9942   2.083   0.653   9.566
 3234WAT      O 9943   7.496   2.629   5.232
 3234WAT     H1 9944   7.564   2.664   5.297
 3234WAT     H2 9945   7.512   2.670   5.142
 3235WAT      O 9946   5.347   1.303   2.773
 3235WAT     H1 9947   5.415   1.253   2.720
 3235WAT     H2 9948   5.263   1.250   2.779
 3236WAT      O 9949   0.806   8.313   6.789
 3236WAT     H1 9950   0.809   8.254   6.870
 3236WAT     H2 9951   0.895   8.309   6.743
 3237WAT      O 9952   7.880   4.044   1.326
 3237WAT     H1 9953   7.878   3.950   1.292
 3237WAT     H2 9954   7.936   4.049   1.408
 3238WAT      O 9955   8.181   2.227   2.514
 3238WAT     H1 9956   8.225   2.195   2.431
 3238WAT     H2 9957   8.215   2.318   2.537
 3239WAT      O 9958   9.420   1.313   6.730
 3239WAT     H1 9959   9.350   1.300   6.660
 3239WAT     H2 9960   9.508   1.335   6.686
 3240WAT      O 9961   9.759   5.829   0.447
 3240WAT     H1 9962   9.686   5.793   0.505
 3240WAT     H2 9963   9.847   5.795   0.479
 3241WAT      O 9964   3.983   1.457   7.267
 3241WAT     H1 9965   4.001   1.359   7.274
 3241WAT     H2 9966   3.885   1.474   7.282
 3242WAT      O 9967   1.537   6.656   9.652
 3242WAT     H1 9968   1.479   6.588   9.608
 3242WAT     H2 9969   1.480   6.719   9.705
 3243WAT      O 9970   1.292   0.807   4.067
 3243WAT     H1 9971   1.207   0.787   4.019
 3243WAT     H2 9972   1.330   0.893   4.032
 3244WAT      O 9973   0.653   2.756   7.595
 3244WAT     H1 9974   0.710   2.812   7.655
 3244WAT     H2 9975   0.639   2.666   7.636
 3245WAT      O 9976   9.675   1.634   4.322
 3245WAT     H1 9977   9.701   1.638   4.226
 3245WAT     H2 9978   9.576   1.651   4.331
 3246WAT      O 9979   3.226   1.792   2.697
 3246WAT     H1 9980   3.295   1.806   2.768
 3246WAT     H2 9981   3.217   1.694   2.678
 3247WAT      O 9982   0.167   3.505   4.632
 3247WAT     H1 9983   0.096   3.436   4.616
 3247WAT     H2 9984   0.257   3.464   4.618
 3248WAT      O 9985   0.322   1.183   0.050
 3248WAT     H1 9986   0.397   1.121   0.073
 3248WAT     H2 9987   0.294   1.234   0.132
 3249WAT      O 9988   5.439   4.893   2.372
 3249WAT     H1 9989   5.454   4.810   2.318
 3249WAT     H2 9990   5.516   4.907   2.434
 3250WAT      O 9991   4.571   4.164   3.569
 3250WAT     H1 9992   4.625   4.202   3.644
 3250WAT     H2 9993   4.539   4.073   3.594
 3251WAT      O 9994   1.419   4.302   3.670
 3251WAT     H1 9995   1.323   4.324   3.688
 3251WAT     H2 9996   1.478   4.365   3.720
 3252WAT      O 9997   4.209   0.112   6.296
 3252WAT     H1 9998   4.147   0.096   6.219
 3252WAT     H2 9999   4.303   0.121   6.262
 3253WAT      O10000   7.265   1.443   8.811
 3253WAT     H110001   7.214   1.523   8.779
 3253WAT     H210002   7.201   1.369   8.832
 3254WAT      O10003   5.119   3.703   1.378
 3254WAT     H110004   5.048   3.644   1.341
 3254WAT     H210005   5.163   3.754   1.304
 3255WAT      O10006   2.853   7.352   0.746
 3255WAT     H110007   2.764   7.308   0.762
 3255WAT     H210008   2.919   7.285   0.713
 3256WAT      O10009   6.000   4.177   8.881
 3256WAT     H110010   5.968   4.272   8.886
 3256WAT     H210011   5.997   4.146   8.786
 3257WAT      O10012   1.593   4.080   2.946
 3257WAT     H110013   1.496   4.067   2.928
 3257WAT     H210014   1.610   4.076   3.045
 3258WAT      O10015   7.569   6.701   9.599
 3258WAT     H110016   7.485   6.684   9.651
 3258WAT     H210017   7.550   6.768   9.526
 3259WAT      O10018   1.402   8.298   5.157
 3259WAT     H110019   1.347   8.358   5.216
 3259WAT     H210020   1.418   8.343   5.069
 3260WAT      O10021   4.999   8.285   8.146
 3260WAT     H110022   4.907   8.323   8.134
 3260WAT     H210023   5.066   8.350   8.109
 3261WAT      O10024   4.296   0.146   7.149
 3261WAT     H110025   4.280   0.055   7.110
 3261WAT     H210026   4.393   0.156   7.170
 3262WAT      O10027   2.803   1.840   3.291
 3262WAT     H110028   2.794   1.934   3.324
 3262WAT     H210029   2.734   1.822   3.221
 3263WAT      O10030   6.643   8.414   6.484
 3263WAT     H110031   6.719   8.401   6.421
 3263WAT     H210032   6.611   8.326   6.518
 3264WAT      O10033   6.066   3.369   0.688
 3264WAT     H110034   6.025   3.457   0.713
 3264WAT     H210035   6.089   3.318   0.771
 3265WAT      O10036   0.148   9.430   5.120
 3265WAT     H110037   0.082   9.420   5.045
 3265WAT     H210038   0.100   9.424   5.208
 3266WAT      O10039   1.337   7.723   5.799
 3266WAT     H110040   1.246   7.746   5.833
 3266WAT     H210041   1.381   7.806   5.765
 3267WAT      O10042   5.367   7.493   1.678
 3267WAT     H110043   5.464   7.508   1.659
 3267WAT     H210044   5.357   7.432   1.757
 3268WAT      O10045   7.482   4.261   2.014
 3268WAT     H110046   7.502   4.204   1.934
 3268WAT     H210047   7.566   4.277   2.065
 3269WAT      O10048   6.530   0.353   8.944
 3269WAT     H110049   6.541   0.310   9.033
 3269WAT     H210050   6.582   0.438   8.941
 3270WAT      O10051   0.883   8.751   6.037
 3270WAT     H110052   0.981   8.745   6.057
 3270WAT     H210053   0.870   8.790   5.946
 3271WAT      O10054   4.788   8.739   7.749
 3271WAT     H110055   4.766   8.730   7.652
 3271WAT     H210056   4.706   8.767   7.799
 3272WAT      O10057   0.019   8.253   0.827
 3272WAT     H110058   0.025   8.225   0.731
 3272WAT     H210059   0.054   8.346   0.836
 3273WAT      O10060   3.203   7.895   7.230
 3273WAT     H110061   3.187   7.806   7.187
 3273WAT     H210062   3.283   7.938   7.188
 3274WAT      O10063   6.898   9.772   8.183
 3274WAT     H110064   6.953   9.699   8.224
 3274WAT     H210065   6.855   9.738   8.099
 3275WAT      O10066   9.625   6.146   2.108
 3275WAT     H110067   9.703   6.208   2.111
 3275WAT     H210068   9.614   6.109   2.016
 3276WAT      O10069   6.020   6.139   4.187
 3276WAT     H110070   6.066   6.226   4.206
 3276WAT     H210071   5.942   6.129   4.250
 3277WAT      O10072   0.037   0.610   7.864
 3277WAT     H110073   0.118   0.665   7.885
 3277WAT     H210074   0.030   0.534   7.929
 3278WAT      O10075   2.316   0.457   1.823
 3278WAT     H110076   2.313   0.389   1.895
 3278WAT     H210077   2.269   0.422   1.742
 3279WAT      O10078   6.174   6.727   0.119
 3279WAT     H110079   6.176   6.661   0.194
 3279WAT     H210080   6.178   6.679   0.032
 3280WAT      O10081   3.707   0.974   0.717
 3280WAT     H110082   3.734   1.056   0.767
 3280WAT     H210083   3.682   0.999   0.623
 3281WAT      O10084   9.623   1.817   2.898
 3281WAT     H110085   9.661   1.797   2.807
 3281WAT     H210086   9.631   1.915   2.915
 3282WAT      O10087   5.994   6.474   5.094
 3282WAT     H110088   6.074   6.436   5.046
 3282WAT     H210089   5.985   6.571   5.070
 3283WAT      O10090   0.588   4.428   1.650
 3283WAT     H110091   0.596   4.389   1.742
 3283WAT     H210092   0.527   4.507   1.653
 3284WAT      O10093   8.398   0.044   7.054
 3284WAT     H110094   8.480   0.053   6.997
 3284WAT     H210095   8.372  -0.053   7.059
 3285WAT      O10096   9.160   7.248   6.625
 3285WAT     H110097   9.123   7.155   6.624
 3285WAT     H210098   9.183   7.276   6.532
 3286WAT      O10099   1.219   5.816   0.355
 3286WAT     H110100   1.277   5.857   0.426
 3286WAT     H210101   1.123   5.836   0.374
 3287WAT      O10102   1.537   4.071   9.053
 3287WAT     H110103   1.575   4.038   8.966
 3287WAT     H210104   1.482   3.999   9.095
 3288WAT      O10105   3.991   2.104   2.770
 3288WAT     H110106   4.011   2.009   2.746
 3288WAT     H210107   3.995   2.114   2.870
 3289WAT      O10108   0.344   9.492   8.784
 3289WAT     H110109   0.399   9.532   8.710
 3289WAT     H210110   0.247   9.496   8.759
 3290WAT      O10111   0.231   2.917   5.685
 3290WAT     H110112   0.327   2.908   5.660
 3290WAT     H210113   0.190   2.992   5.633
 3291WAT      O10114   1.453   9.362   6.919
 3291WAT     H110115   1.466   9.302   6.840
 3291WAT     H210116   1.533   9.357   6.978
 3292WAT      O10117   1.069   1.734   8.315
 3292WAT     H110118   1.092   1.795   8.391
 3292WAT     H210119   0.994   1.773   8.262
 3293WAT      O10120   1.957   9.817   9.041
 3293WAT     H110121   2.025   9.882   9.075
 3293WAT     H210122   1.978   9.725   9.074
 3294WAT      O10123   8.066   9.829   1.555
 3294WAT     H110124   8.140   9.846   1.620
 3294WAT     H210125   8.022   9.915   1.530
 3295WAT      O10126   0.510   1.832   5.902
 3295WAT     H110127   0.430   1.886   5.876
 3295WAT     H210128   0.594   1.880   5.874
 3296WAT      O10129   1.817   9.399   3.534
 3296WAT     H110130   1.813   9.363   3.627
 3296WAT     H210131   1.769   9.336   3.472
 3297WAT      O10132   2.893   6.687   9.011
 3297WAT     H110133   2.914   6.605   9.064
 3297WAT     H210134   2.925   6.768   9.060
 3298WAT      O10135   7.303   4.862   1.104
 3298WAT     H110136   7.388   4.883   1.153
 3298WAT     H210137   7.318   4.871   1.006
 3299WAT      O10138   6.399   9.309   7.430
 3299WAT     H110139   6.338   9.354   7.366
 3299WAT     H210140   6.432   9.223   7.390
 3300WAT      O10141   8.050   0.946   5.509
 3300WAT     H110142   8.069   0.971   5.414
 3300WAT     H210143   7.998   1.019   5.553
 3301WAT      O10144   3.286   2.517   4.649
 3301WAT     H110145   3.260   2.553   4.738
 3301WAT     H210146   3.211   2.532   4.584
 3302WAT      O10147   8.912   3.988   0.982
 3302WAT     H110148   8.941   3.935   0.902
 3302WAT     H210149   8.913   3.929   1.063
 3303WAT      O10150   9.826   6.485   6.322
 3303WAT     H110151   9.835   6.525   6.231
 3303WAT     H210152   9.824   6.385   6.315
 3304WAT      O10153   0.693   8.887   2.011
 3304WAT     H110154   0.653   8.863   2.099
 3304WAT     H210155   0.641   8.963   1.971
 3305WAT      O10156   0.035   8.472   3.089
 3305WAT     H110157   0.058   8.377   3.107
 3305WAT     H210158   0.092   8.532   3.145
 3306WAT      O10159   4.640   0.455   5.633
 3306WAT     H110160   4.613   0.499   5.719
 3306WAT     H210161   4.722   0.400   5.649
 3307WAT      O10162   3.400   6.422   5.616
 3307WAT     H110163   3.369   6.422   5.521
 3307WAT     H210164   3.485   6.369   5.623
 3308WAT      O10165   8.138   5.203   4.929
 3308WAT     H110166   8.067   5.256   4.883
 3308WAT     H210167   8.107   5.109   4.942
 3309WAT      O10168   1.812   1.812   6.738
 3309WAT     H110169   1.727   1.767   6.710
 3309WAT     H210170   1.871   1.747   6.785
 3310WAT      O10171   7.795   1.471   5.787
 3310WAT     H110172   7.750   1.382   5.793
 3310WAT     H210173   7.795   1.514   5.877
 3311WAT      O10174   3.893   9.394   7.934
 3311WAT     H110175   3.933   9.422   7.847
 3311WAT     H210176   3.954   9.330   7.980
 3312WAT      O10177   7.737   8.331   0.505
 3312WAT     H110178   7.665   8.272   0.466
 3312WAT     H210179   7.824   8.310   0.462
 3313WAT      O10180   7.869   3.045   7.623
 3313WAT     H110181   7.844   3.139   7.598
 3313WAT     H210182   7.967   3.031   7.605
 3314WAT      O10183   2.387   4.764   8.647
 3314WAT     H110184   2.300   4.730   8.681
 3314WAT     H210185   2.372   4.822   8.567
 3315WAT      O10186   6.644   7.835   8.215
 3315WAT     H110187   6.658   7.920   8.164
 3315WAT     H210188   6.697   7.838   8.300
 3316WAT      O10189   0.888   3.573   4.765
 3316WAT     H110190   0.939   3.535   4.688
 3316WAT     H210191   0.949   3.633   4.818
 3317WAT      O10192   7.492   0.851   8.436
 3317WAT     H110193   7.438   0.867   8.353
 3317WAT     H210194   7.518   0.755   8.440
 3318WAT      O10195   9.678   6.569   3.503
 3318WAT     H110196   9.650   6.646   3.561
 3318WAT     H210197   9.777   6.564   3.500
 3319WAT      O10198   9.613   5.669   3.752
 3319WAT     H110199   9.607   5.730   3.831
 3319WAT     H210200   9.708   5.665   3.721
 3320WAT      O10201   4.574   7.974   8.142
 3320WAT     H110202   4.489   7.952   8.189
 3320WAT     H210203   4.619   7.890   8.112
 3321WAT      O10204   8.180   2.359   9.390
 3321WAT     H110205   8.139   2.419   9.321
 3321WAT     H210206   8.155   2.264   9.371
 3322WAT      O10207   5.014   9.564   8.181
 3322WAT     H110208   4.980   9.523   8.266
 3322WAT     H210209   4.968   9.651   8.165
 3323WAT      O10210   8.208   8.694   1.512
 3323WAT     H110211   8.108   8.697   1.517
 3323WAT     H210212   8.236   8.680   1.417
 3324WAT      O10213   5.797   3.403   7.111
 3324WAT     H110214   5.869   3.458   7.069
 3324WAT     H210215   5.784   3.319   7.059
 3325WAT      O10216   9.508   3.967   5.127
 3325WAT     H110217   9.447   4.043   5.152
 3325WAT     H210218   9.597   3.980   5.172
 3326WAT      O10219   8.947   2.560   3.573
 3326WAT     H110220   8.895   2.488   3.527
 3326WAT     H210221   8.908   2.649   3.549
 3327WAT      O10222   8.790   8.841   6.066
 3327WAT     H110223   8.817   8.911   6.133
 3327WAT     H210224   8.814   8.751   6.101
 3328WAT      O10225   4.605   0.437   8.695
 3328WAT     H110226   4.683   0.378   8.717
 3328WAT     H210227   4.610   0.520   8.749
 3329WAT      O10228   8.397   6.442   8.816
 3329WAT     H110229   8.385   6.525   8.761
 3329WAT     H210230   8.479   6.394   8.786
 3330WAT      O10231   8.390   3.737   7.133
 3330WAT     H110232   8.460   3.666   7.123
 3330WAT     H210233   8.323   3.709   7.201
 3331WAT      O10234   6.009   7.338   4.097
 3331WAT     H110235   5.923   7.379   4.068
 3331WAT     H210236   6.013   7.337   4.197
 3332WAT      O10237   9.268   5.159   0.034
 3332WAT     H110238   9.169   5.152   0.025
 3332WAT     H210239   9.296   5.127   0.124
 3333WAT      O10240   8.286   6.371   5.809
 3333WAT     H110241   8.215   6.438   5.835
 3333WAT     H210242   8.367   6.386   5.865
 3334WAT      O10243   1.668   3.600   0.161
 3334WAT     H110244   1.639   3.550   0.080
 3334WAT     H210245   1.707   3.537   0.228
 3335WAT      O10246   0.834   7.540   3.591
 3335WAT     H110247   0.896   7.469   3.624
 3335WAT     H210248   0.882   7.596   3.523
 3336WAT      O10249   6.291   0.117   1.814
 3336WAT     H110250   6.322   0.211   1.806
 3336WAT     H210251   6.253   0.087   1.727
 3337WAT      O10252   4.581   2.675   4.046
 3337WAT     H110253   4.670   2.709   4.076
 3337WAT     H210254   4.509   2.723   4.097
 3338WAT      O10255   9.541   8.217   1.074
 3338WAT     H110256   9.640   8.228   1.069
 3338WAT     H210257   9.512   8.140   1.017
 3339WAT      O10258   4.311   5.588   3.045
 3339WAT     H110259   4.406   5.602   3.020
 3339WAT     H210260   4.252   5.616   2.969
 3340WAT      O10261   2.007   9.018   0.514
 3340WAT     H110262   1.925   8.999   0.569
 3340WAT     H210263   2.017   8.948   0.444
 3341WAT      O10264   9.107   1.103   5.580
 3341WAT     H110265   9.008   1.091   5.565
 3341WAT     H210266   9.156   1.031   5.531
 3342WAT      O10267   2.866   5.621   3.681
 3342WAT     H110268   2.928   5.556   3.638
 3342WAT     H210269   2.796   5.649   3.615
 3343WAT      O10270   1.505   6.200   1.673
 3343WAT     H110271   1.495   6.165   1.766
 3343WAT     H210272   1.420   6.245   1.645
 3344WAT      O10273   3.816   9.123   4.086
 3344WAT     H110274   3.743   9.186   4.116
 3344WAT     H210275   3.872   9.169   4.017
 3345WAT      O10276   9.533   6.586   2.814
 3345WAT     H110277   9.509   6.668   2.762
 3345WAT     H210278   9.590   6.526   2.758
 3346WAT      O10279   0.176   0.081   2.551
 3346WAT     H110280   0.255   0.142   2.552
 3346WAT     H210281   0.092   0.136   2.554
 3347WAT      O10282   8.563   5.581   2.752
 3347WAT     H110283   8.535   5.524   2.829
 3347WAT     H210284   8.514   5.668   2.755
 3348WAT      O10285   1.131   4.158   7.977
 3348WAT     H110286   1.066   4.213   7.925
 3348WAT     H210287   1.166   4.085   7.918
 3349WAT      O10288   1.194   0.352   1.654
 3349WAT     H110289   1.128   0.343   1.729
 3349WAT     H210290   1.286   0.336   1.689
 3350WAT      O10291   8.325   6.050   3.371
 3350WAT     H110292   8.423   6.048   3.386
 3350WAT     H210293   8.305   6.020   3.277
 3351WAT      O10294   6.700   1.327   9.675
 3351WAT     H110295   6.657   1.334   9.766
 3351WAT     H210296   6.694   1.415   9.628
 3352WAT      O10297   5.969   1.133   9.139
 3352WAT     H110298   6.035   1.207   9.154
 3352WAT     H210299   5.877   1.171   9.130
 3353WAT      O10300   3.762   6.505   4.630
 3353WAT     H110301   3.854   6.498   4.667
 3353WAT     H210302   3.698   6.456   4.690
 3354WAT      O10303   0.955   9.487   3.765
 3354WAT     H110304   0.947   9.393   3.731
 3354WAT     H210305   0.910   9.494   3.854
 3355WAT      O10306   8.494   6.774   7.831
 3355WAT     H110307   8.462   6.868   7.847
 3355WAT     H210308   8.593   6.774   7.821
 3356WAT      O10309   1.970   2.211   0.122
 3356WAT     H110310   1.954   2.141   0.192
 3356WAT     H210311   2.011   2.168   0.041
 3357WAT      O10312   9.634   1.812   4.748
 3357WAT     H110313   9.643   1.718   4.713
 3357WAT     H210314   9.604   1.872   4.675
 3358WAT      O10315   1.510   9.518   4.405
 3358WAT     H110316   1.518   9.532   4.503
 3358WAT     H210317   1.557   9.432   4.380
 3359WAT      O10318   7.722   7.845   3.100
 3359WAT     H110319   7.624   7.826   3.093
 3359WAT     H210320   7.736   7.931   3.149
 3360WAT      O10321   5.655   2.371   8.543
 3360WAT     H110322   5.569   2.323   8.525
 3360WAT     H210323   5.698   2.395   8.457
 3361WAT      O10324   2.794   5.903   0.829
 3361WAT     H110325   2.776   5.834   0.899
 3361WAT     H210326   2.768   5.993   0.864
 3362WAT      O10327   7.152   2.760   0.449
 3362WAT     H110328   7.236   2.754   0.502
 3362WAT     H210329   7.105   2.846   0.472
 3363WAT      O10330   2.435   5.571   1.154
 3363WAT     H110331   2.475   5.563   1.246
 3363WAT     H210332   2.361   5.638   1.155
 3364WAT      O10333   5.989   4.898   3.337
 3364WAT     H110334   5.969   4.966   3.266
 3364WAT     H210335   6.001   4.945   3.424
 3365WAT      O10336   6.708   8.732   7.980
 3365WAT     H110337   6.652   8.715   7.899
 3365WAT     H210338   6.686   8.822   8.017
 3366WAT      O10339   4.874   8.286   5.459
 3366WAT     H110340   4.932   8.278   5.377
 3366WAT     H210341   4.795   8.343   5.438
 3367WAT      O10342   2.746   1.087   0.302
 3367WAT     H110343   2.740   1.043   0.212
 3367WAT     H210344   2.766   1.018   0.371
 3368WAT      O10345   4.819   2.636   9.041
 3368WAT     H110346   4.745   2.683   9.088
 3368WAT     H210347   4.810   2.650   8.942
 3369WAT      O10348   0.814   5.918   7.441
 3369WAT     H110349   0.910   5.902   7.462
 3369WAT     H210350   0.787   6.009   7.473
 3370WAT      O10351   5.695   5.318   6.840
 3370WAT     H110352   5.752   5.338   6.761
 3370WAT     H210353   5.599   5.328   6.815
 3371WAT      O10354   8.739   8.600   9.587
 3371WAT     H110355   8.788   8.515   9.569
 3371WAT     H210356   8.788   8.653   9.656
 3372WAT      O10357   7.869   7.707   7.313
 3372WAT     H110358   7.786   7.737   7.266
 3372WAT     H210359   7.943   7.772   7.294
 3373WAT      O10360   8.506   5.260   3.899
 3373WAT     H110361   8.589   5.219   3.861
 3373WAT     H210362   8.524   5.354   3.927
 3374WAT      O10363   8.692   0.341   5.902
 3374WAT     H110364   8.656   0.433   5.884
 3374WAT     H210365   8.616   0.278   5.913
 3375WAT      O10366   8.162   0.915   6.538
 3375WAT     H110367   8.174   0.964   6.624
 3375WAT     H210368   8.187   0.819   6.550
 3376WAT      O10369   1.912   1.372   0.161
 3376WAT     H110370   1.869   1.446   0.110
 3376WAT     H210371   1.910   1.392   0.258
 3377WAT      O10372   7.290   3.592   0.171
 3377WAT     H110373   7.286   3.691   0.166
 3377WAT     H210374   7.365   3.564   0.231
 3378WAT      O10375   7.427   1.643   6.650
 3378WAT     H110376   7.491   1.716   6.628
 3378WAT     H210377   7.341   1.657   6.600
 3379WAT      O10378   4.724   9.109   9.492
 3379WAT     H110379   4.809   9.161   9.500
 3379WAT     H210380   4.707   9.059   9.576
 3380WAT      O10381   1.430   1.582   6.185
 3380WAT     H110382   1.386   1.560   6.098
 3380WAT     H210383   1.362   1.616   6.250
 3381WAT      O10384   5.226   4.283   3.792
 3381WAT     H110385   5.142   4.323   3.758
 3381WAT     H210386   5.208   4.190   3.825
 3382WAT      O10387   9.537   3.969   3.713
 3382WAT     H110388   9.466   3.938   3.775
 3382WAT     H210389   9.528   3.922   3.625
 3383WAT      O10390   5.986   3.634   0.557
 3383WAT     H110391   5.975   3.697   0.480
 3383WAT     H210392   6.028   3.683   0.634
 3384WAT      O10393   2.350   0.852   9.377
 3384WAT     H110394   2.279   0.900   9.428
 3384WAT     H210395   2.336   0.868   9.279
 3385WAT      O10396   0.983   6.320   1.578
 3385WAT     H110397   0.906   6.316   1.642
 3385WAT     H210398   0.948   6.312   1.484
 3386WAT      O10399   7.974   0.507   3.433
 3386WAT     H110400   7.964   0.475   3.339
 3386WAT     H210401   7.945   0.603   3.439
 3387WAT      O10402   0.707   4.969   5.237
 3387WAT     H110403   0.697   4.903   5.163
 3387WAT     H210404   0.762   4.929   5.310
 3388WAT      O10405   0.426   8.877   6.412
 3388WAT     H110406   0.416   8.834   6.502
 3388WAT     H210407   0.517   8.918   6.405
 3389WAT      O10408   7.918   4.880   9.856
 3389WAT     H110409   8.012   4.885   9.889
 3389WAT     H210410   7.906   4.945   9.781
 3390WAT      O10411   8.736   7.104   1.069
 3390WAT     H110412   8.773   7.156   1.147
 3390WAT     H210413   8.718   7.166   0.993
 3391WAT      O10414   4.907   8.047   3.032
 3391WAT     H110415   4.963   8.108   3.088
 3391WAT     H210416   4.819   8.031   3.078
 3392WAT      O10417   7.612   6.164   2.092
 3392WAT     H110418   7.517   6.135   2.098
 3392WAT     H210419   7.654   6.159   2.183
 3393WAT      O10420   1.377   1.496   0.029
 3393WAT     H110421   1.317   1.570   0.059
 3393WAT     H210422   1.426   1.458   0.107
 3394WAT      O10423   6.337   2.980   9.877
 3394WAT     H110424   6.320   3.070   9.836
 3394WAT     H210425   6.349   2.912   9.805
 3395WAT      O10426   3.763   6.966   2.585
 3395WAT     H110427   3.672   6.931   2.609
 3395WAT     H210428   3.758   7.064   2.570
 3396WAT      O10429   1.069   4.091   9.865
 3396WAT     H110430   1.129   4.014   9.885
 3396WAT     H210431   0.997   4.095   9.934
 3397WAT      O10432   2.282   4.729   7.934
 3397WAT     H110433   2.199   4.711   7.881
 3397WAT     H210434   2.263   4.715   8.031
 3398WAT      O10435   3.646   2.974   8.256
 3398WAT     H110436   3.701   3.023   8.188
 3398WAT     H210437   3.705   2.914   8.310
 3399WAT      O10438   3.075   7.871   5.888
 3399WAT     H110439   3.081   7.929   5.806
 3399WAT     H210440   3.088   7.776   5.862
 3400WAT      O10441   2.305   8.143   6.451
 3400WAT     H110442   2.331   8.135   6.548
 3400WAT     H210443   2.359   8.217   6.409
 3401WAT      O10444   7.099   4.581   1.958
 3401WAT     H110445   7.054   4.602   1.871
 3401WAT     H210446   7.192   4.550   1.941
 3402WAT      O10447   3.492   5.674   2.348
 3402WAT     H110448   3.583   5.636   2.358
 3402WAT     H210449   3.498   5.764   2.305
 3403WAT      O10450   5.852   2.991   6.597
 3403WAT     H110451   5.838   2.902   6.640
 3403WAT     H210452   5.923   3.041   6.647
 3404WAT      O10453   4.850   0.877   5.751
 3404WAT     H110454   4.894   0.951   5.701
 3404WAT     H210455   4.858   0.792   5.699
 3405WAT      O10456   5.254   5.666   0.219
 3405WAT     H110457   5.264   5.743   0.282
 3405WAT     H210458   5.220   5.586   0.269
 3406WAT      O10459   9.697   2.483   8.687
 3406WAT     H110460   9.779   2.428   8.704
 3406WAT     H210461   9.617   2.438   8.727
 3407WAT      O10462   5.689   4.307   7.753
 3407WAT     H110463   5.608   4.248   7.752
 3407WAT     H210464   5.678   4.380   7.685
 3408WAT      O10465   6.337   1.309   0.596
 3408WAT     H110466   6.304   1.403   0.591
 3408WAT     H210467   6.437   1.308   0.589
 3409WAT      O10468   7.894   8.511   2.097
 3409WAT     H110469   7.930   8.588   2.150
 3409WAT     H210470   7.815   8.541   2.043
 3410WAT      O10471   6.407   3.658   6.144
 3410WAT     H110472   6.475   3.636   6.215
 3410WAT     H210473   6.382   3.575   6.095
 3411WAT      O10474   4.303   3.384   4.215
 3411WAT     H110475   4.336   3.379   4.309
 3411WAT     H210476   4.206   3.361   4.213
 3412WAT      O10477   4.746   2.720   6.913
 3412WAT     H110478   4.739   2.797   6.849
 3412WAT     H210479   4.832   2.726   6.964
 3413WAT      O10480   3.762   2.447   2.957
 3413WAT     H110481   3.753   2.421   2.860
 3413WAT     H210482   3.839   2.398   2.998
 3414WAT      O10483   7.969   8.652   5.412
 3414WAT     H110484   8.063   8.620   5.411
 3414WAT     H210485   7.912   8.586   5.461
 3415WAT      O10486   3.653   3.009   3.454
 3415WAT     H110487   3.577   3.073   3.442
 3415WAT     H210488   3.700   3.030   3.540
 3416WAT      O10489   8.246   0.429   3.027
 3416WAT     H110490   8.226   0.390   2.937
 3416WAT     H210491   8.189   0.509   3.042
 3417WAT      O10492   7.177   4.780   9.299
 3417WAT     H110493   7.164   4.682   9.282
 3417WAT     H210494   7.269   4.796   9.333
 3418WAT      O10495   6.659   1.587   1.833
 3418WAT     H110496   6.725   1.523   1.873
 3418WAT     H210497   6.669   1.587   1.734
 3419WAT      O10498   0.720   0.334   7.849
 3419WAT     H110499   0.720   0.332   7.949
 3419WAT     H210500   0.652   0.269   7.815
 3420WAT      O10501   3.054   8.118   7.248
 3420WAT     H110502   3.079   8.154   7.338
 3420WAT     H210503   3.116   8.043   7.223
 3421WAT      O10504   8.174   6.774   7.577
 3421WAT     H110505   8.238   6.728   7.638
 3421WAT     H210506   8.168   6.723   7.490
 3422WAT      O10507   4.915   9.310   1.425
 3422WAT     H110508   4.855   9.242   1.469
 3422WAT     H210509   4.888   9.321   1.329
 3423WAT      O10510   4.599   7.038   1.541
 3423WAT     H110511   4.696   7.050   1.521
 3423WAT     H210512   4.547   7.032   1.456
 3424WAT      O10513   9.821   2.562   3.034
 3424WAT     H110514   9.842   2.656   3.062
 3424WAT     H210515   9.745   2.527   3.088
 3425WAT      O10516   1.140   6.789   6.259
 3425WAT     H110517   1.042   6.779   6.276
 3425WAT     H210518   1.162   6.752   6.169
 3426WAT      O10519   2.419   4.935   7.447
 3426WAT     H110520   2.365   5.015   7.475
 3426WAT     H210521   2.437   4.878   7.527
 3427WAT      O10522   3.267   3.035   1.057
 3427WAT     H110523   3.356   3.001   1.029
 3427WAT     H210524   3.236   2.983   1.137
 3428WAT      O10525   2.680   5.162   5.375
 3428WAT     H110526   2.650   5.174   5.470
 3428WAT     H210527   2.715   5.069   5.363
 3429WAT      O10528   7.784   8.791   5.781
 3429WAT     H110529   7.705   8.795   5.842
 3429WAT     H210530   7.815   8.884   5.760
 3430WAT      O10531   6.203   5.112   6.439
 3430WAT     H110532   6.225   5.090   6.534
 3430WAT     H210533   6.115   5.070   6.414
 3431WAT      O10534   9.159   3.556   4.738
 3431WAT     H110535   9.171   3.492   4.662
 3431WAT     H210536   9.193   3.514   4.822
 3432WAT      O10537   6.972   5.113   5.387
 3432WAT     H110538   7.008   5.021   5.377
 3432WAT     H210539   6.874   5.114   5.364
 3433WAT      O10540   0.147   1.352   5.520
 3433WAT     H110541   0.205   1.273   5.498
 3433WAT     H210542   0.154   1.372   5.618
 3434WAT      O10543   1.379   8.754   1.390
 3434WAT     H110544   1.370   8.665   1.344
 3434WAT     H210545   1.341   8.748   1.482
 3435WAT      O10546   4.962   1.182   6.511
 3435WAT     H110547   5.024   1.246   6.466
 3435WAT     H210548   4.919   1.227   6.590
 3436WAT      O10549   5.541   7.106   2.050
 3436WAT     H110550   5.475   7.034   2.030
 3436WAT     H210551   5.492   7.191   2.071
 3437WAT      O10552   3.540   2.773   7.297
 3437WAT     H110553   3.553   2.760   7.199
 3437WAT     H210554   3.574   2.692   7.346
 3438WAT      O10555   2.389   7.732   8.213
 3438WAT     H110556   2.458   7.761   8.146
 3438WAT     H210557   2.298   7.750   8.177
 3439WAT      O10558   8.005   2.311   5.584
 3439WAT     H110559   7.999   2.247   5.661
 3439WAT     H210560   8.065   2.387   5.610
 3440WAT      O10561   0.008   4.629   7.177
 3440WAT     H110562  -0.086   4.663   7.186
 3440WAT     H210563   0.023   4.555   7.243
 3441WAT      O10564   6.131   5.678   2.294
 3441WAT     H110565   6.047   5.728   2.271
 3441WAT     H210566   6.149   5.610   2.223
 3442WAT      O10567   4.921   1.136   5.417
 3442WAT     H110568   4.983   1.185   5.355
 3442WAT     H210569   4.970   1.062   5.462
 3443WAT      O10570   6.621   4.774   4.919
 3443WAT     H110571   6.638   4.691   4.972
 3443WAT     H210572   6.611   4.751   4.822
 3444WAT      O10573   1.517   7.007   0.011
 3444WAT     H110574   1.482   6.916  -0.012
 3444WAT     H210575   1.616   7.004   0.018
 3445WAT      O10576   6.938   0.998   0.078
 3445WAT     H110577   6.890   1.004  -0.009
 3445WAT     H210578   6.909   0.916   0.127
 3446WAT      O10579   7.181   7.881   9.584
 3446WAT     H110580   7.173   7.885   9.485
 3446WAT     H210581   7.090   7.884   9.626
 3447WAT      O10582   6.034   9.791   8.911
 3447WAT     H110583   6.001   9.865   8.969
 3447WAT     H210584   5.994   9.704   8.940
 3448WAT      O10585   2.198   5.382   4.004
 3448WAT     H110586   2.122   5.324   3.975
 3448WAT     H210587   2.186   5.474   3.968
 3449WAT      O10588   2.765   4.210   9.032
 3449WAT     H110589   2.705   4.129   9.030
 3449WAT     H210590   2.711   4.292   9.011
 3450WAT      O10591   9.428   5.351   8.217
 3450WAT     H110592   9.359   5.373   8.148
 3450WAT     H210593   9.510   5.405   8.201
 3451WAT      O10594   6.840   2.035   7.874
 3451WAT     H110595   6.864   1.943   7.904
 3451WAT     H210596   6.832   2.038   7.775
 3452WAT      O10597   6.985   0.712   1.869
 3452WAT     H110598   7.045   0.664   1.933
 3452WAT     H210599   6.891   0.682   1.883
 3453WAT      O10600   5.009   5.494   3.329
 3453WAT     H110601   5.037   5.404   3.361
 3453WAT     H210602   4.921   5.487   3.281
 3454WAT      O10603   3.534   8.300   5.300
 3454WAT     H110604   3.525   8.262   5.392
 3454WAT     H210605   3.551   8.226   5.235
 3455WAT      O10606   0.148   7.680   0.810
 3455WAT     H110607   0.110   7.590   0.832
 3455WAT     H210608   0.226   7.670   0.749
 3456WAT      O10609   3.910   2.634   1.682
 3456WAT     H110610   3.968   2.642   1.601
 3456WAT     H210611   3.936   2.553   1.734
 3457WAT      O10612   1.503   4.802   8.903
 3457WAT     H110613   1.594   4.781   8.940
 3457WAT     H210614   1.512   4.866   8.827
 3458WAT      O10615   6.321   3.606   5.663
 3458WAT     H110616   6.359   3.624   5.753
 3458WAT     H210617   6.384   3.638   5.593
 3459WAT      O10618   7.737   5.763   6.577
 3459WAT     H110619   7.639   5.748   6.559
 3459WAT     H210620   7.768   5.700   6.648
 3460WAT      O10621   0.465   4.919   8.424
 3460WAT     H110622   0.466   4.962   8.514
 3460WAT     H210623   0.556   4.927   8.382
 3461WAT      O10624   8.338   2.967   3.649
 3461WAT     H110625   8.377   2.903   3.716
 3461WAT     H210626   8.370   3.060   3.669
 3462WAT      O10627   3.879   8.048   5.592
 3462WAT     H110628   3.890   8.117   5.520
 3462WAT     H210629   3.805   7.985   5.566
 3463WAT      O10630   2.437   8.263   3.664
 3463WAT     H110631   2.535   8.265   3.685
 3463WAT     H210632   2.387   8.311   3.737
 3464WAT      O10633   0.801   6.250   3.656
 3464WAT     H110634   0.732   6.316   3.626
 3464WAT     H210635   0.848   6.212   3.576
 3465WAT      O10636   6.057   2.307   4.947
 3465WAT     H110637   6.123   2.251   4.996
 3465WAT     H210638   5.997   2.248   4.893
 3466WAT      O10639   2.543   4.460   8.666
 3466WAT     H110640   2.594   4.485   8.584
 3466WAT     H210641   2.537   4.361   8.673
 3467WAT      O10642   7.917   9.464   9.296
 3467WAT     H110643   7.943   9.379   9.343
 3467WAT     H210644   7.912   9.539   9.361
 3468WAT      O10645   0.190   2.500   0.293
 3468WAT     H110646   0.205   2.523   0.197
 3468WAT     H210647   0.122   2.427   0.300
 3469WAT      O10648   7.582   7.759   9.696
 3469WAT     H110649   7.519   7.683   9.681
 3469WAT     H210650   7.534   7.845   9.680
 3470WAT      O10651   0.011   8.231   2.762
 3470WAT     H110652  -0.056   8.194   2.697
 3470WAT     H210653   0.032   8.161   2.830
 3471WAT      O10654   4.810   6.916   6.885
 3471WAT     H110655   4.713   6.903   6.905
 3471WAT     H210656   4.829   6.890   6.790
 3472WAT      O10657   8.990   7.298   3.721
 3472WAT     H110658   8.901   7.270   3.685
 3472WAT     H210659   8.981   7.322   3.818
 3473WAT      O10660   3.077   8.738   6.029
 3473WAT     H110661   2.994   8.690   6.057
 3473WAT     H210662   3.118   8.784   6.107
 3474WAT      O10663   1.355   4.043   3.351
 3474WAT     H110664   1.297   3.966   3.379
 3474WAT     H210665   1.435   4.009   3.303
 3475WAT      O10666   2.666   1.597   2.599
 3475WAT     H110667   2.634   1.577   2.506
 3475WAT     H210668   2.765   1.603   2.600
 3476WAT      O10669   2.807   6.639   5.425
 3476WAT     H110670   2.793   6.599   5.516
 3476WAT     H210671   2.904   6.643   5.405
 3477WAT      O10672   4.724   5.595   4.328
 3477WAT     H110673   4.653   5.535   4.293
 3477WAT     H210674   4.803   5.541   4.357
 3478WAT      O10675   6.199   2.124   6.369
 3478WAT     H110676   6.294   2.100   6.350
 3478WAT     H210677   6.184   2.124   6.468
 3479WAT      O10678   5.305   5.403   4.641
 3479WAT     H110679   5.390   5.414   4.692
 3479WAT     H210680   5.261   5.317   4.666
 3480WAT      O10681   8.695   6.478   1.631
 3480WAT     H110682   8.676   6.508   1.537
 3480WAT     H210683   8.783   6.514   1.660
 3481WAT      O10684   4.636   2.935   3.527
 3481WAT     H110685   4.655   2.934   3.626
 3481WAT     H210686   4.609   2.843   3.498
 3482WAT      O10687   2.807   2.148   9.374
 3482WAT     H110688   2.873   2.210   9.332
 3482WAT     H210689   2.723   2.198   9.394
 3483WAT      O10690   1.539   7.570   9.543
 3483WAT     H110691   1.540   7.626   9.625
 3483WAT     H210692   1.532   7.473   9.569
 3484WAT      O10693   0.179   0.233   4.522
 3484WAT     H110694   0.136   0.286   4.449
 3484WAT     H210695   0.110   0.205   4.588
 3485WAT      O10696   8.641   0.520   1.457
 3485WAT     H110697   8.615   0.599   1.402
 3485WAT     H210698   8.580   0.444   1.436
 3486WAT      O10699   7.039   1.660   9.287
 3486WAT     H110700   6.951   1.617   9.310
 3486WAT     H210701   7.100   1.652   9.366
 3487WAT      O10702   0.701   9.116   6.988
 3487WAT     H110703   0.727   9.164   7.072
 3487WAT     H210704   0.612   9.150   6.956
 3488WAT      O10705   6.991   7.056   5.593
 3488WAT     H110706   7.072   7.024   5.643
 3488WAT     H210707   6.930   7.105   5.655
 3489WAT      O10708   6.575   4.688   4.392
 3489WAT     H110709   6.552   4.767   4.335
 3489WAT     H210710   6.670   4.661   4.375
 3490WAT      O10711   4.681   6.530   1.498
 3490WAT     H110712   4.594   6.572   1.477
 3490WAT     H210713   4.753   6.567   1.439
 3491WAT      O10714   9.207   9.480   7.788
 3491WAT     H110715   9.261   9.421   7.728
 3491WAT     H210716   9.118   9.438   7.804
 3492WAT      O10717   2.648   3.723   1.021
 3492WAT     H110718   2.559   3.738   1.064
 3492WAT     H210719   2.649   3.636   0.973
 3493WAT      O10720   0.650   8.753   9.498
 3493WAT     H110721   0.615   8.668   9.458
 3493WAT     H210722   0.750   8.749   9.500
 3494WAT      O10723   1.223   9.130   4.139
 3494WAT     H110724   1.141   9.072   4.147
 3494WAT     H210725   1.263   9.119   4.048
 3495WAT      O10726   8.447   6.048   0.873
 3495WAT     H110727   8.420   6.023   0.780
 3495WAT     H210728   8.512   5.981   0.909
 3496WAT      O10729   3.429   2.283   2.731
 3496WAT     H110730   3.527   2.301   2.723
 3496WAT     H210731   3.407   2.199   2.682
 3497WAT      O10732   1.094   4.500   7.931
 3497WAT     H110733   1.104   4.577   7.867
 3497WAT     H210734   1.045   4.426   7.886
 3498WAT      O10735   2.710   7.928   8.810
 3498WAT     H110736   2.642   7.888   8.870
 3498WAT     H210737   2.794   7.948   8.861
 3499WAT      O10738   9.862   7.823   0.963
 3499WAT     H110739   9.903   7.908   0.997
 3499WAT     H210740   9.932   7.770   0.916
 3500WAT      O10741   8.674   2.639   5.024
 3500WAT     H110742   8.730   2.642   5.106
 3500WAT     H210743   8.641   2.731   5.002
 3501WAT      O10744   9.495   3.638   5.945
 3501WAT     H110745   9.574   3.605   5.894
 3501WAT     H210746   9.447   3.561   5.987
 3502WAT      O10747   1.589   6.632   7.823
 3502WAT     H110748   1.639   6.664   7.903
 3502WAT     H210749   1.651   6.581   7.763
 3503WAT      O10750   3.396   9.031   4.050
 3503WAT     H110751   3.489   8.992   4.052
 3503WAT     H210752   3.334   8.971   4.101
 3504WAT      O10753   0.509   5.405   6.110
 3504WAT     H110754   0.552   5.320   6.080
 3504WAT     H210755   0.557   5.483   6.071
 3505WAT      O10756   9.752   6.399   6.880
 3505WAT     H110757   9.809   6.365   6.805
 3505WAT     H210758   9.656   6.395   6.853
 3506WAT      O10759   0.127   7.716   4.221
 3506WAT     H110760   0.093   7.627   4.254
 3506WAT     H210761   0.050   7.776   4.201
 3507WAT      O10762   3.092   8.442   2.306
 3507WAT     H110763   3.065   8.444   2.210
 3507WAT     H210764   3.192   8.441   2.312
 3508WAT      O10765   0.506   3.475   7.700
 3508WAT     H110766   0.528   3.536   7.777
 3508WAT     H210767   0.481   3.385   7.736
 3509WAT      O10768   7.325   0.987   5.524
 3509WAT     H110769   7.424   0.974   5.529
 3509WAT     H210770   7.304   1.085   5.526
 3510WAT      O10771   2.024   0.746   6.008
 3510WAT     H110772   1.945   0.693   5.978
 3510WAT     H210773   2.086   0.761   5.931
 3511WAT      O10774   3.762   0.395   8.853
 3511WAT     H110775   3.848   0.424   8.811
 3511WAT     H210776   3.777   0.314   8.909
 3512WAT      O10777   6.370   3.305   2.994
 3512WAT     H110778   6.357   3.337   3.088
 3512WAT     H210779   6.436   3.230   2.992
 3513WAT      O10780   4.497   7.174   5.642
 3513WAT     H110781   4.429   7.151   5.712
 3513WAT     H210782   4.586   7.186   5.685
 3514WAT      O10783   6.328   3.298   9.323
 3514WAT     H110784   6.323   3.252   9.234
 3514WAT     H210785   6.355   3.233   9.393
 3515WAT      O10786   5.661   5.216   6.392
 3515WAT     H110787   5.574   5.252   6.361
 3515WAT     H210788   5.699   5.155   6.322
 3516WAT      O10789   4.025   9.267   8.354
 3516WAT     H110790   4.038   9.171   8.327
 3516WAT     H210791   4.055   9.327   8.280
 3517WAT      O10792   8.604   2.236   8.137
 3517WAT     H110793   8.618   2.334   8.151
 3517WAT     H210794   8.555   2.221   8.050
 3518WAT      O10795   7.280   7.756   1.921
 3518WAT     H110796   7.360   7.775   1.978
 3518WAT     H210797   7.307   7.754   1.824
 3519WAT      O10798   1.969   6.044   1.901
 3519WAT     H110799   1.908   5.986   1.955
 3519WAT     H210800   2.051   6.066   1.954
 3520WAT      O10801   7.414   0.966   2.132
 3520WAT     H110802   7.371   1.012   2.055
 3520WAT     H210803   7.346   0.912   2.181
 3521WAT      O10804   4.833   2.222   4.951
 3521WAT     H110805   4.741   2.247   4.981
 3521WAT     H210806   4.888   2.305   4.938
 3522WAT      O10807   5.206   9.830   5.878
 3522WAT     H110808   5.201   9.879   5.791
 3522WAT     H210809   5.182   9.892   5.952
 3523WAT      O10810   7.149   7.859   2.808
 3523WAT     H110811   7.242   7.877   2.777
 3523WAT     H210812   7.088   7.851   2.729
 3524WAT      O10813   3.684   0.140   6.415
 3524WAT     H110814   3.664   0.044   6.430
 3524WAT     H210815   3.749   0.149   6.339
 3525WAT      O10816   8.792   2.696   1.481
 3525WAT     H110817   8.859   2.770   1.491
 3525WAT     H210818   8.815   2.622   1.544
 3526WAT      O10819   2.707   2.305   4.782
 3526WAT     H110820   2.674   2.225   4.832
 3526WAT     H210821   2.723   2.380   4.846
 3527WAT      O10822   2.099   5.352   3.147
 3527WAT     H110823   2.121   5.259   3.118
 3527WAT     H210824   2.170   5.384   3.210
 3528WAT      O10825   7.603   1.341   4.644
 3528WAT     H110826   7.545   1.285   4.703
 3528WAT     H210827   7.686   1.366   4.695
 3529WAT      O10828   9.864   1.925   2.464
 3529WAT     H110829   9.917   1.850   2.427
 3529WAT     H210830   9.816   1.972   2.390
 3530WAT      O10831   8.113   3.793   2.498
 3530WAT     H110832   8.118   3.702   2.457
 3530WAT     H210833   8.205   3.825   2.520
 3531WAT      O10834   2.703   2.916   4.083
 3531WAT     H110835   2.793   2.955   4.065
 3531WAT     H210836   2.680   2.929   4.180
 3532WAT      O10837   9.870   6.505   7.780
 3532WAT     H110838   9.855   6.555   7.695
 3532WAT     H210839   9.870   6.568   7.857
 3533WAT      O10840   2.437   4.539   4.219
 3533WAT     H110841   2.369   4.500   4.281
 3533WAT     H210842   2.505   4.469   4.197
 3534WAT      O10843   1.090   7.124   5.586
 3534WAT     H110844   1.164   7.063   5.615
 3534WAT     H210845   1.008   7.070   5.566
 3535WAT      O10846   5.629   1.226   6.342
 3535WAT     H110847   5.639   1.301   6.407
 3535WAT     H210848   5.717   1.181   6.329
 3536WAT      O10849   9.253   1.164   7.265
 3536WAT     H110850   9.248   1.083   7.323
 3536WAT     H210851   9.173   1.221   7.281
 3537WAT      O10852   9.351   3.436   8.301
 3537WAT     H110853   9.366   3.345   8.340
 3537WAT     H210854   9.257   3.464   8.317
 3538WAT      O10855   9.627   5.365   9.495
 3538WAT     H110856   9.579   5.435   9.442
 3538WAT     H210857   9.724   5.387   9.500
 3539WAT      O10858   8.404   3.679   1.906
 3539WAT     H110859   8.318   3.716   1.942
 3539WAT     H210860   8.481   3.722   1.951
 3540WAT      O10861   5.444   5.088   9.410
 3540WAT     H110862   5.509   5.082   9.333
 3540WAT     H210863   5.493   5.073   9.496
 3541WAT      O10864   7.104   4.714   8.545
 3541WAT     H110865   7.026   4.709   8.483
 3541WAT     H210866   7.106   4.632   8.602
 3542WAT      O10867   2.815   2.719   9.031
 3542WAT     H110868   2.717   2.702   9.024
 3542WAT     H210869   2.847   2.764   8.948
 3543WAT      O10870   7.215   2.336   7.008
 3543WAT     H110871   7.218   2.364   7.104
 3543WAT     H210872   7.208   2.417   6.950
 3544WAT      O10873   7.134   9.634   6.517
 3544WAT     H110874   7.211   9.574   6.495
 3544WAT     H210875   7.168   9.726   6.538
 3545WAT      O10876   9.491   3.599   6.333
 3545WAT     H110877   9.414   3.650   6.371
 3545WAT     H210878   9.515   3.524   6.395
 3546WAT      O10879   2.840   7.477   9.206
 3546WAT     H110880   2.793   7.451   9.290
 3546WAT     H210881   2.772   7.490   9.133
 3547WAT      O10882   4.757   0.996   2.035
 3547WAT     H110883   4.710   0.908   2.031
 3547WAT     H210884   4.853   0.984   2.010
 3548WAT      O10885   5.366   5.174   2.819
 3548WAT     H110886   5.384   5.077   2.806
 3548WAT     H210887   5.302   5.187   2.895
 3549WAT      O10888   0.252   7.951   0.124
 3549WAT     H110889   0.173   7.915   0.075
 3549WAT     H210890   0.316   7.992   0.058
 3550WAT      O10891   0.260   8.188   7.880
 3550WAT     H110892   0.275   8.099   7.924
 3550WAT     H210893   0.316   8.257   7.926
 3551WAT      O10894   4.091   7.195   8.439
 3551WAT     H110895   4.003   7.217   8.480
 3551WAT     H210896   4.161   7.193   8.510
 3552WAT      O10897   0.675   5.422   4.755
 3552WAT     H110898   0.705   5.424   4.660
 3552WAT     H210899   0.730   5.356   4.806
 3553WAT      O10900   4.071   6.508   8.153
 3553WAT     H110901   4.086   6.574   8.079
 3553WAT     H210902   4.146   6.443   8.156
 3554WAT      O10903   3.179   4.075   9.352
 3554WAT     H110904   3.092   4.083   9.302
 3554WAT     H210905   3.197   3.978   9.372
 3555WAT      O10906   6.396   7.464   3.085
 3555WAT     H110907   6.375   7.418   3.171
 3555WAT     H210908   6.464   7.535   3.101
 3556WAT      O10909   8.722   8.478   1.873
 3556WAT     H110910   8.625   8.467   1.850
 3556WAT     H210911   8.731   8.517   1.965
 3557WAT      O10912   5.161   6.568   9.089
 3557WAT     H110913   5.172   6.659   9.129
 3557WAT     H210914   5.223   6.504   9.134
 3558WAT      O10915   2.291   0.207   2.912
 3558WAT     H110916   2.203   0.239   2.877
 3558WAT     H210917   2.341   0.161   2.837
 3559WAT      O10918   6.360   4.084   8.822
 3559WAT     H110919   6.313   4.130   8.746
 3559WAT     H210920   6.367   3.986   8.802
 3560WAT      O10921   7.052   3.011   0.488
 3560WAT     H110922   7.101   3.077   0.544
 3560WAT     H210923   6.960   2.997   0.526
 3561WAT      O10924   4.260   4.812   5.923
 3561WAT     H110925   4.318   4.810   6.005
 3561WAT     H210926   4.209   4.898   5.920
 3562WAT      O10927   8.445   7.107   8.965
 3562WAT     H110928   8.389   7.150   9.037
 3562WAT     H210929   8.465   7.013   8.991
 3563WAT      O10930   6.168   8.039   9.333
 3563WAT     H110931   6.125   8.111   9.387
 3563WAT     H210932   6.181   8.072   9.239
 3564WAT      O10933   2.793   5.318   6.262
 3564WAT     H110934   2.863   5.312   6.333
 3564WAT     H210935   2.725   5.386   6.289
 3565WAT      O10936   6.467   3.010   5.283
 3565WAT     H110937   6.453   3.105   5.311
 3565WAT     H210938   6.540   3.006   5.215
 3566WAT      O10939   9.415   0.257   4.151
 3566WAT     H110940   9.491   0.251   4.216
 3566WAT     H210941   9.450   0.278   4.060
 3567WAT      O10942   5.126   2.394   0.251
 3567WAT     H110943   5.161   2.338   0.176
 3567WAT     H210944   5.179   2.479   0.256
 3568WAT      O10945   7.712   8.078   6.568
 3568WAT     H110946   7.762   8.052   6.486
 3568WAT     H210947   7.644   8.148   6.546
 3569WAT      O10948   9.308   5.933   0.456
 3569WAT     H110949   9.372   6.000   0.493
 3569WAT     H210950   9.358   5.850   0.431
 3570WAT      O10951   1.830   5.384   2.498
 3570WAT     H110952   1.748   5.347   2.453
 3570WAT     H210953   1.878   5.445   2.435
 3571WAT      O10954   8.393   4.360   6.810
 3571WAT     H110955   8.473   4.301   6.823
 3571WAT     H210956   8.393   4.396   6.716
 3572WAT      O10957   0.205   9.322   7.343
 3572WAT     H110958   0.164   9.413   7.344
 3572WAT     H210959   0.279   9.319   7.411
 3573WAT      O10960   6.441   3.872   2.701
 3573WAT     H110961   6.518   3.808   2.695
 3573WAT     H210962   6.453   3.945   2.633
 3574WAT      O10963   2.163   6.457   2.316
 3574WAT     H110964   2.203   6.374   2.356
 3574WAT     H210965   2.091   6.432   2.252
 3575WAT      O10966   6.910   5.436   7.359
 3575WAT     H110967   6.947   5.517   7.404
 3575WAT     H210968   6.812   5.428   7.380
 3576WAT      O10969   2.600   7.558   2.579
 3576WAT     H110970   2.560   7.478   2.534
 3576WAT     H210971   2.537   7.591   2.650
 3577WAT      O10972   9.756   3.800   7.326
 3577WAT     H110973   9.751   3.828   7.230
 3577WAT     H210974   9.680   3.841   7.376
 3578WAT      O10975   5.928   0.232   0.663
 3578WAT     H110976   6.001   0.300   0.655
 3578WAT     H210977   5.877   0.247   0.747
 3579WAT      O10978   3.369   0.933   1.244
 3579WAT     H110979   3.417   0.855   1.282
 3579WAT     H210980   3.397   1.017   1.291
 3580WAT      O10981   5.791   6.390   6.149
 3580WAT     H110982   5.732   6.377   6.070
 3580WAT     H210983   5.741   6.366   6.232
 3581WAT      O10984   7.525   2.922   7.408
 3581WAT     H110985   7.510   3.016   7.441
 3581WAT     H210986   7.610   2.887   7.448
 3582WAT      O10987   5.964   2.864   3.135
 3582WAT     H110988   5.938   2.800   3.063
 3582WAT     H210989   6.056   2.898   3.119
 3583WAT      O10990   0.143   7.473   5.150
 3583WAT     H110991   0.092   7.457   5.065
 3583WAT     H210992   0.142   7.389   5.205
 3584WAT      O10993   7.135   1.351   6.443
 3584WAT     H110994   7.096   1.260   6.456
 3584WAT     H210995   7.192   1.352   6.361
 3585WAT      O10996   6.466   5.976   3.297
 3585WAT     H110997   6.463   5.876   3.300
 3585WAT     H210998   6.405   6.009   3.225
 3586WAT      O10999   6.731   9.017   4.542
 3586WAT     H111000   6.784   9.095   4.574
 3586WAT     H211001   6.716   8.953   4.618
 3587WAT      O11002   2.228   5.668   7.234
 3587WAT     H111003   2.225   5.586   7.176
 3587WAT     H211004   2.298   5.731   7.199
 3588WAT      O11005   4.915   6.814   0.799
 3588WAT     H111006   4.974   6.809   0.718
 3588WAT     H211007   4.960   6.770   0.876
 3589WAT      O11008   1.165   9.455   0.744
 3589WAT     H111009   1.181   9.468   0.841
 3589WAT     H211010   1.106   9.528   0.709
 3590WAT      O11011   7.596   0.352   8.139
 3590WAT     H111012   7.535   0.357   8.061
 3590WAT     H211013   7.635   0.442   8.157
 3591WAT      O11014   9.031   3.703   6.499
 3591WAT     H111015   9.037   3.636   6.573
 3591WAT     H211016   8.955   3.680   6.439
 3592WAT      O11017   8.368   0.541   0.564
 3592WAT     H111018   8.425   0.490   0.628
 3592WAT     H211019   8.331   0.622   0.609
 3593WAT      O11020   7.264   3.796   6.195
 3593WAT     H111021   7.209   3.721   6.158
 3593WAT     H211022   7.315   3.763   6.275
 3594WAT      O11023   0.909   5.107   0.745
 3594WAT     H111024   0.835   5.091   0.811
 3594WAT     H211025   0.936   5.204   0.747
 3595WAT      O11026   0.566   2.221   1.252
 3595WAT     H111027   0.588   2.177   1.165
 3595WAT     H211028   0.597   2.164   1.327
 3596WAT      O11029   9.460   4.103   4.546
 3596WAT     H111030   9.434   4.083   4.640
 3596WAT     H211031   9.419   4.037   4.484
 3597WAT      O11032   6.204   4.054   1.215
 3597WAT     H111033   6.228   3.982   1.150
 3597WAT     H211034   6.282   4.115   1.228
 3598WAT      O11035   4.313   6.066   9.876
 3598WAT     H111036   4.395   6.099   9.923
 3598WAT     H211037   4.256   6.014   9.940
 3599WAT      O11038   2.188   5.413   2.385
 3599WAT     H111039   2.110   5.475   2.392
 3599WAT     H211040   2.164   5.325   2.426
 3600WAT      O11041   2.661   5.089   6.377
 3600WAT     H111042   2.718   5.163   6.342
 3600WAT     H211043   2.565   5.118   6.378
 3601WAT      O11044   6.058   9.450   0.864
 3601WAT     H111045   5.974   9.396   0.866
 3601WAT     H211046   6.137   9.389   0.877
 3602WAT      O11047   2.019   0.034   4.179
 3602WAT     H111048   2.007   0.011   4.082
 3602WAT     H211049   2.098   0.094   4.190
 3603WAT      O11050   9.255   6.028   0.797
 3603WAT     H111051   9.341   6.062   0.835
 3603WAT     H211052   9.207   5.974   0.866
 3604WAT      O11053   1.338   4.660   6.313
 3604WAT     H111054   1.339   4.740   6.373
 3604WAT     H211055   1.281   4.589   6.354
 3605WAT      O11056   0.337   8.186   6.406
 3605WAT     H111057   0.436   8.176   6.402
 3605WAT     H211058   0.312   8.280   6.383
 3606WAT      O11059   2.598   1.368   0.557
 3606WAT     H111060   2.573   1.277   0.589
 3606WAT     H211061   2.633   1.362   0.463
 3607WAT      O11062   7.137   1.282   4.797
 3607WAT     H111063   7.186   1.350   4.853
 3607WAT     H211064   7.201   1.239   4.733
 3608WAT      O11065   9.706   1.643   2.367
 3608WAT     H111066   9.698   1.655   2.466
 3608WAT     H211067   9.640   1.703   2.322
 3609WAT      O11068   3.249   9.609   5.748
 3609WAT     H111069   3.309   9.655   5.681
 3609WAT     H211070   3.229   9.672   5.823
 3610WAT      O11071   0.530   0.848   1.899
 3610WAT     H111072   0.600   0.916   1.882
 3610WAT     H211073   0.561   0.759   1.864
 3611WAT      O11074   4.858   5.197   8.978
 3611WAT     H111075   4.925   5.245   9.034
 3611WAT     H211076   4.899   5.113   8.941
 3612WAT      O11077   6.285   9.020   2.870
 3612WAT     H111078   6.232   9.053   2.791
 3612WAT     H211079   6.370   9.072   2.877
 3613WAT      O11080   8.552   0.628   9.837
 3613WAT     H111081   8.566   0.571   9.918
 3613WAT     H211082   8.481   0.695   9.856
 3614WAT      O11083   6.079   3.399   8.117
 3614WAT     H111084   6.036   3.405   8.207
 3614WAT     H211085   6.137   3.479   8.101
 3615WAT      O11086   4.574   0.638   5.819
 3615WAT     H111087   4.636   0.590   5.882
 3615WAT     H211088   4.565   0.733   5.848
 3616WAT      O11089   5.791   6.288   8.334
 3616WAT     H111090   5.755   6.379   8.351
 3616WAT     H211091   5.778   6.263   8.238
 3617WAT      O11092   4.954   4.917   6.571
 3617WAT     H111093   4.942   4.877   6.480
 3617WAT     H211094   4.865   4.930   6.614
 3618WAT      O11095   4.685   4.445   4.706
 3618WAT     H111096   4.732   4.470   4.621
 3618WAT     H211097   4.697   4.517   4.774
 3619WAT      O11098   1.063   9.425   2.342
 3619WAT     H111099   1.086   9.469   2.256
 3619WAT     H211100   1.007   9.344   2.324
 3620WAT      O11101   4.265   1.197   8.101
 3620WAT     H111102   4.190   1.205   8.035
 3620WAT     H211103   4.228   1.172   8.190
 3621WAT      O11104   8.145   3.690   1.739
 3621WAT     H111105   8.069   3.676   1.803
 3621WAT     H211106   8.108   3.715   1.650
 3622WAT      O11107   3.010   1.583   6.215
 3622WAT     H111108   2.978   1.577   6.120
 3622WAT     H211109   3.039   1.677   6.234
 3623WAT      O11110   1.339   5.628   3.691
 3623WAT     H111111   1.258   5.638   3.633
 3623WAT     H211112   1.384   5.541   3.670
 3624WAT      O11113   6.100   0.162   6.993
 3624WAT     H111114   6.088   0.145   6.896
 3624WAT     H211115   6.104   0.260   7.010
 3625WAT      O11116   6.928   7.258   8.209
 3625WAT     H111117   6.852   7.195   8.189
 3625WAT     H211118   7.013   7.221   8.171
 3626WAT      O11119   0.136   5.685   0.837
 3626WAT     H111120   0.149   5.720   0.929
 3626WAT     H211121   0.131   5.585   0.840
 3627WAT      O11122   6.852   2.771   1.993
 3627WAT     H111123   6.812   2.841   2.052
 3627WAT     H211124   6.785   2.700   1.975
 3628WAT      O11125   0.525   6.389   4.342
 3628WAT     H111126   0.585   6.315   4.373
 3628WAT     H211127   0.496   6.443   4.421
 3629WAT      O11128   6.072   0.120   6.732
 3629WAT     H111129   6.029   0.199   6.688
 3629WAT     H211130   6.147   0.088   6.674
 3630WAT      O11131   9.520   4.689   9.681
 3630WAT     H111132   9.553   4.642   9.599
 3630WAT     H211133   9.499   4.784   9.659
 3631WAT      O11134   7.571   4.865   5.550
 3631WAT     H111135   7.551   4.952   5.594
 3631WAT     H211136   7.623   4.807   5.613
 3632WAT      O11137   5.656   8.646   7.595
 3632WAT     H111138   5.600   8.620   7.674
 3632WAT     H211139   5.743   8.596   7.598
 3633WAT      O11140   5.958   8.053   4.798
 3633WAT     H111141   6.007   8.086   4.718
 3633WAT     H211142   5.994   7.964   4.825
 3634WAT      O11143   8.283   8.826   6.752
 3634WAT     H111144   8.279   8.726   6.751
 3634WAT     H211145   8.190   8.863   6.763
 3635WAT      O11146   4.350   6.538   0.282
 3635WAT     H111147   4.347   6.604   0.207
 3635WAT     H211148   4.323   6.584   0.367
 3636WAT      O11149   1.680   1.104   8.188
 3636WAT     H111150   1.696   1.170   8.115
 3636WAT     H211151   1.591   1.060   8.175
 3637WAT      O11152   0.221   2.015   3.715
 3637WAT     H111153   0.167   2.040   3.635
 3637WAT     H211154   0.238   2.096   3.771
 3638WAT      O11155   3.256   3.882   8.498
 3638WAT     H111156   3.330   3.823   8.528
 3638WAT     H211157   3.280   3.978   8.515
 3639WAT      O11158   1.166   1.357   6.263
 3639WAT     H111159   1.098   1.409   6.212
 3639WAT     H211160   1.229   1.420   6.309
 3640WAT      O11161   5.194   0.481   1.460
 3640WAT     H111162   5.245   0.400   1.489
 3640WAT     H211163   5.234   0.563   1.500
 3641WAT      O11164   3.234   1.694   9.258
 3641WAT     H111165   3.141   1.704   9.221
 3641WAT     H211166   3.231   1.635   9.339
 3642WAT      O11167   7.556   6.732   7.095
 3642WAT     H111168   7.488   6.670   7.133
 3642WAT     H211169   7.526   6.765   7.005
 3643WAT      O11170   9.695   0.375   5.541
 3643WAT     H111171   9.613   0.329   5.573
 3643WAT     H211172   9.677   0.473   5.532
 3644WAT      O11173   2.010   5.838   9.555
 3644WAT     H111174   2.070   5.909   9.591
 3644WAT     H211175   1.922   5.879   9.529
 3645WAT      O11176   9.077   3.983   4.137
 3645WAT     H111177   9.045   3.896   4.101
 3645WAT     H211178   9.177   3.981   4.145
 3646WAT      O11179   3.486   6.924   1.016
 3646WAT     H111180   3.564   6.882   0.970
 3646WAT     H211181   3.514   7.012   1.054
 3647WAT      O11182   4.547   3.995   9.599
 3647WAT     H111183   4.617   4.065   9.590
 3647WAT     H211184   4.491   4.014   9.679
 3648WAT      O11185   6.849   6.342   8.243
 3648WAT     H111186   6.821   6.403   8.169
 3648WAT     H211187   6.791   6.261   8.243
 3649WAT      O11188   2.312   8.382   5.735
 3649WAT     H111189   2.341   8.385   5.639
 3649WAT     H211190   2.304   8.476   5.769
 3650WAT      O11191   5.234   8.502   0.902
 3650WAT     H111192   5.279   8.588   0.920
 3650WAT     H211193   5.301   8.434   0.872
 3651WAT      O11194   7.968   1.243   4.392
 3651WAT     H111195   7.923   1.201   4.471
 3651WAT     H211196   7.928   1.206   4.307
 3652WAT      O11197   0.417   2.235   8.082
 3652WAT     H111198   0.376   2.305   8.141
 3652WAT     H211199   0.436   2.153   8.135
 3653WAT      O11200   1.777   4.218   9.154
 3653WAT     H111201   1.713   4.177   9.089
 3653WAT     H211202   1.791   4.156   9.231
 3654WAT      O11203   1.471   1.036   3.957
 3654WAT     H111204   1.539   0.999   3.895
 3654WAT     H211205   1.490   1.006   4.050
 3655WAT      O11206   8.409   2.248   4.784
 3655WAT     H111207   8.470   2.327   4.782
 3655WAT     H211208   8.445   2.177   4.723
 3656WAT      O11209   4.365   1.336   1.845
 3656WAT     H111210   4.297   1.332   1.918
 3656WAT     H211211   4.453   1.302   1.879
 3657WAT      O11212   4.173   8.959   1.056
 3657WAT     H111213   4.181   9.058   1.070
 3657WAT     H211214   4.078   8.935   1.035
 3658WAT      O11215   8.570   2.838   5.249
 3658WAT     H111216   8.641   2.771   5.273
 3658WAT     H211217   8.597   2.885   5.165
 3659WAT      O11218   4.908   3.891   4.452
 3659WAT     H111219   4.933   3.896   4.548
 3659WAT     H211220   4.977   3.939   4.397
 3660WAT      O11221   1.653   5.406   7.398
 3660WAT     H111222   1.688   5.464   7.324
 3660WAT     H211223   1.707   5.421   7.481
 3661WAT      O11224   1.183   7.856   5.416
 3661WAT     H111225   1.243   7.794   5.364
 3661WAT     H211226   1.235   7.937   5.444
 3662WAT      O11227   0.741   9.726   1.216
 3662WAT     H111228   0.686   9.684   1.289
 3662WAT     H211229   0.681   9.777   1.155
 3663WAT      O11230   3.368   1.723   0.373
 3663WAT     H111231   3.430   1.645   0.366
 3663WAT     H211232   3.350   1.760   0.282
 3664WAT      O11233   7.388   5.566   5.081
 3664WAT     H111234   7.379   5.513   4.997
 3664WAT     H211235   7.382   5.664   5.060
 3665WAT      O11236   3.175   5.033   4.945
 3665WAT     H111237   3.154   4.949   4.995
 3665WAT     H211238   3.131   5.031   4.855
 3666WAT      O11239   8.087   8.503   8.954
 3666WAT     H111240   8.068   8.414   8.913
 3666WAT     H211241   8.071   8.499   9.052
 3667WAT      O11242   9.649   4.237   8.252
 3667WAT     H111243   9.553   4.263   8.256
 3667WAT     H211244   9.661   4.150   8.300
 3668WAT      O11245   5.640   7.174   6.529
 3668WAT     H111246   5.569   7.179   6.458
 3668WAT     H211247   5.722   7.133   6.490
 3669WAT      O11248   1.666   1.050   1.043
 3669WAT     H111249   1.621   1.071   0.956
 3669WAT     H211250   1.598   1.015   1.108
 3670WAT      O11251   8.202   0.479   3.613
 3670WAT     H111252   8.129   0.517   3.556
 3670WAT     H211253   8.220   0.540   3.689
 3671WAT      O11254   3.775   1.788   2.265
 3671WAT     H111255   3.765   1.880   2.304
 3671WAT     H211256   3.859   1.746   2.300
 3672WAT      O11257   1.991   4.719   5.562
 3672WAT     H111258   2.059   4.648   5.585
 3672WAT     H211259   2.039   4.802   5.534
 3673WAT      O11260   0.427   2.109   2.296
 3673WAT     H111261   0.468   2.021   2.323
 3673WAT     H211262   0.462   2.135   2.206
 3674WAT      O11263   5.922   8.757   1.947
 3674WAT     H111264   5.845   8.819   1.931
 3674WAT     H211265   5.970   8.741   1.860
 3675WAT      O11266   8.672   3.079   6.538
 3675WAT     H111267   8.724   2.994   6.544
 3675WAT     H211268   8.577   3.061   6.562
 3676WAT      O11269   1.227   3.206   5.700
 3676WAT     H111270   1.268   3.286   5.657
 3676WAT     H211271   1.128   3.209   5.688
 3677WAT      O11272   4.719   6.804   1.342
 3677WAT     H111273   4.781   6.862   1.395
 3677WAT     H211274   4.773   6.744   1.283
 3678WAT      O11275   5.861   2.907   8.463
 3678WAT     H111276   5.801   2.855   8.402
 3678WAT     H211277   5.930   2.845   8.502
 3679WAT      O11278   8.351   4.098   2.930
 3679WAT     H111279   8.357   4.106   3.029
 3679WAT     H211280   8.255   4.093   2.902
 3680WAT      O11281   5.771   0.892   0.911
 3680WAT     H111282   5.718   0.901   0.995
 3680WAT     H211283   5.713   0.857   0.838
 3681WAT      O11284   5.798   8.993   1.402
 3681WAT     H111285   5.834   9.083   1.423
 3681WAT     H211286   5.808   8.974   1.304
 3682WAT      O11287   4.614   3.255   6.458
 3682WAT     H111288   4.652   3.300   6.377
 3682WAT     H211289   4.684   3.196   6.499
 3683WAT      O11290   8.225   4.590   9.212
 3683WAT     H111291   8.174   4.508   9.188
 3683WAT     H211292   8.276   4.575   9.296
 3684WAT      O11293   0.066   2.851   3.657
 3684WAT     H111294  -0.028   2.852   3.691
 3684WAT     H211295   0.067   2.885   3.563
 3685WAT      O11296   9.700   6.950   9.406
 3685WAT     H111297   9.605   6.931   9.384
 3685WAT     H211298   9.736   7.019   9.344
 3686WAT      O11299   8.910   5.892   2.017
 3686WAT     H111300   8.902   5.976   1.963
 3686WAT     H211301   8.959   5.911   2.102
 3687WAT      O11302   8.542   2.063   3.952
 3687WAT     H111303   8.499   2.003   4.020
 3687WAT     H211304   8.470   2.110   3.901
 3688WAT      O11305   2.733   2.061   5.034
 3688WAT     H111306   2.742   1.993   4.961
 3688WAT     H211307   2.818   2.063   5.088
 3689WAT      O11308   4.388   2.053   8.488
 3689WAT     H111309   4.390   2.153   8.485
 3689WAT     H211310   4.479   2.017   8.467
 3690WAT      O11311   0.882   2.382   1.279
 3690WAT     H111312   0.832   2.469   1.277
 3690WAT     H211313   0.871   2.335   1.191
 3691WAT      O11314   3.693   4.813   1.155
 3691WAT     H111315   3.698   4.723   1.198
 3691WAT     H211316   3.605   4.821   1.107
 3692WAT      O11317   4.807   3.930   9.807
 3692WAT     H111318   4.725   3.895   9.853
 3692WAT     H211319   4.783   4.008   9.750
 3693WAT      O11320   0.396   4.192   7.422
 3693WAT     H111321   0.324   4.224   7.484
 3693WAT     H211322   0.354   4.163   7.336
 3694WAT      O11323   4.344   5.901   9.669
 3694WAT     H111324   4.349   5.978   9.733
 3694WAT     H211325   4.273   5.838   9.699
 3695WAT      O11326   2.919   8.075   6.419
 3695WAT     H111327   2.882   7.994   6.465
 3695WAT     H211328   3.000   8.107   6.468
 3696WAT      O11329   4.731   7.987   6.497
 3696WAT     H111330   4.726   8.081   6.463
 3696WAT     H211331   4.823   7.968   6.530
 3697WAT      O11332   6.092   5.820   2.549
 3697WAT     H111333   6.009   5.875   2.551
 3697WAT     H211334   6.088   5.756   2.472
 3698WAT      O11335   3.454   5.615   1.143
 3698WAT     H111336   3.360   5.617   1.180
 3698WAT     H211337   3.517   5.648   1.213
 3699WAT      O11338   4.670   8.328   0.401
 3699WAT     H111339   4.750   8.335   0.459
 3699WAT     H211340   4.588   8.349   0.454
 3700WAT      O11341   9.664   5.699   1.109
 3700WAT     H111342   9.666   5.671   1.013
 3700WAT     H211343   9.739   5.654   1.158
 3701WAT      O11344   1.951   6.310   4.879
 3701WAT     H111345   1.979   6.337   4.971
 3701WAT     H211346   2.025   6.329   4.814
 3702WAT      O11347   0.861   2.444   2.122
 3702WAT     H111348   0.893   2.381   2.051
 3702WAT     H211349   0.762   2.435   2.134
 3703WAT      O11350   7.697   2.103   6.894
 3703WAT     H111351   7.792   2.133   6.900
 3703WAT     H211352   7.649   2.127   6.978
 3704WAT      O11353   3.756   0.478   1.664
 3704WAT     H111354   3.719   0.560   1.707
 3704WAT     H211355   3.713   0.397   1.705
 3705WAT      O11356   9.437   8.945   4.146
 3705WAT     H111357   9.461   8.966   4.051
 3705WAT     H211358   9.479   8.859   4.173
 3706WAT      O11359   1.692   0.279   8.606
 3706WAT     H111360   1.621   0.221   8.647
 3706WAT     H211361   1.662   0.309   8.516
 3707WAT      O11362   4.370   6.087   4.251
 3707WAT     H111363   4.293   6.105   4.312
 3707WAT     H211364   4.375   6.159   4.182
 3708WAT      O11365   2.830   4.536   2.343
 3708WAT     H111366   2.745   4.537   2.395
 3708WAT     H211367   2.814   4.573   2.252
 3709WAT      O11368   8.778   1.395   8.697
 3709WAT     H111369   8.831   1.387   8.781
 3709WAT     H211370   8.706   1.326   8.696
 3710WAT      O11371   8.864   1.960   7.071
 3710WAT     H111372   8.812   1.992   7.150
 3710WAT     H211373   8.801   1.941   6.996
 3711WAT      O11374   5.957   8.884   6.133
 3711WAT     H111375   6.026   8.816   6.107
 3711WAT     H211376   5.891   8.895   6.058
 3712WAT      O11377   2.102   2.614   0.798
 3712WAT     H111378   2.154   2.574   0.722
 3712WAT     H211379   2.004   2.613   0.775
 3713WAT      O11380   5.235   8.460   5.151
 3713WAT     H111381   5.254   8.492   5.058
 3713WAT     H211382   5.321   8.436   5.196
 3714WAT      O11383   8.213   5.386   6.527
 3714WAT     H111384   8.119   5.388   6.563
 3714WAT     H211385   8.211   5.373   6.428
 3715WAT      O11386   1.448   2.602   1.859
 3715WAT     H111387   1.351   2.626   1.872
 3715WAT     H211388   1.467   2.516   1.907
 3716WAT      O11389   5.670   0.612   2.300
 3716WAT     H111390   5.731   0.617   2.379
 3716WAT     H211391   5.691   0.532   2.245
 3717WAT      O11392   9.285   2.332   6.368
 3717WAT     H111393   9.279   2.232   6.379
 3717WAT     H211394   9.316   2.354   6.276
 3718WAT      O11395   3.469   1.803   5.146
 3718WAT     H111396   3.515   1.785   5.232
 3718WAT     H211397   3.401   1.732   5.128
 3719WAT      O11398   2.391   4.518   6.810
 3719WAT     H111399   2.301   4.475   6.811
 3719WAT     H211400   2.461   4.450   6.831
 3720WAT      O11401   9.645   4.885   8.641
 3720WAT     H111402   9.721   4.894   8.576
 3720WAT     H211403   9.651   4.958   8.709
 3721WAT      O11404   8.386   7.525   8.262
 3721WAT     H111405   8.363   7.581   8.342
 3721WAT     H211406   8.481   7.543   8.235
 3722WAT      O11407   8.655   4.503   4.958
 3722WAT     H111408   8.694   4.447   5.031
 3722WAT     H211409   8.724   4.521   4.888
 3723WAT      O11410   4.106   7.345   7.960
 3723WAT     H111411   4.012   7.311   7.950
 3723WAT     H211412   4.123   7.365   8.057
 3724WAT      O11413   8.018   3.301   1.076
 3724WAT     H111414   8.012   3.347   1.164
 3724WAT     H211415   7.931   3.312   1.027
 3725WAT      O11416   5.911   1.366   1.062
 3725WAT     H111417   5.844   1.397   0.995
 3725WAT     H211418   5.965   1.444   1.093
 3726WAT      O11419   4.517   6.228   0.109
 3726WAT     H111420   4.420   6.242   0.128
 3726WAT     H211421   4.555   6.311   0.069
 3727WAT      O11422   5.767   0.735   7.515
 3727WAT     H111423   5.840   0.787   7.560
 3727WAT     H211424   5.679   0.764   7.551
 3728WAT      O11425   2.739   1.273   7.082
 3728WAT     H111426   2.710   1.269   6.987
 3728WAT     H211427   2.807   1.202   7.100
 3729WAT      O11428   9.391   4.517   2.830
 3729WAT     H111429   9.295   4.503   2.852
 3729WAT     H211430   9.413   4.614   2.839
 3730WAT      O11431   2.179   6.348   5.620
 3730WAT     H111432   2.266   6.313   5.652
 3730WAT     H211433   2.109   6.277   5.628
 3731WAT      O11434   5.362   7.039   1.779
 3731WAT     H111435   5.447   7.018   1.731
 3731WAT     H211436   5.368   7.006   1.874
 3732WAT      O11437   8.577   9.321   5.393
 3732WAT     H111438   8.628   9.339   5.309
 3732WAT     H211439   8.482   9.353   5.382
 3733WAT      O11440   0.880   2.447   0.595
 3733WAT     H111441   0.904   2.538   0.628
 3733WAT     H211442   0.860   2.450   0.497
 3734WAT      O11443   7.190   7.842   2.404
 3734WAT     H111444   7.202   7.746   2.429
 3734WAT     H211445   7.272   7.875   2.357
 3735WAT      O11446   2.427   0.531   3.291
 3735WAT     H111447   2.392   0.504   3.201
 3735WAT     H211448   2.370   0.489   3.362
 3736WAT      O11449   0.103   8.963   6.107
 3736WAT     H111450   0.109   8.863   6.113
 3736WAT     H211451   0.176   8.996   6.047
 3737WAT      O11452   9.626   4.405   8.548
 3737WAT     H111453   9.605   4.307   8.551
 3737WAT     H211454   9.604   4.441   8.457
 3738WAT      O11455   2.235   8.442   1.614
 3738WAT     H111456   2.204   8.347   1.622
 3738WAT     H211457   2.221   8.489   1.701
 3739WAT      O11458   2.627   2.186   8.521
 3739WAT     H111459   2.593   2.096   8.494
 3739WAT     H211460   2.681   2.225   8.446
 3740WAT      O11461   8.784   1.908   1.207
 3740WAT     H111462   8.827   1.894   1.118
 3740WAT     H211463   8.690   1.874   1.204
 3741WAT      O11464   1.073   6.266   2.131
 3741WAT     H111465   1.027   6.241   2.046
 3741WAT     H211466   1.032   6.216   2.207
 3742WAT      O11467   6.999   5.785   6.451
 3742WAT     H111468   7.050   5.715   6.401
 3742WAT     H211469   7.063   5.850   6.492
 3743WAT      O11470   3.422   8.558   9.579
 3743WAT     H111471   3.512   8.600   9.581
 3743WAT     H211472   3.384   8.556   9.672
 3744WAT      O11473   5.010   1.733   4.144
 3744WAT     H111474   5.050   1.651   4.185
 3744WAT     H211475   4.945   1.706   4.073
 3745WAT      O11476   7.667   0.876   2.253
 3745WAT     H111477   7.668   0.901   2.350
 3745WAT     H211478   7.578   0.900   2.213
 3746WAT      O11479   2.028   5.565   9.462
 3746WAT     H111480   2.013   5.655   9.502
 3746WAT     H211481   2.076   5.506   9.527
 3747WAT      O11482   8.837   6.714   2.440
 3747WAT     H111483   8.825   6.679   2.347
 3747WAT     H211484   8.749   6.717   2.486
 3748WAT      O11485   5.093   0.606   8.868
 3748WAT     H111486   5.165   0.573   8.807
 3748WAT     H211487   5.123   0.692   8.910
 3749WAT      O11488   4.835   8.373   3.204
 3749WAT     H111489   4.868   8.466   3.185
 3749WAT     H211490   4.869   8.344   3.294
 3750WAT      O11491   0.964   3.528   0.696
 3750WAT     H111492   1.040   3.469   0.670
 3750WAT     H211493   0.999   3.609   0.745
 3751WAT      O11494   8.837   2.269   0.378
 3751WAT     H111495   8.807   2.216   0.298
 3751WAT     H211496   8.758   2.315   0.418
 3752WAT      O11497   0.035   1.360   9.779
 3752WAT     H111498  -0.065   1.359   9.773
 3752WAT     H211499   0.069   1.450   9.752
 3753WAT      O11500   3.327   2.143   0.229
 3753WAT     H111501   3.401   2.188   0.279
 3753WAT     H211502   3.337   2.160   0.131
 3754WAT      O11503   1.117   2.392   4.301
 3754WAT     H111504   1.079   2.301   4.313
 3754WAT     H211505   1.205   2.398   4.348
 3755WAT      O11506   2.841   3.323   5.392
 3755WAT     H111507   2.901   3.403   5.394
 3755WAT     H211508   2.801   3.313   5.301
 3756WAT      O11509   5.440   8.196   7.968
 3756WAT     H111510   5.369   8.224   7.902
 3756WAT     H211511   5.398   8.181   8.057
 3757WAT      O11512   6.312   1.636   6.512
 3757WAT     H111513   6.398   1.681   6.536
 3757WAT     H211514   6.241   1.662   6.577
 3758WAT      O11515   2.123   3.402   1.682
 3758WAT     H111516   2.214   3.426   1.715
 3758WAT     H211517   2.117   3.303   1.669
 3759WAT      O11518   3.498   9.387   0.023
 3759WAT     H111519   3.596   9.403   0.036
 3759WAT     H211520   3.466   9.317   0.086
 3760WAT      O11521   9.549   6.753   2.015
 3760WAT     H111522   9.501   6.812   2.080
 3760WAT     H211523   9.483   6.710   1.954
 3761WAT      O11524   5.126   0.805   3.345
 3761WAT     H111525   5.031   0.774   3.339
 3761WAT     H211526   5.128   0.904   3.360
 3762WAT      O11527   0.592   2.394   2.209
 3762WAT     H111528   0.509   2.405   2.264
 3762WAT     H211529   0.578   2.321   2.142
 3763WAT      O11530   9.139   8.955   9.810
 3763WAT     H111531   9.174   9.049   9.819
 3763WAT     H211532   9.201   8.892   9.857
 3764WAT      O11533   6.849   6.351   7.583
 3764WAT     H111534   6.895   6.346   7.494
 3764WAT     H211535   6.751   6.338   7.570
 3765WAT      O11536   3.764   8.865   1.793
 3765WAT     H111537   3.781   8.951   1.747
 3765WAT     H211538   3.773   8.789   1.728
 3766WAT      O11539   0.140   9.049   4.337
 3766WAT     H111540   0.231   9.088   4.349
 3766WAT     H211541   0.106   9.070   4.246
 3767WAT      O11542   2.641   6.482   5.665
 3767WAT     H111543   2.554   6.492   5.616
 3767WAT     H211544   2.652   6.559   5.728
 3768WAT      O11545   3.065   2.471   0.427
 3768WAT     H111546   3.083   2.385   0.380
 3768WAT     H211547   3.045   2.542   0.360
 3769WAT      O11548   0.134   7.036   4.053
 3769WAT     H111549   0.189   7.064   4.131
 3769WAT     H211550   0.044   7.079   4.058
 3770WAT      O11551   5.690   3.933   1.917
 3770WAT     H111552   5.742   3.986   1.985
 3770WAT     H211553   5.728   3.840   1.912
 3771WAT      O11554   6.862   5.727   3.610
 3771WAT     H111555   6.846   5.750   3.514
 3771WAT     H211556   6.804   5.651   3.637
 3772WAT      O11557   3.094   1.108   2.273
 3772WAT     H111558   3.151   1.178   2.317
 3772WAT     H211559   3.124   1.096   2.178
 3773WAT      O11560   3.594   1.974   9.406
 3773WAT     H111561   3.511   2.029   9.412
 3773WAT     H211562   3.593   1.904   9.478
 3774WAT      O11563   2.538   5.591   5.593
 3774WAT     H111564   2.477   5.512   5.597
 3774WAT     H211565   2.631   5.563   5.620
 3775WAT      O11566   6.058   8.180   1.335
 3775WAT     H111567   6.077   8.265   1.384
 3775WAT     H211568   6.008   8.118   1.394
 3776WAT      O11569   9.389   5.549   2.400
 3776WAT     H111570   9.350   5.512   2.316
 3776WAT     H211571   9.478   5.591   2.380
 3777WAT      O11572   3.157   3.756   4.192
 3777WAT     H111573   3.141   3.729   4.098
 3777WAT     H211574   3.153   3.856   4.199
 3778WAT      O11575   5.926   5.463   0.161
 3778WAT     H111576   5.874   5.543   0.194
 3778WAT     H211577   5.960   5.482   0.070
 3779WAT      O11578   1.278   6.769   1.671
 3779WAT     H111579   1.232   6.827   1.604
 3779WAT     H211580   1.330   6.697   1.622
 3780WAT      O11581   1.683   4.413   2.752
 3780WAT     H111582   1.685   4.346   2.678
 3780WAT     H211583   1.593   4.412   2.796
 3781WAT      O11584   3.937   9.650   4.255
 3781WAT     H111585   3.982   9.728   4.210
 3781WAT     H211586   3.839   9.670   4.265
 3782WAT      O11587   0.375   0.735   0.623
 3782WAT     H111588   0.400   0.768   0.532
 3782WAT     H211589   0.423   0.649   0.642
 3783WAT      O11590   2.953   6.226   7.116
 3783WAT     H111591   3.036   6.206   7.064
 3783WAT     H211592   2.874   6.188   7.069
 3784WAT      O11593   1.655   2.344   4.393
 3784WAT     H111594   1.594   2.302   4.462
 3784WAT     H211595   1.720   2.276   4.361
 3785WAT      O11596   9.047   8.012   3.435
 3785WAT     H111597   9.118   7.943   3.418
 3785WAT     H211598   9.026   8.015   3.532
 3786WAT      O11599   7.982   1.636   8.798
 3786WAT     H111600   7.903   1.610   8.853
 3786WAT     H211601   7.950   1.686   8.717
 3787WAT      O11602   5.729   3.194   3.386
 3787WAT     H111603   5.701   3.111   3.339
 3787WAT     H211604   5.793   3.245   3.328
 3788WAT      O11605   1.880   3.055   5.823
 3788WAT     H111606   1.843   2.967   5.852
 3788WAT     H211607   1.915   3.047   5.730
 3789WAT      O11608   4.989   0.889   7.632
 3789WAT     H111609   4.926   0.861   7.560
 3789WAT     H211610   5.014   0.809   7.687
 3790WAT      O11611   2.994   4.954   3.437
 3790WAT     H111612   3.065   4.920   3.375
 3790WAT     H211613   2.928   4.881   3.454
 3791WAT      O11614   9.637   9.509   7.613
 3791WAT     H111615   9.659   9.592   7.664
 3791WAT     H211616   9.704   9.438   7.635
 3792WAT      O11617   8.575   8.531   0.988
 3792WAT     H111618   8.614   8.546   1.079
 3792WAT     H211619   8.483   8.569   0.985
 3793WAT      O11620   1.978   8.789   9.397
 3793WAT     H111621   1.945   8.783   9.491
 3793WAT     H211622   1.922   8.730   9.338
 3794WAT      O11623   0.266   1.986   9.349
 3794WAT     H111624   0.272   1.967   9.251
 3794WAT     H211625   0.178   1.954   9.384
 3795WAT      O11626   3.164   4.687   6.768
 3795WAT     H111627   3.070   4.720   6.767
 3795WAT     H211628   3.168   4.600   6.818
 3796WAT      O11629   1.637   9.046   4.953
 3796WAT     H111630   1.657   9.059   5.051
 3796WAT     H211631   1.595   8.957   4.939
 3797WAT      O11632   3.125   8.605   5.770
 3797WAT     H111633   3.203   8.649   5.724
 3797WAT     H211634   3.114   8.644   5.861
 3798WAT      O11635   5.206   5.124   9.126
 3798WAT     H111636   5.201   5.074   9.213
 3798WAT     H211637   5.154   5.208   9.132
 3799WAT      O11638   0.966   1.945   8.647
 3799WAT     H111639   1.052   1.901   8.620
 3799WAT     H211640   0.959   2.034   8.602
 3800WAT      O11641   9.090   8.167   5.052
 3800WAT     H111642   9.066   8.188   4.957
 3800WAT     H211643   9.180   8.205   5.073
 3801WAT      O11644   2.369   8.540   6.316
 3801WAT     H111645   2.425   8.457   6.322
 3801WAT     H211646   2.361   8.568   6.220
 3802WAT      O11647   8.514   1.081   5.747
 3802WAT     H111648   8.475   1.070   5.656
 3802WAT     H211649   8.504   0.996   5.798
 3803WAT      O11650   3.663   8.560   8.594
 3803WAT     H111651   3.697   8.648   8.562
 3803WAT     H211652   3.737   8.511   8.642
 3804WAT      O11653   0.231   6.392   7.074
 3804WAT     H111654   0.176   6.450   7.013
 3804WAT     H211655   0.176   6.365   7.153
 3805WAT      O11656   2.117   9.721   6.854
 3805WAT     H111657   2.085   9.813   6.876
 3805WAT     H211658   2.079   9.656   6.919
 3806WAT      O11659   7.871   8.649   6.876
 3806WAT     H111660   7.913   8.603   6.797
 3806WAT     H211661   7.772   8.634   6.874
 3807WAT      O11662   0.755   3.596   8.944
 3807WAT     H111663   0.748   3.592   8.844
 3807WAT     H211664   0.685   3.538   8.984
 3808WAT      O11665   9.043   5.911   7.975
 3808WAT     H111666   8.985   5.931   7.896
 3808WAT     H211667   9.020   5.820   8.011
 3809WAT      O11668   7.660   0.087   3.282
 3809WAT     H111669   7.580   0.030   3.262
 3809WAT     H211670   7.709   0.048   3.360
 3810WAT      O11671   9.825   6.073   7.435
 3810WAT     H111672   9.917   6.034   7.431
 3810WAT     H211673   9.792   6.070   7.530
 3811WAT      O11674   7.695   2.795   1.160
 3811WAT     H111675   7.752   2.870   1.194
 3811WAT     H211676   7.600   2.812   1.183
 3812WAT      O11677   3.396   5.708   6.517
 3812WAT     H111678   3.364   5.787   6.464
 3812WAT     H211679   3.440   5.643   6.456
 3813WAT      O11680   2.784   6.929   6.800
 3813WAT     H111681   2.832   7.016   6.810
 3813WAT     H211682   2.732   6.909   6.883
 3814WAT      O11683   3.737   3.743   2.977
 3814WAT     H111684   3.781   3.832   2.976
 3814WAT     H211685   3.696   3.727   3.067
 3815WAT      O11686   8.425   1.112   8.310
 3815WAT     H111687   8.375   1.189   8.269
 3815WAT     H211688   8.522   1.135   8.315
 3816WAT      O11689   9.192   1.663   1.239
 3816WAT     H111690   9.287   1.635   1.229
 3816WAT     H211691   9.136   1.617   1.170
 3817WAT      O11692   3.016   6.404   1.518
 3817WAT     H111693   3.086   6.355   1.570
 3817WAT     H211694   2.936   6.346   1.506
 3818WAT      O11695   2.112   2.880   1.773
 3818WAT     H111696   2.193   2.857   1.827
 3818WAT     H211697   2.029   2.853   1.824
 3819WAT      O11698   9.250   0.244   5.497
 3819WAT     H111699   9.225   0.256   5.401
 3819WAT     H211700   9.182   0.187   5.542
 3820WAT      O11701   9.461   3.503   7.757
 3820WAT     H111702   9.452   3.404   7.754
 3820WAT     H211703   9.558   3.527   7.752
 3821WAT      O11704   3.057   8.050   5.694
 3821WAT     H111705   3.095   8.139   5.718
 3821WAT     H211706   2.971   8.063   5.643
 3822WAT      O11707   8.650   5.117   8.250
 3822WAT     H111708   8.678   5.029   8.212
 3822WAT     H211709   8.724   5.183   8.242
 3823WAT      O11710   4.038   1.287   6.465
 3823WAT     H111711   3.968   1.306   6.534
 3823WAT     H211712   4.064   1.190   6.470
 3824WAT      O11713   6.892   6.193   1.483
 3824WAT     H111714   6.870   6.246   1.565
 3824WAT     H211715   6.954   6.245   1.425
 3825WAT      O11716   7.752   1.925   5.893
 3825WAT     H111717   7.750   2.015   5.850
 3825WAT     H211718   7.740   1.854   5.823
 3826WAT      O11719   1.576   0.340   1.153
 3826WAT     H111720   1.608   0.301   1.239
 3826WAT     H211721   1.611   0.433   1.143
 3827WAT      O11722   7.169   5.409   8.611
 3827WAT     H111723   7.163   5.348   8.532
 3827WAT     H211724   7.176   5.354   8.695
 3828WAT      O11725   8.244   2.465   6.642
 3828WAT     H111726   8.308   2.472   6.566
 3828WAT     H211727   8.151   2.486   6.610
 3829WAT      O11728   6.582   7.182   0.576
 3829WAT     H111729   6.550   7.212   0.486
 3829WAT     H211730   6.680   7.198   0.583
 3830WAT      O11731   0.449   6.345   0.876
 3830WAT     H111732   0.485   6.283   0.945
 3830WAT     H211733   0.490   6.323   0.787
 3831WAT      O11734   1.804   4.295   1.364
 3831WAT     H111735   1.889   4.322   1.411
 3831WAT     H211736   1.815   4.204   1.326
 3832WAT      O11737   7.024   3.338   3.846
 3832WAT     H111738   7.012   3.405   3.773
 3832WAT     H211739   6.972   3.256   3.824
 3833WAT      O11740   5.728   6.813   9.602
 3833WAT     H111741   5.760   6.746   9.669
 3833WAT     H211742   5.712   6.767   9.514
 3834WAT      O11743   1.672   1.342   5.964
 3834WAT     H111744   1.664   1.343   5.865
 3834WAT     H211745   1.584   1.364   6.005
 3835WAT      O11746   1.426   9.521   3.618
 3835WAT     H111747   1.374   9.601   3.649
 3835WAT     H211748   1.509   9.551   3.572
 3836WAT      O11749   4.309   9.454   2.236
 3836WAT     H111750   4.314   9.516   2.314
 3836WAT     H211751   4.248   9.493   2.166
 3837WAT      O11752   9.484   9.261   8.073
 3837WAT     H111753   9.445   9.211   8.150
 3837WAT     H211754   9.542   9.200   8.020
 3838WAT      O11755   8.408   1.860   7.915
 3838WAT     H111756   8.320   1.865   7.869
 3838WAT     H211757   8.455   1.947   7.907
 3839WAT      O11758   6.621   3.685   3.004
 3839WAT     H111759   6.594   3.742   3.082
 3839WAT     H211760   6.719   3.692   2.989
 3840WAT      O11761   7.231   3.339   8.832
 3840WAT     H111762   7.229   3.297   8.923
 3840WAT     H211763   7.141   3.330   8.789
 3841WAT      O11764   1.557   8.653   2.954
 3841WAT     H111765   1.614   8.584   2.909
 3841WAT     H211766   1.476   8.672   2.898
 3842WAT      O11767   5.180   3.074   9.299
 3842WAT     H111768   5.184   2.977   9.274
 3842WAT     H211769   5.120   3.086   9.377
 3843WAT      O11770   4.540   2.390   9.435
 3843WAT     H111771   4.526   2.301   9.393
 3843WAT     H211772   4.489   2.396   9.520
 3844WAT      O11773   8.758   3.764   7.447
 3844WAT     H111774   8.734   3.861   7.440
 3844WAT     H211775   8.844   3.756   7.498
 3845WAT      O11776   7.222   8.958   5.582
 3845WAT     H111777   7.144   8.968   5.520
 3845WAT     H211778   7.280   9.039   5.575
 3846WAT      O11779   9.220   4.163   7.223
 3846WAT     H111780   9.166   4.240   7.191
 3846WAT     H211781   9.161   4.101   7.276
 3847WAT      O11782   8.501   9.047   1.123
 3847WAT     H111783   8.570   9.054   1.196
 3847WAT     H211784   8.415   9.088   1.155
 3848WAT      O11785   9.304   9.076   2.008
 3848WAT     H111786   9.338   8.983   2.016
 3848WAT     H211787   9.315   9.123   2.096
 3849WAT      O11788   8.913   9.410   6.445
 3849WAT     H111789   8.865   9.412   6.533
 3849WAT     H211790   8.857   9.363   6.378
 3850WAT      O11791   2.843   8.946   6.398
 3850WAT     H111792   2.782   8.918   6.324
 3850WAT     H211793   2.843   9.046   6.406
 3851WAT      O11794   9.820   0.722   8.300
 3851WAT     H111795   9.856   0.782   8.372
 3851WAT     H211796   9.881   0.724   8.221
 3852WAT      O11797   1.221   5.908   9.158
 3852WAT     H111798   1.289   5.869   9.096
 3852WAT     H211799   1.167   5.834   9.198
 3853WAT      O11800   3.962   0.251   0.686
 3853WAT     H111801   3.937   0.321   0.619
 3853WAT     H211802   3.924   0.163   0.657
 3854WAT      O11803   6.869   9.328   0.610
 3854WAT     H111804   6.961   9.330   0.648
 3854WAT     H211805   6.861   9.254   0.544
 3855WAT      O11806   6.629   8.443   2.225
 3855WAT     H111807   6.540   8.465   2.185
 3855WAT     H211808   6.618   8.419   2.321
 3856WAT      O11809   9.260   7.451   8.826
 3856WAT     H111810   9.214   7.503   8.898
 3856WAT     H211811   9.333   7.507   8.786
 3857WAT      O11812   2.989   6.515   7.404
 3857WAT     H111813   2.989   6.463   7.490
 3857WAT     H211814   2.903   6.499   7.356
 3858WAT      O11815   7.246   8.898   0.199
 3858WAT     H111816   7.333   8.850   0.213
 3858WAT     H211817   7.262   8.996   0.204
 3859WAT      O11818   6.225   4.677   0.601
 3859WAT     H111819   6.193   4.665   0.695
 3859WAT     H211820   6.321   4.706   0.602
 3860WAT      O11821   4.407   6.970   3.882
 3860WAT     H111822   4.322   7.017   3.857
 3860WAT     H211823   4.402   6.875   3.853
 3861WAT      O11824   1.941   4.918   7.876
 3861WAT     H111825   1.857   4.895   7.924
 3861WAT     H211826   1.960   4.848   7.807
 3862WAT      O11827   0.663   8.421   8.556
 3862WAT     H111828   0.663   8.424   8.656
 3862WAT     H211829   0.724   8.492   8.521
 3863WAT      O11830   6.974   0.480   9.290
 3863WAT     H111831   7.011   0.553   9.347
 3863WAT     H211832   6.875   0.473   9.306
 3864WAT      O11833   0.290   8.643   5.355
 3864WAT     H111834   0.221   8.570   5.362
 3864WAT     H211835   0.300   8.669   5.259
 3865WAT      O11836   2.082   1.094   5.566
 3865WAT     H111837   2.005   1.060   5.620
 3865WAT     H211838   2.168   1.069   5.611
 3866WAT      O11839   7.854   6.474   3.067
 3866WAT     H111840   7.819   6.508   3.154
 3866WAT     H211841   7.861   6.375   3.070
 3867WAT      O11842   2.755   1.315   8.604
 3867WAT     H111843   2.719   1.243   8.664
 3867WAT     H211844   2.704   1.399   8.620
 3868WAT      O11845   3.436   8.920   6.031
 3868WAT     H111846   3.433   8.822   6.011
 3868WAT     H211847   3.442   8.934   6.129
 3869WAT      O11848   2.184   3.390   0.640
 3869WAT     H111849   2.177   3.293   0.616
 3869WAT     H211850   2.238   3.401   0.723
 3870WAT      O11851   7.393   8.045   6.496
 3870WAT     H111852   7.398   8.053   6.596
 3870WAT     H211853   7.299   8.024   6.469
 3871WAT      O11854   1.718   3.055   1.341
 3871WAT     H111855   1.637   3.110   1.320
 3871WAT     H211856   1.691   2.976   1.397
 3872WAT      O11857   2.251   4.432   0.318
 3872WAT     H111858   2.323   4.466   0.257
 3872WAT     H211859   2.238   4.334   0.300
 3873WAT      O11860   0.944   4.408   1.244
 3873WAT     H111861   0.959   4.457   1.158
 3873WAT     H211862   0.889   4.464   1.306
 3874WAT      O11863   0.144   6.482   3.913
 3874WAT     H111864   0.209   6.406   3.908
 3874WAT     H211865   0.185   6.564   3.873
 3875WAT      O11866   1.867   9.013   5.563
 3875WAT     H111867   1.949   9.030   5.617
 3875WAT     H211868   1.889   9.010   5.466
 3876WAT      O11869   3.293   4.936   9.187
 3876WAT     H111870   3.287   5.034   9.170
 3876WAT     H211871   3.384   4.903   9.163
 3877WAT      O11872   2.354   4.105   7.692
 3877WAT     H111873   2.331   4.035   7.759
 3877WAT     H211874   2.450   4.130   7.701
 3878WAT      O11875   4.716   9.190   1.576
 3878WAT     H111876   4.727   9.141   1.662
 3878WAT     H211877   4.632   9.160   1.531
 3879WAT      O11878   9.515   8.940   2.845
 3879WAT     H111879   9.508   8.847   2.881
 3879WAT     H211880   9.437   8.958   2.785
 3880WAT      O11881   3.994   5.246   7.075
 3880WAT     H111882   4.061   5.173   7.087
 3880WAT     H211883   4.024   5.307   7.002
 3881WAT      O11884   8.942   3.915   9.075
 3881WAT     H111885   8.849   3.916   9.112
 3881WAT     H211886   8.957   3.829   9.025
 3882WAT      O11887   1.111   2.004   2.393
 3882WAT     H111888   1.091   2.061   2.312
 3882WAT     H211889   1.198   1.958   2.379
 3883WAT      O11890   7.126   7.180   1.951
 3883WAT     H111891   7.199   7.193   2.018
 3883WAT     H211892   7.058   7.116   1.987
 3884WAT      O11893   4.278   3.799   2.591
 3884WAT     H111894   4.189   3.796   2.637
 3884WAT     H211895   4.319   3.707   2.593
 3885WAT      O11896   2.833   1.368   2.806
 3885WAT     H111897   2.823   1.455   2.854
 3885WAT     H211898   2.847   1.386   2.708
 3886WAT      O11899   4.760   2.783   2.823
 3886WAT     H111900   4.834   2.850   2.825
 3886WAT     H211901   4.737   2.762   2.728
 3887WAT      O11902   1.290   6.487   8.771
 3887WAT     H111903   1.283   6.459   8.867
 3887WAT     H211904   1.376   6.535   8.757
 3888WAT      O11905   6.439   7.675   9.087
 3888WAT     H111906   6.402   7.591   9.047
 3888WAT     H211907   6.413   7.753   9.030
 3889WAT      O11908   3.722   7.706   9.114
 3889WAT     H111909   3.682   7.615   9.120
 3889WAT     H211910   3.822   7.698   9.117
 3890WAT      O11911   3.564   0.235   0.497
 3890WAT     H111912   3.567   0.334   0.516
 3890WAT     H211913   3.526   0.220   0.406
 3891WAT      O11914   3.724   2.535   4.284
 3891WAT     H111915   3.666   2.602   4.331
 3891WAT     H211916   3.723   2.449   4.334
 3892WAT      O11917   6.652   5.069   9.851
 3892WAT     H111918   6.601   5.155   9.843
 3892WAT     H211919   6.595   5.001   9.898
 3893WAT      O11920   7.649   8.846   8.849
 3893WAT     H111921   7.613   8.806   8.933
 3893WAT     H211922   7.739   8.887   8.867
 3894WAT      O11923   4.130   6.226   8.925
 3894WAT     H111924   4.077   6.298   8.969
 3894WAT     H211925   4.228   6.242   8.942
 3895WAT      O11926   8.975   0.780   7.420
 3895WAT     H111927   9.001   0.687   7.443
 3895WAT     H211928   8.888   0.779   7.370
 3896WAT      O11929   2.460   9.536   4.101
 3896WAT     H111930   2.376   9.572   4.140
 3896WAT     H211931   2.513   9.610   4.059
 3897WAT      O11932   1.825   3.015   4.453
 3897WAT     H111933   1.770   2.932   4.452
 3897WAT     H211934   1.831   3.050   4.547
 3898WAT      O11935   7.592   4.353   7.954
 3898WAT     H111936   7.538   4.274   7.927
 3898WAT     H211937   7.564   4.383   8.046
 3899WAT      O11938   1.161   9.119   0.991
 3899WAT     H111939   1.170   9.165   0.902
 3899WAT     H211940   1.245   9.068   1.011
 3900WAT      O11941   4.617   5.543   8.685
 3900WAT     H111942   4.640   5.502   8.773
 3900WAT     H211943   4.526   5.584   8.690
 3901WAT      O11944   7.220   9.011   5.910
 3901WAT     H111945   7.217   8.984   5.814
 3901WAT     H211946   7.300   9.069   5.926
 3902WAT      O11947   3.720   7.624   0.946
 3902WAT     H111948   3.678   7.582   1.026
 3902WAT     H211949   3.667   7.704   0.918
 3903WAT      O11950   4.957   6.992   4.789
 3903WAT     H111951   4.918   6.941   4.712
 3903WAT     H211952   4.897   6.983   4.868
 3904WAT      O11953   3.762   5.752   2.126
 3904WAT     H111954   3.756   5.654   2.148
 3904WAT     H211955   3.689   5.801   2.173
 3905WAT      O11956   7.265   1.225   8.591
 3905WAT     H111957   7.269   1.306   8.651
 3905WAT     H211958   7.292   1.252   8.498
 3906WAT      O11959   7.964   0.374   0.041
 3906WAT     H111960   7.880   0.348   0.090
 3906WAT     H211961   8.032   0.302   0.053
 3907WAT      O11962   4.696   1.202   4.144
 3907WAT     H111963   4.661   1.116   4.107
 3907WAT     H211964   4.662   1.278   4.089
 3908WAT      O11965   9.483   1.401   1.937
 3908WAT     H111966   9.446   1.357   1.855
 3908WAT     H211967   9.581   1.415   1.927
 3909WAT      O11968   5.471   8.774   2.434
 3909WAT     H111969   5.394   8.804   2.378
 3909WAT     H211970   5.539   8.846   2.440
 3910WAT      O11971   3.825   3.063   2.919
 3910WAT     H111972   3.814   3.001   2.997
 3910WAT     H211973   3.876   3.017   2.846
 3911WAT      O11974   6.970   2.361   4.584
 3911WAT     H111975   7.003   2.455   4.591
 3911WAT     H211976   6.944   2.342   4.490
 3912WAT      O11977   1.335   8.199   5.732
 3912WAT     H111978   1.275   8.264   5.685
 3912WAT     H211979   1.303   8.185   5.826
 3913WAT      O11980   6.557   8.162   3.941
 3913WAT     H111981   6.539   8.123   4.031
 3913WAT     H211982   6.502   8.114   3.873
 3914WAT      O11983   3.589   9.717   7.389
 3914WAT     H111984   3.542   9.648   7.443
 3914WAT     H211985   3.677   9.738   7.430
 3915WAT      O11986   6.999   5.534   2.638
 3915WAT     H111987   6.900   5.536   2.655
 3915WAT     H211988   7.017   5.557   2.543
 3916WAT      O11989   2.617   4.083   0.564
 3916WAT     H111990   2.618   4.117   0.658
 3916WAT     H211991   2.523   4.067   0.536
 3917WAT      O11992   0.899   2.090   3.351
 3917WAT     H111993   0.877   2.135   3.264
 3917WAT     H211994   0.818   2.042   3.384
 3918WAT      O11995   6.474   3.277   0.457
 3918WAT     H111996   6.412   3.241   0.387
 3918WAT     H211997   6.423   3.339   0.518
 3919WAT      O11998   7.623   9.749   9.272
 3919WAT     H111999   7.631   9.728   9.370
 3919WAT     H212000   7.713   9.772   9.236
 3920WAT      O12001   1.809   1.628   8.569
 3920WAT     H112002   1.786   1.719   8.603
 3920WAT     H212003   1.812   1.629   8.469
 3921WAT      O12004   5.194   9.090   5.502
 3921WAT     H112005   5.146   9.035   5.434
 3921WAT     H212006   5.153   9.181   5.505
 3922WAT      O12007   1.252   5.845   8.612
 3922WAT     H112008   1.245   5.796   8.699
 3922WAT     H212009   1.226   5.783   8.537
 3923WAT      O12010   2.388   7.994   4.466
 3923WAT     H112011   2.482   7.967   4.445
 3923WAT     H212012   2.371   8.086   4.431
 3924WAT      O12013   4.009   7.709   9.051
 3924WAT     H112014   4.087   7.651   9.027
 3924WAT     H212015   4.028   7.803   9.024
 3925WAT      O12016   6.322   3.396   6.015
 3925WAT     H112017   6.392   3.401   5.945
 3925WAT     H212018   6.235   3.427   5.978
 3926WAT      O12019   9.874   0.468   6.536
 3926WAT     H112020   9.801   0.425   6.589
 3926WAT     H212021   9.915   0.401   6.474
 3927WAT      O12022   2.688   8.210   1.780
 3927WAT     H112023   2.617   8.177   1.717
 3927WAT     H212024   2.663   8.187   1.874
 3928WAT      O12025   6.973   4.119   7.227
 3928WAT     H112026   6.899   4.131   7.161
 3928WAT     H212027   7.033   4.045   7.196
 3929WAT      O12028   6.877   3.409   9.606
 3929WAT     H112029   6.825   3.432   9.688
 3929WAT     H212030   6.858   3.475   9.534
 3930WAT      O12031   8.329   9.226   4.343
 3930WAT     H112032   8.351   9.147   4.401
 3930WAT     H212033   8.350   9.310   4.392
 3931WAT      O12034   3.585   2.590   1.033
 3931WAT     H112035   3.525   2.537   1.092
 3931WAT     H212036   3.613   2.674   1.080
 3932WAT      O12037   9.574   8.339   3.373
 3932WAT     H112038   9.582   8.366   3.277
 3932WAT     H212039   9.664   8.313   3.408
 3933WAT      O12040   7.808   6.538   2.553
 3933WAT     H112041   7.765   6.598   2.621
 3933WAT     H212042   7.844   6.593   2.478
 3934WAT      O12043   4.741   3.523   2.071
 3934WAT     H112044   4.806   3.448   2.061
 3934WAT     H212045   4.780   3.593   2.132
 3935WAT      O12046   4.729   8.768   4.029
 3935WAT     H112047   4.814   8.819   4.010
 3935WAT     H212048   4.698   8.723   3.945
 3936WAT      O12049   4.792   4.204   2.160
 3936WAT     H112050   4.729   4.138   2.201
 3936WAT     H212051   4.766   4.222   2.065
 3937WAT      O12052   5.128   1.599   8.497
 3937WAT     H112053   5.159   1.591   8.592
 3937WAT     H212054   5.200   1.567   8.436
 3938WAT      O12055   8.962   9.780   4.960
 3938WAT     H112056   8.965   9.816   5.053
 3938WAT     H212057   8.963   9.856   4.895
 3939WAT      O12058   9.583   4.978   3.967
 3939WAT     H112059   9.675   4.943   3.981
 3939WAT     H212060   9.584   5.078   3.965
 3940WAT      O12061   9.157   2.937   2.872
 3940WAT     H112062   9.226   2.995   2.916
 3940WAT     H212063   9.078   2.927   2.933
 3941WAT      O12064   1.688   7.843   8.119
 3941WAT     H112065   1.694   7.746   8.144
 3941WAT     H212066   1.651   7.851   8.026
 3942WAT      O12067   6.478   7.131   3.372
 3942WAT     H112068   6.493   7.120   3.470
 3942WAT     H212069   6.549   7.080   3.322
 3943WAT      O12070   8.497   2.649   6.162
 3943WAT     H112071   8.489   2.746   6.138
 3943WAT     H212072   8.560   2.639   6.239
 3944WAT      O12073   8.929   0.264   2.627
 3944WAT     H112074   8.927   0.265   2.527
 3944WAT     H212075   8.874   0.339   2.663
 3945WAT      O12076   7.922   1.784   8.578
 3945WAT     H112077   7.977   1.866   8.596
 3945WAT     H212078   7.827   1.810   8.561
 3946WAT      O12079   7.985   3.637   3.480
 3946WAT     H112080   7.900   3.588   3.499
 3946WAT     H212081   7.978   3.731   3.513
 3947WAT      O12082   0.576   6.189   7.911
 3947WAT     H112083   0.575   6.164   7.814
 3947WAT     H212084   0.529   6.277   7.924
 3948WAT      O12085   3.787   8.915   1.324
 3948WAT     H112086   3.742   8.960   1.247
 3948WAT     H212087   3.874   8.961   1.343
 3949WAT      O12088   1.076   6.594   1.461
 3949WAT     H112089   1.117   6.675   1.503
 3949WAT     H212090   0.977   6.603   1.462
 3950WAT      O12091   5.026   1.244   2.674
 3950WAT     H112092   5.071   1.213   2.758
 3950WAT     H212093   4.938   1.199   2.665
 3951WAT      O12094   9.035   7.439   9.577
 3951WAT     H112095   8.976   7.367   9.542
 3951WAT     H212096   8.997   7.474   9.663
 3952WAT      O12097   2.818   0.250   4.553
 3952WAT     H112098   2.740   0.188   4.561
 3952WAT     H212099   2.837   0.291   4.642
 3953WAT      O12100   6.137   3.013   4.092
 3953WAT     H112101   6.190   3.097   4.082
 3953WAT     H212102   6.189   2.936   4.054
 3954WAT      O12103   2.976   6.895   2.477
 3954WAT     H112104   3.013   6.941   2.558
 3954WAT     H212105   2.889   6.937   2.452
 3955WAT      O12106   0.179   2.336   6.533
 3955WAT     H112107   0.179   2.241   6.500
 3955WAT     H212108   0.259   2.351   6.592
 3956WAT      O12109   8.621   5.832   6.744
 3956WAT     H112110   8.608   5.788   6.833
 3956WAT     H212111   8.533   5.833   6.695
 3957WAT      O12112   2.442   6.403   5.066
 3957WAT     H112113   2.472   6.369   4.977
 3957WAT     H212114   2.343   6.391   5.074
 3958WAT      O12115   8.793   3.181   4.396
 3958WAT     H112116   8.877   3.130   4.413
 3958WAT     H212117   8.725   3.158   4.465
 3959WAT      O12118   0.894   7.452   1.044
 3959WAT     H112119   0.907   7.539   0.997
 3959WAT     H212120   0.930   7.377   0.988
 3960WAT      O12121   6.228   5.108   0.557
 3960WAT     H112122   6.193   5.139   0.468
 3960WAT     H212123   6.298   5.038   0.542
 3961WAT      O12124   4.644   4.487   6.788
 3961WAT     H112125   4.722   4.470   6.728
 3961WAT     H212126   4.571   4.531   6.735
 3962WAT      O12127   3.385   2.209   3.003
 3962WAT     H112128   3.348   2.284   3.058
 3962WAT     H212129   3.392   2.238   2.908
 3963WAT      O12130   1.964   4.146   5.554
 3963WAT     H112131   2.022   4.217   5.515
 3963WAT     H212132   2.020   4.069   5.582
 3964WAT      O12133   4.752   1.351   6.202
 3964WAT     H112134   4.689   1.411   6.251
 3964WAT     H212135   4.743   1.258   6.237
 3965WAT      O12136   2.522   4.441   2.110
 3965WAT     H112137   2.524   4.539   2.092
 3965WAT     H212138   2.575   4.393   2.039
 3966WAT      O12139   0.962   3.659   7.002
 3966WAT     H112140   0.987   3.625   6.912
 3966WAT     H212141   0.967   3.585   7.069
 3967WAT      O12142   1.185   2.843   9.626
 3967WAT     H112143   1.155   2.868   9.534
 3967WAT     H212144   1.111   2.859   9.691
 3968WAT      O12145   5.624   6.477   5.223
 3968WAT     H112146   5.583   6.444   5.139
 3968WAT     H212147   5.696   6.414   5.252
 3969WAT      O12148   4.689   7.132   2.528
 3969WAT     H112149   4.749   7.169   2.457
 3969WAT     H212150   4.692   7.192   2.608
 3970WAT      O12151   8.148   6.509   3.015
 3970WAT     H112152   8.185   6.595   2.979
 3970WAT     H212153   8.050   6.518   3.030
 3971WAT      O12154   0.437   1.112   3.398
 3971WAT     H112155   0.391   1.186   3.349
 3971WAT     H212156   0.374   1.071   3.464
 3972WAT      O12157   1.457   8.380   6.515
 3972WAT     H112158   1.540   8.337   6.480
 3972WAT     H212159   1.466   8.479   6.509
 3973WAT      O12160   9.513   9.463   2.587
 3973WAT     H112161   9.494   9.553   2.626
 3973WAT     H212162   9.460   9.393   2.635
 3974WAT      O12163   6.380   7.426   8.949
 3974WAT     H112164   6.406   7.380   9.034
 3974WAT     H212165   6.444   7.401   8.876
 3975WAT      O12166   0.966   4.648   9.360
 3975WAT     H112167   1.023   4.700   9.297
 3975WAT     H212168   0.957   4.554   9.326
 3976WAT      O12169   7.418   5.001   3.588
 3976WAT     H112170   7.463   4.928   3.640
 3976WAT     H212171   7.416   5.085   3.643
 3977WAT      O12172   3.720   2.319   8.583
 3977WAT     H112173   3.630   2.277   8.594
 3977WAT     H212174   3.790   2.258   8.621
 3978WAT      O12175   5.308   9.687   0.734
 3978WAT     H112176   5.331   9.684   0.637
 3978WAT     H212177   5.372   9.748   0.781
 3979WAT      O12178   5.591   2.063   8.444
 3979WAT     H112179   5.665   2.085   8.380
 3979WAT     H212180   5.518   2.130   8.434
 3980WAT      O12181   3.117   6.422   6.356
 3980WAT     H112182   3.106   6.501   6.417
 3980WAT     H212183   3.037   6.414   6.298
 3981WAT      O12184   2.906   4.608   0.470
 3981WAT     H112185   2.884   4.684   0.532
 3981WAT     H212186   2.848   4.529   0.492
 3982WAT      O12187   5.417   8.496   3.885
 3982WAT     H112188   5.397   8.402   3.912
 3982WAT     H212189   5.417   8.502   3.785
 3983WAT      O12190   8.195   7.820   2.604
 3983WAT     H112191   8.213   7.914   2.576
 3983WAT     H212192   8.272   7.761   2.579
 3984WAT      O12193   8.325   8.981   6.556
 3984WAT     H112194   8.371   8.954   6.471
 3984WAT     H212195   8.315   8.901   6.615
 3985WAT      O12196   0.198   0.321   0.710
 3985WAT     H112197   0.172   0.392   0.777
 3985WAT     H212198   0.219   0.364   0.623
 3986WAT      O12199   4.015   9.490   4.711
 3986WAT     H112200   4.034   9.555   4.637
 3986WAT     H212201   3.971   9.538   4.786
 3987WAT      O12202   4.870   5.533   9.826
 3987WAT     H112203   4.905   5.466   9.761
 3987WAT     H212204   4.773   5.550   9.807
 3988WAT      O12205   7.171   3.691   1.842
 3988WAT     H112206   7.172   3.731   1.751
 3988WAT     H212207   7.124   3.603   1.840
 3989WAT      O12208   8.245   1.907   5.181
 3989WAT     H112209   8.154   1.874   5.157
 3989WAT     H212210   8.264   1.990   5.129
 3990WAT      O12211   7.520   8.813   4.653
 3990WAT     H112212   7.456   8.774   4.587
 3990WAT     H212213   7.484   8.799   4.746
 3991WAT      O12214   1.873   1.729   7.568
 3991WAT     H112215   1.929   1.794   7.518
 3991WAT     H212216   1.798   1.777   7.612
 3992WAT      O12217   8.416   3.249   5.247
 3992WAT     H112218   8.457   3.272   5.159
 3992WAT     H212219   8.482   3.196   5.301
 3993WAT      O12220   6.295   2.564   9.484
 3993WAT     H112221   6.225   2.573   9.413
 3993WAT     H212222   6.385   2.554   9.442
 3994WAT      O12223   4.481   8.016   2.067
 3994WAT     H112224   4.455   7.919   2.072
 3994WAT     H212225   4.422   8.069   2.128
 3995WAT      O12226   9.421   3.922   1.464
 3995WAT     H112227   9.337   3.884   1.502
 3995WAT     H212228   9.479   3.955   1.539
 3996WAT      O12229   9.813   1.255   8.820
 3996WAT     H112230   9.881   1.228   8.888
 3996WAT     H212231   9.785   1.175   8.767
 3997WAT      O12232   0.022   9.125   0.482
 3997WAT     H112233   0.078   9.126   0.399
 3997WAT     H212234   0.023   9.217   0.523
 3998WAT      O12235   3.590   7.788   8.706
 3998WAT     H112236   3.670   7.742   8.745
 3998WAT     H212237   3.570   7.871   8.759
 3999WAT      O12238   3.261   2.974   6.828
 3999WAT     H112239   3.175   2.962   6.878
 3999WAT     H212240   3.284   2.889   6.781
 4000WAT      O12241   6.875   5.458   2.979
 4000WAT     H112242   6.899   5.424   2.888
 4000WAT     H212243   6.826   5.386   3.029
 4001WAT      O12244   4.486   3.638   2.013
 4001WAT     H112245   4.578   3.600   1.998
 4001WAT     H212246   4.477   3.666   2.108
 4002WAT      O12247   1.179   3.607   9.841
 4002WAT     H112248   1.115   3.530   9.847
 4002WAT     H212249   1.230   3.601   9.755
 4003WAT      O12250   7.490   3.522   2.844
 4003WAT     H112251   7.481   3.428   2.811
 4003WAT     H212252   7.428   3.582   2.794
 4004WAT      O12253   9.503   4.159   2.277
 4004WAT     H112254   9.447   4.216   2.337
 4004WAT     H212255   9.579   4.213   2.241
 4005WAT      O12256   7.335   9.404   1.112
 4005WAT     H112257   7.336   9.428   1.209
 4005WAT     H212258   7.405   9.456   1.063
 4006WAT      O12259   4.782   2.930   4.877
 4006WAT     H112260   4.750   2.853   4.822
 4006WAT     H212261   4.774   3.014   4.824
 4007WAT      O12262   6.664   2.819   2.539
 4007WAT     H112263   6.564   2.811   2.541
 4007WAT     H212264   6.705   2.730   2.556
 4008WAT      O12265   3.470   6.020   6.976
 4008WAT     H112266   3.507   5.928   6.963
 4008WAT     H212267   3.523   6.068   7.047
 4009WAT      O12268   2.475   2.257   0.609
 4009WAT     H112269   2.538   2.191   0.569
 4009WAT     H212270   2.397   2.208   0.649
 4010WAT      O12271   2.161   3.127   0.055
 4010WAT     H112272   2.149   3.117   0.154
 4010WAT     H212273   2.154   3.224   0.030
 4011WAT      O12274   9.633   9.809   1.414
 4011WAT     H112275   9.692   9.885   1.385
 4011WAT     H212276   9.578   9.838   1.492
 4012WAT      O12277   7.487   3.145   6.743
 4012WAT     H112278   7.418   3.079   6.712
 4012WAT     H212279   7.573   3.097   6.760
 4013WAT      O12280   0.455   5.636   8.016
 4013WAT     H112281   0.439   5.718   7.961
 4013WAT     H212282   0.494   5.564   7.958
 4014WAT      O12283   5.444   8.144   8.485
 4014WAT     H112284   5.423   8.175   8.392
 4014WAT     H212285   5.540   8.118   8.491
 4015WAT      O12286   1.888   3.926   8.369
 4015WAT     H112287   1.917   3.854   8.305
 4015WAT     H212288   1.891   4.014   8.323
 4016WAT      O12289   2.575   7.341   7.460
 4016WAT     H112290   2.602   7.426   7.414
 4016WAT     H212291   2.613   7.263   7.410
 4017WAT      O12292   4.009   6.115   6.620
 4017WAT     H112293   4.060   6.171   6.555
 4017WAT     H212294   3.930   6.166   6.654
 4018WAT      O12295   8.014   5.348   4.442
 4018WAT     H112296   8.059   5.337   4.530
 4018WAT     H212297   8.082   5.343   4.368
 4019WAT      O12298   4.257   5.885   2.635
 4019WAT     H112299   4.302   5.940   2.565
 4019WAT     H212300   4.258   5.935   2.722
 4020WAT      O12301   6.088   1.743   2.247
 4020WAT     H112302   6.059   1.648   2.256
 4020WAT     H212303   6.009   1.800   2.223
 4021WAT      O12304   0.378   7.115   0.030
 4021WAT     H112305   0.454   7.175   0.057
 4021WAT     H212306   0.293   7.148   0.072
 4022WAT      O12307   3.338   2.094   6.258
 4022WAT     H112308   3.377   2.033   6.327
 4022WAT     H212309   3.240   2.105   6.274
 4023WAT      O12310   8.758   4.315   4.330
 4023WAT     H112311   8.852   4.291   4.307
 4023WAT     H212312   8.738   4.409   4.300
 4024WAT      O12313   5.647   1.941   9.105
 4024WAT     H112314   5.698   1.942   9.019
 4024WAT     H212315   5.564   1.887   9.095
 4025WAT      O12316   6.195   7.450   9.231
 4025WAT     H112317   6.246   7.399   9.162
 4025WAT     H212318   6.169   7.389   9.306
 4026WAT      O12319   3.572   3.156   9.547
 4026WAT     H112320   3.637   3.231   9.559
 4026WAT     H212321   3.534   3.129   9.635
 4027WAT      O12322   0.281   7.446   2.885
 4027WAT     H112323   0.348   7.469   2.955
 4027WAT     H212324   0.313   7.367   2.832
 4028WAT      O12325   4.055   2.004   2.064
 4028WAT     H112326   4.155   2.002   2.074
 4028WAT     H212327   4.025   1.922   2.016
 4029WAT      O12328   6.359   6.734   9.382
 4029WAT     H112329   6.301   6.732   9.464
 4029WAT     H212330   6.396   6.643   9.366
 4030WAT      O12331   1.579   8.808   9.355
 4030WAT     H112332   1.571   8.781   9.451
 4030WAT     H212333   1.554   8.904   9.345
 4031WAT      O12334   7.935   5.996   8.554
 4031WAT     H112335   8.027   5.961   8.571
 4031WAT     H212336   7.880   5.925   8.510
 4032WAT      O12337   8.723   8.039   9.170
 4032WAT     H112338   8.709   8.058   9.073
 4032WAT     H212339   8.750   7.944   9.182
 4033WAT      O12340   7.949   9.657   9.490
 4033WAT     H112341   8.000   9.633   9.573
 4033WAT     H212342   7.996   9.732   9.443
 4034WAT      O12343   4.866   6.879   5.099
 4034WAT     H112344   4.916   6.807   5.050
 4034WAT     H212345   4.796   6.837   5.157
 4035WAT      O12346   0.859   2.363   1.002
 4035WAT     H112347   0.860   2.264   0.992
 4035WAT     H212348   0.767   2.397   0.986
 4036WAT      O12349   4.553   7.579   5.956
 4036WAT     H112350   4.537   7.664   6.007
 4036WAT     H212351   4.549   7.598   5.858
 4037WAT      O12352   4.338   3.551   5.735
 4037WAT     H112353   4.298   3.474   5.785
 4037WAT     H212354   4.413   3.589   5.788
 4038WAT      O12355   5.308   6.171   9.379
 4038WAT     H112356   5.345   6.079   9.391
 4038WAT     H212357   5.305   6.218   9.468
 4039WAT      O12358   2.223   8.757   3.843
 4039WAT     H112359   2.226   8.836   3.781
 4039WAT     H212360   2.315   8.741   3.880
 4040WAT      O12361   4.457   5.124   7.982
 4040WAT     H112362   4.406   5.038   7.991
 4040WAT     H212363   4.507   5.124   7.896
 4041WAT      O12364   0.817   4.166   6.638
 4041WAT     H112365   0.804   4.248   6.582
 4041WAT     H212366   0.900   4.176   6.693
 4042WAT      O12367   2.020   1.078   3.553
 4042WAT     H112368   2.085   1.025   3.499
 4042WAT     H212369   2.038   1.065   3.650
 4043WAT      O12370   9.459   6.365   6.951
 4043WAT     H112371   9.389   6.436   6.939
 4043WAT     H212372   9.515   6.386   7.030
 4044WAT      O12373   0.859   8.406   3.033
 4044WAT     H112374   0.855   8.489   3.089
 4044WAT     H212375   0.901   8.332   3.085
 4045WAT      O12376   7.997   9.149   6.816
 4045WAT     H112377   8.021   9.223   6.754
 4045WAT     H212378   8.013   9.061   6.772
 4046WAT      O12379   5.707   7.379   6.255
 4046WAT     H112380   5.701   7.431   6.341
 4046WAT     H212381   5.646   7.300   6.259
 4047WAT      O12382   7.762   2.856   2.222
 4047WAT     H112383   7.700   2.780   2.208
 4047WAT     H212384   7.856   2.825   2.209
 4048WAT      O12385   1.610   6.012   9.255
 4048WAT     H112386   1.596   5.969   9.344
 4048WAT     H212387   1.708   6.026   9.240
 4049WAT      O12388   9.863   6.156   4.305
 4049WAT     H112389   9.872   6.213   4.223
 4049WAT     H212390   9.874   6.060   4.280
 4050WAT      O12391   5.694   4.030   0.376
 4050WAT     H112392   5.772   4.006   0.435
 4050WAT     H212393   5.619   4.062   0.433
 4051WAT      O12394   5.629   3.948   0.907
 4051WAT     H112395   5.699   4.019   0.900
 4051WAT     H212396   5.539   3.989   0.896
 4052WAT      O12397   9.448   0.144   6.706
 4052WAT     H112398   9.370   0.123   6.646
 4052WAT     H212399   9.414   0.189   6.789
 4053WAT      O12400   1.770   2.769   4.963
 4053WAT     H112401   1.801   2.680   4.998
 4053WAT     H212402   1.671   2.771   4.960
 4054WAT      O12403   5.146   8.608   2.441
 4054WAT     H112404   5.194   8.647   2.520
 4054WAT     H212405   5.195   8.527   2.410
 4055WAT      O12406   6.917   0.020   9.021
 4055WAT     H112407   6.920   0.116   9.051
 4055WAT     H212408   6.977   0.009   8.941
 4056WAT      O12409   9.596   1.347   0.477
 4056WAT     H112410   9.578   1.259   0.521
 4056WAT     H212411   9.660   1.335   0.401
 4057WAT      O12412   9.471   1.549   0.777
 4057WAT     H112413   9.570   1.541   0.760
 4057WAT     H212414   9.454   1.630   0.833
 4058WAT      O12415   1.738   0.255   1.367
 4058WAT     H112416   1.734   0.186   1.440
 4058WAT     H212417   1.832   0.267   1.338
 4059WAT      O12418   6.755   3.976   4.717
 4059WAT     H112419   6.788   4.071   4.721
 4059WAT     H212420   6.751   3.938   4.809
 4060WAT      O12421   3.292   1.007   6.645
 4060WAT     H112422   3.287   0.989   6.547
 4060WAT     H212423   3.365   0.952   6.686
 4061WAT      O12424   0.420   0.530   1.532
 4061WAT     H112425   0.510   0.493   1.509
 4061WAT     H212426   0.351   0.458   1.521
 4062WAT      O12427   9.413   9.163   7.782
 4062WAT     H112428   9.510   9.160   7.802
 4062WAT     H212429   9.396   9.227   7.707
 4063WAT      O12430   9.076   5.365   2.418
 4063WAT     H112431   9.042   5.416   2.338
 4063WAT     H212432   9.077   5.426   2.497
 4064WAT      O12433   5.524   4.989   4.286
 4064WAT     H112434   5.577   4.905   4.297
 4064WAT     H212435   5.542   5.050   4.363
 4065WAT      O12436   2.783   2.085   7.829
 4065WAT     H112437   2.777   2.041   7.919
 4065WAT     H212438   2.806   2.182   7.841
 4066WAT      O12439   4.083   0.385   4.244
 4066WAT     H112440   4.183   0.392   4.245
 4066WAT     H212441   4.055   0.313   4.307
 4067WAT      O12442   5.995   0.690   1.199
 4067WAT     H112443   5.904   0.717   1.231
 4067WAT     H212444   6.045   0.771   1.168
 4068WAT      O12445   1.514   0.768   6.102
 4068WAT     H112446   1.539   0.749   6.197
 4068WAT     H212447   1.540   0.861   6.078
 4069WAT      O12448   9.798   5.306   5.711
 4069WAT     H112449   9.874   5.273   5.767
 4069WAT     H212450   9.735   5.358   5.769
 4070WAT      O12451   5.425   4.592   2.932
 4070WAT     H112452   5.450   4.608   3.027
 4070WAT     H212453   5.490   4.639   2.872
 4071WAT      O12454   9.606   6.458   6.071
 4071WAT     H112455   9.581   6.361   6.068
 4071WAT     H212456   9.640   6.486   5.981
 4072WAT      O12457   0.380   6.446   1.185
 4072WAT     H112458   0.440   6.421   1.109
 4072WAT     H212459   0.332   6.531   1.161
 4073WAT      O12460   0.895   2.583   5.134
 4073WAT     H112461   0.921   2.501   5.185
 4073WAT     H212462   0.801   2.573   5.102
 4074WAT      O12463   2.122   1.186   3.129
 4074WAT     H112464   2.052   1.126   3.168
 4074WAT     H212465   2.152   1.251   3.198
 4075WAT      O12466   2.558   6.721   2.881
 4075WAT     H112467   2.620   6.675   2.944
 4075WAT     H212468   2.487   6.770   2.933
 4076WAT      O12469   7.064   1.775   1.193
 4076WAT     H112470   7.038   1.847   1.257
 4076WAT     H212471   7.044   1.686   1.234
 4077WAT      O12472   8.988   1.585   4.945
 4077WAT     H112473   9.080   1.547   4.942
 4077WAT     H212474   8.986   1.661   5.011
 4078WAT      O12475   5.559   1.439   7.367
 4078WAT     H112476   5.462   1.451   7.389
 4078WAT     H212477   5.570   1.424   7.269
 4079WAT      O12478   8.763   2.032   7.311
 4079WAT     H112479   8.772   1.989   7.400
 4079WAT     H212480   8.799   2.126   7.315
 4080WAT      O12481   5.111   0.556   6.421
 4080WAT     H112482   5.112   0.472   6.367
 4080WAT     H212483   5.127   0.635   6.361
 4081WAT      O12484   5.354   9.096   8.411
 4081WAT     H112485   5.407   9.015   8.437
 4081WAT     H212486   5.416   9.173   8.400
 4082WAT      O12487   6.912   6.846   7.072
 4082WAT     H112488   6.888   6.940   7.098
 4082WAT     H212489   6.993   6.847   7.013
 4083WAT      O12490   7.107   5.561   5.813
 4083WAT     H112491   7.099   5.600   5.904
 4083WAT     H212492   7.062   5.472   5.810
 4084WAT      O12493   2.598   8.208   5.407
 4084WAT     H112494   2.606   8.278   5.478
 4084WAT     H212495   2.515   8.154   5.423
 4085WAT      O12496   1.820   7.821   0.802
 4085WAT     H112497   1.756   7.764   0.751
 4085WAT     H212498   1.913   7.787   0.787
 4086WAT      O12499   2.102   2.176   4.790
 4086WAT     H112500   2.192   2.218   4.777
 4086WAT     H212501   2.045   2.192   4.709
 4087WAT      O12502   6.516   2.722   4.576
 4087WAT     H112503   6.613   2.714   4.557
 4087WAT     H212504   6.465   2.720   4.489
 4088WAT      O12505   1.638   3.380   4.815
 4088WAT     H112506   1.540   3.360   4.823
 4088WAT     H212507   1.663   3.451   4.881
 4089WAT      O12508   6.811   4.144   7.464
 4089WAT     H112509   6.869   4.113   7.390
 4089WAT     H212510   6.823   4.243   7.477
 4090WAT      O12511   8.915   9.833   3.457
 4090WAT     H112512   8.855   9.776   3.402
 4090WAT     H212513   8.862   9.907   3.498
 4091WAT      O12514   0.767   8.983   4.592
 4091WAT     H112515   0.687   8.944   4.547
 4091WAT     H212516   0.815   9.045   4.530
 4092WAT      O12517   0.961   3.268   5.726
 4092WAT     H112518   0.956   3.213   5.809
 4092WAT     H212519   0.870   3.276   5.686
 4093WAT      O12520   1.253   6.142   7.991
 4093WAT     H112521   1.280   6.160   7.897
 4093WAT     H212522   1.191   6.063   7.995
 4094WAT      O12523   3.620   9.479   4.663
 4094WAT     H112524   3.602   9.414   4.737
 4094WAT     H212525   3.702   9.532   4.683
 4095WAT      O12526   5.175   0.572   0.535
 4095WAT     H112527   5.149   0.640   0.467
 4095WAT     H212528   5.143   0.481   0.507
 4096WAT      O12529   5.286   1.155   4.810
 4096WAT     H112530   5.279   1.090   4.735
 4096WAT     H212531   5.195   1.172   4.848
 4097WAT      O12532   1.790   8.668   6.076
 4097WAT     H112533   1.832   8.583   6.046
 4097WAT     H212534   1.781   8.667   6.176
 4098WAT      O12535   1.241   2.109   4.614
 4098WAT     H112536   1.185   2.180   4.657
 4098WAT     H212537   1.207   2.019   4.642
 4099WAT      O12538   1.338   3.714   1.969
 4099WAT     H112539   1.369   3.665   1.887
 4099WAT     H212540   1.384   3.677   2.050
 4100WAT      O12541   2.607   5.383   2.327
 4100WAT     H112542   2.682   5.354   2.387
 4100WAT     H212543   2.525   5.398   2.382
 4101WAT      O12544   5.695   7.378   0.440
 4101WAT     H112545   5.738   7.459   0.480
 4101WAT     H212546   5.629   7.406   0.371
 4102WAT      O12547   8.726   9.111   4.135
 4102WAT     H112548   8.781   9.142   4.213
 4102WAT     H212549   8.783   9.109   4.053
 4103WAT      O12550   0.547   2.934   3.305
 4103WAT     H112551   0.454   2.970   3.295
 4103WAT     H212552   0.612   3.010   3.307
 4104WAT      O12553   2.745   5.744   1.060
 4104WAT     H112554   2.834   5.737   1.106
 4104WAT     H212555   2.694   5.821   1.100
 4105WAT      O12556   6.744   1.398   7.230
 4105WAT     H112557   6.790   1.319   7.191
 4105WAT     H212558   6.692   1.445   7.159
 4106WAT      O12559   9.864   5.352   6.665
 4106WAT     H112560   9.824   5.385   6.751
 4106WAT     H212561   9.791   5.326   6.602
 4107WAT      O12562   1.245   2.754   5.474
 4107WAT     H112563   1.311   2.827   5.496
 4107WAT     H212564   1.152   2.792   5.475
 4108WAT      O12565   3.970   9.125   2.173
 4108WAT     H112566   3.923   9.199   2.222
 4108WAT     H212567   4.030   9.163   2.103
 4109WAT      O12568   5.396   4.877   7.372
 4109WAT     H112569   5.481   4.828   7.393
 4109WAT     H212570   5.417   4.958   7.318
 4110WAT      O12571   0.512   4.023   7.058
 4110WAT     H112572   0.600   4.032   7.011
 4110WAT     H212573   0.527   4.001   7.154
 4111WAT      O12574   5.938   4.802   2.307
 4111WAT     H112575   5.910   4.889   2.266
 4111WAT     H212576   5.978   4.744   2.237
 4112WAT      O12577   0.230   1.989   6.994
 4112WAT     H112578   0.216   2.087   6.978
 4112WAT     H212579   0.326   1.973   7.018
 4113WAT      O12580   3.435   2.600   6.893
 4113WAT     H112581   3.359   2.636   6.840
 4113WAT     H212582   3.404   2.521   6.947
 4114WAT      O12583   3.576   3.850   5.907
 4114WAT     H112584   3.564   3.934   5.854
 4114WAT     H212585   3.663   3.855   5.957
 4115WAT      O12586   2.530   9.568   2.111
 4115WAT     H112587   2.448   9.512   2.123
 4115WAT     H212588   2.576   9.542   2.026
 4116WAT      O12589   2.601   9.088   5.572
 4116WAT     H112590   2.672   9.023   5.545
 4116WAT     H212591   2.513   9.039   5.579
 4117WAT      O12592   3.774   3.698   8.739
 4117WAT     H112593   3.835   3.765   8.698
 4117WAT     H212594   3.740   3.635   8.669
 4118WAT      O12595   1.674   8.504   4.414
 4118WAT     H112596   1.768   8.494   4.446
 4118WAT     H212597   1.617   8.432   4.454
 4119WAT      O12598   2.907   1.384   8.946
 4119WAT     H112599   2.815   1.405   8.914
 4119WAT     H212600   2.903   1.334   9.032
 4120WAT      O12601   8.967   6.315   2.167
 4120WAT     H112602   8.950   6.307   2.265
 4120WAT     H212603   8.885   6.349   2.122
 4121WAT      O12604   9.720   7.683   2.907
 4121WAT     H112605   9.649   7.625   2.869
 4121WAT     H212606   9.685   7.729   2.989
 4122WAT      O12607   3.031   8.265   6.697
 4122WAT     H112608   2.950   8.262   6.756
 4122WAT     H212609   3.112   8.277   6.753
 4123WAT      O12610   7.140   2.082   7.373
 4123WAT     H112611   7.066   2.026   7.410
 4123WAT     H212612   7.118   2.179   7.384
 4124WAT      O12613   6.236   0.698   5.160
 4124WAT     H112614   6.206   0.633   5.091
 4124WAT     H212615   6.254   0.787   5.117
 4125WAT      O12616   6.675   1.421   7.895
 4125WAT     H112617   6.761   1.412   7.846
 4125WAT     H212618   6.600   1.387   7.839
 4126WAT      O12619   9.487   1.206   8.469
 4126WAT     H112620   9.421   1.173   8.402
 4126WAT     H212621   9.448   1.196   8.561
 4127WAT      O12622   3.555   8.293   2.033
 4127WAT     H112623   3.506   8.286   1.946
 4127WAT     H212624   3.491   8.318   2.106
 4128WAT      O12625   1.408   4.972   6.418
 4128WAT     H112626   1.402   5.052   6.478
 4128WAT     H212627   1.320   4.959   6.372
 4129WAT      O12628   3.868   3.379   7.142
 4129WAT     H112629   3.954   3.425   7.162
 4129WAT     H212630   3.877   3.326   7.058
 4130WAT      O12631   6.331   2.794   8.111
 4130WAT     H112632   6.335   2.868   8.044
 4130WAT     H212633   6.257   2.811   8.176
 4131WAT      O12634   3.836   5.317   4.533
 4131WAT     H112635   3.797   5.244   4.477
 4131WAT     H212636   3.913   5.281   4.586
 4132WAT      O12637   7.968   5.890   5.036
 4132WAT     H112638   7.938   5.794   5.045
 4132WAT     H212639   8.053   5.903   5.087
 4133WAT      O12640   0.656   7.923   0.710
 4133WAT     H112641   0.642   7.855   0.781
 4133WAT     H212642   0.572   7.932   0.655
 4134WAT      O12643   3.992   3.276   2.983
 4134WAT     H112644   3.924   3.340   2.947
 4134WAT     H212645   3.953   3.184   2.984
 4135WAT      O12646   4.422   6.763   1.555
 4135WAT     H112647   4.382   6.844   1.511
 4135WAT     H212648   4.437   6.692   1.486
 4136WAT      O12649   5.672   6.247   2.324
 4136WAT     H112650   5.587   6.297   2.312
 4136WAT     H212651   5.674   6.169   2.262
 4137WAT      O12652   1.799   2.192   1.783
 4137WAT     H112653   1.738   2.193   1.862
 4137WAT     H212654   1.760   2.133   1.712
 4138WAT      O12655   6.776   6.894   8.326
 4138WAT     H112656   6.755   6.981   8.281
 4138WAT     H212657   6.793   6.824   8.256
 4139WAT      O12658   0.866   6.009   1.102
 4139WAT     H112659   0.893   6.018   1.006
 4139WAT     H212660   0.926   5.942   1.147
 4140WAT      O12661   3.160   0.280   4.159
 4140WAT     H112662   3.143   0.298   4.062
 4140WAT     H212663   3.080   0.235   4.199
 4141WAT      O12664   3.234   2.982   8.437
 4141WAT     H112665   3.220   2.888   8.405
 4141WAT     H212666   3.169   3.042   8.392
 4142WAT      O12667   2.865   6.879   6.261
 4142WAT     H112668   2.857   6.933   6.345
 4142WAT     H212669   2.773   6.859   6.226
 4143WAT      O12670   9.157   0.276   7.099
 4143WAT     H112671   9.082   0.228   7.054
 4143WAT     H212672   9.182   0.226   7.182
 4144WAT      O12673   3.496   9.659   9.493
 4144WAT     H112674   3.595   9.652   9.499
 4144WAT     H212675   3.453   9.598   9.560
 4145WAT      O12676   5.394   6.657   5.177
 4145WAT     H112677   5.337   6.603   5.239
 4145WAT     H212678   5.440   6.595   5.113
 4146WAT      O12679   4.358   4.362   7.208
 4146WAT     H112680   4.278   4.306   7.227
 4146WAT     H212681   4.334   4.434   7.143
 4147WAT      O12682   0.454   2.698   8.864
 4147WAT     H112683   0.362   2.730   8.843
 4147WAT     H212684   0.449   2.625   8.933
 4148WAT      O12685   9.120   6.432   3.834
 4148WAT     H112686   9.188   6.377   3.787
 4148WAT     H212687   9.160   6.472   3.917
 4149WAT      O12688   1.544   3.976   7.663
 4149WAT     H112689   1.524   3.889   7.709
 4149WAT     H212690   1.625   4.017   7.705
 4150WAT      O12691   5.449   8.667   6.013
 4150WAT     H112692   5.442   8.655   5.914
 4150WAT     H212693   5.410   8.756   6.038
 4151WAT      O12694   2.961   9.039   3.617
 4151WAT     H112695   3.011   8.954   3.598
 4151WAT     H212696   3.001   9.084   3.697
 4152WAT      O12697   8.712   5.603   0.320
 4152WAT     H112698   8.769   5.546   0.260
 4152WAT     H212699   8.730   5.699   0.302
 4153WAT      O12700   6.925   7.231   1.325
 4153WAT     H112701   6.891   7.232   1.419
 4153WAT     H212702   6.861   7.182   1.266
 4154WAT      O12703   8.832   1.001   3.368
 4154WAT     H112704   8.904   1.067   3.389
 4154WAT     H212705   8.743   1.044   3.383
 4155WAT      O12706   6.590   1.615   7.564
 4155WAT     H112707   6.517   1.607   7.496
 4155WAT     H212708   6.663   1.550   7.541
 4156WAT      O12709   4.609   5.063   5.830
 4156WAT     H112710   4.629   5.136   5.894
 4156WAT     H212711   4.686   5.052   5.766
 4157WAT      O12712   5.580   8.967   5.954
 4157WAT     H112713   5.492   8.937   5.989
 4157WAT     H212714   5.573   9.060   5.919
 4158WAT      O12715   6.584   4.602   0.370
 4158WAT     H112716   6.582   4.512   0.414
 4158WAT     H212717   6.537   4.598   0.282
 4159WAT      O12718   6.678   4.586   0.826
 4159WAT     H112719   6.721   4.496   0.815
 4159WAT     H212720   6.745   4.651   0.861
 4160WAT      O12721   2.936   6.622   8.176
 4160WAT     H112722   3.019   6.655   8.221
 4160WAT     H212723   2.957   6.539   8.124
 4161WAT      O12724   1.964   5.200   1.872
 4161WAT     H112725   1.988   5.250   1.790
 4161WAT     H212726   1.974   5.259   1.952
 4162WAT      O12727   0.248   6.225   3.278
 4162WAT     H112728   0.316   6.266   3.217
 4162WAT     H212729   0.294   6.166   3.345
 4163WAT      O12730   1.409   8.809   4.824
 4163WAT     H112731   1.496   8.766   4.847
 4163WAT     H212732   1.369   8.761   4.745
 4164WAT      O12733   8.887   2.961   5.160
 4164WAT     H112734   8.856   2.961   5.255
 4164WAT     H212735   8.935   2.875   5.141
 4165WAT      O12736   4.913   7.256   6.685
 4165WAT     H112737   4.951   7.202   6.610
 4165WAT     H212738   4.960   7.232   6.770
 4166WAT      O12739   1.721   0.094   7.325
 4166WAT     H112740   1.696   0.173   7.381
 4166WAT     H212741   1.756   0.021   7.384
 4167WAT      O12742   8.452   3.337   3.960
 4167WAT     H112743   8.392   3.311   4.037
 4167WAT     H212744   8.544   3.355   3.994
 4168WAT      O12745   4.413   2.595   7.396
 4168WAT     H112746   4.451   2.505   7.374
 4168WAT     H212747   4.401   2.647   7.311
 4169WAT      O12748   6.309   9.217   0.578
 4169WAT     H112749   6.393   9.167   0.598
 4169WAT     H212750   6.328   9.315   0.573
 4170WAT      O12751   3.926   1.435   9.341
 4170WAT     H112752   4.024   1.413   9.339
 4170WAT     H212753   3.893   1.450   9.248
 4171WAT      O12754   0.894   8.317   9.051
 4171WAT     H112755   0.897   8.394   9.115
 4171WAT     H212756   0.985   8.302   9.012
 4172WAT      O12757   7.470   4.684   0.654
 4172WAT     H112758   7.475   4.691   0.555
 4172WAT     H212759   7.523   4.606   0.685
 4173WAT      O12760   7.225   6.668   3.387
 4173WAT     H112761   7.143   6.664   3.329
 4173WAT     H212762   7.207   6.621   3.473
 4174WAT      O12763   9.430   6.536   9.879
 4174WAT     H112764   9.345   6.584   9.855
 4174WAT     H212765   9.426   6.442   9.844
 4175WAT      O12766   4.961   1.956   1.791
 4175WAT     H112767   5.023   1.908   1.853
 4175WAT     H212768   4.974   1.922   1.698
 4176WAT      O12769   1.167   3.808   6.453
 4176WAT     H112770   1.184   3.850   6.542
 4176WAT     H212771   1.237   3.738   6.436
 4177WAT      O12772   1.148   1.025   4.220
 4177WAT     H112773   1.185   0.934   4.200
 4177WAT     H212774   1.219   1.094   4.203
 4178WAT      O12775   8.780   8.803   0.258
 4178WAT     H112776   8.732   8.888   0.279
 4178WAT     H212777   8.862   8.823   0.206
 4179WAT      O12778   3.597   1.851   9.645
 4179WAT     H112779   3.533   1.878   9.717
 4179WAT     H212780   3.691   1.862   9.678
 4180WAT      O12781   0.136   2.659   5.667
 4180WAT     H112782   0.166   2.748   5.702
 4180WAT     H212783   0.149   2.655   5.568
 4181WAT      O12784   1.074   7.733   5.891
 4181WAT     H112785   1.033   7.642   5.891
 4181WAT     H212786   1.026   7.792   5.826
 4182WAT      O12787   4.330   3.086   5.497
 4182WAT     H112788   4.382   3.152   5.550
 4182WAT     H212789   4.375   2.997   5.500
 4183WAT      O12790   0.586   0.126   6.123
 4183WAT     H112791   0.620   0.032   6.115
 4183WAT     H212792   0.519   0.130   6.197
 4184WAT      O12793   9.623   6.425   8.088
 4184WAT     H112794   9.704   6.433   8.146
 4184WAT     H212795   9.581   6.515   8.076
 4185WAT      O12796   3.829   7.162   4.156
 4185WAT     H112797   3.923   7.140   4.183
 4185WAT     H212798   3.817   7.262   4.158
 4186WAT      O12799   6.850   2.009   8.164
 4186WAT     H112800   6.875   2.036   8.071
 4186WAT     H212801   6.912   1.938   8.197
 4187WAT      O12802   0.771   9.313   9.535
 4187WAT     H112803   0.773   9.372   9.615
 4187WAT     H212804   0.677   9.282   9.518
 4188WAT      O12805   0.016   8.957   0.686
 4188WAT     H112806   0.033   9.025   0.614
 4188WAT     H212807  -0.038   8.999   0.759
 4189WAT      O12808   0.293   3.017   3.300
 4189WAT     H112809   0.243   2.943   3.254
 4189WAT     H212810   0.259   3.026   3.394
 4190WAT      O12811   3.177   2.980   1.316
 4190WAT     H112812   3.220   3.069   1.334
 4190WAT     H212813   3.131   2.948   1.399
 4191WAT      O12814   4.000   0.168   2.271
 4191WAT     H112815   4.013   0.130   2.179
 4191WAT     H212816   3.999   0.268   2.267
 4192WAT      O12817   5.913   9.005   3.780
 4192WAT     H112818   5.953   9.096   3.777
 4192WAT     H212819   5.909   8.973   3.875
 4193WAT      O12820   2.037   5.247   5.550
 4193WAT     H112821   2.009   5.227   5.643
 4193WAT     H212822   2.027   5.345   5.532
 4194WAT      O12823   7.406   8.544   1.027
 4194WAT     H112824   7.479   8.537   1.095
 4194WAT     H212825   7.323   8.502   1.064
 4195WAT      O12826   3.463   5.762   8.084
 4195WAT     H112827   3.509   5.819   8.151
 4195WAT     H212828   3.369   5.794   8.071
 4196WAT      O12829   5.814   5.990   7.729
 4196WAT     H112830   5.892   6.005   7.790
 4196WAT     H212831   5.730   5.983   7.784
 4197WAT      O12832   9.795   2.094   0.265
 4197WAT     H112833   9.706   2.053   0.282
 4197WAT     H212834   9.845   2.038   0.198
 4198WAT      O12835   6.517   4.071   2.524
 4198WAT     H112836   6.598   4.029   2.564
 4198WAT     H212837   6.544   4.144   2.461
 4199WAT      O12838   8.570   1.386   7.631
 4199WAT     H112839   8.652   1.443   7.632
 4199WAT     H212840   8.528   1.388   7.541
 4200WAT      O12841   6.364   8.572   6.841
 4200WAT     H112842   6.344   8.483   6.800
 4200WAT     H212843   6.444   8.564   6.900
 4201WAT      O12844   5.547   9.068   4.725
 4201WAT     H112845   5.640   9.050   4.755
 4201WAT     H212846   5.546   9.082   4.626
 4202WAT      O12847   5.896   7.549   8.940
 4202WAT     H112848   5.978   7.512   8.896
 4202WAT     H212849   5.917   7.575   9.034
 4203WAT      O12850   2.999   6.684   6.960
 4203WAT     H112851   3.028   6.747   6.888
 4203WAT     H212852   3.019   6.724   7.050
 4204WAT      O12853   5.949   5.121   1.182
 4204WAT     H112854   5.859   5.121   1.225
 4204WAT     H212855   5.981   5.027   1.170
 4205WAT      O12856   4.630   3.128   4.060
 4205WAT     H112857   4.532   3.145   4.055
 4205WAT     H212858   4.658   3.117   4.156
 4206WAT      O12859   8.000   6.777   4.651
 4206WAT     H112860   8.060   6.805   4.726
 4206WAT     H212861   7.977   6.680   4.661
 4207WAT      O12862   8.152   4.401   7.134
 4207WAT     H112863   8.230   4.462   7.124
 4207WAT     H212864   8.104   4.393   7.046
 4208WAT      O12865   6.547   5.212   6.896
 4208WAT     H112866   6.612   5.136   6.900
 4208WAT     H212867   6.481   5.204   6.970
 4209WAT      O12868   8.940   2.651   6.201
 4209WAT     H112869   9.021   2.698   6.166
 4209WAT     H212870   8.946   2.553   6.179
 4210WAT      O12871   6.692   3.823   6.311
 4210WAT     H112872   6.606   3.873   6.315
 4210WAT     H212873   6.720   3.799   6.404
 4211WAT      O12874   3.023   6.135   7.693
 4211WAT     H112875   3.050   6.051   7.741
 4211WAT     H212876   3.103   6.178   7.654
 4212WAT      O12877   8.833   3.644   6.297
 4212WAT     H112878   8.778   3.722   6.270
 4212WAT     H212879   8.784   3.559   6.277
 4213WAT      O12880   2.520   6.390   9.699
 4213WAT     H112881   2.516   6.439   9.787
 4213WAT     H212882   2.467   6.305   9.706
 4214WAT      O12883   4.120   2.459   5.808
 4214WAT     H112884   4.062   2.528   5.854
 4214WAT     H212885   4.216   2.478   5.829
 4215WAT      O12886   7.986   8.228   7.978
 4215WAT     H112887   7.919   8.153   7.972
 4215WAT     H212888   7.939   8.315   7.965
 4216WAT      O12889   5.404   3.029   7.563
 4216WAT     H112890   5.416   2.952   7.626
 4216WAT     H212891   5.492   3.075   7.550
 4217WAT      O12892   7.378   3.441   3.355
 4217WAT     H112893   7.311   3.379   3.314
 4217WAT     H212894   7.444   3.389   3.408
 4218WAT      O12895   8.769   0.420   2.769
 4218WAT     H112896   8.791   0.419   2.866
 4218WAT     H212897   8.698   0.488   2.751
 4219WAT      O12898   8.678   6.395   8.736
 4219WAT     H112899   8.708   6.302   8.711
 4219WAT     H212900   8.710   6.416   8.829
 4220WAT      O12901   7.342   2.290   3.025
 4220WAT     H112902   7.251   2.289   2.984
 4220WAT     H212903   7.378   2.383   3.025
 4221WAT      O12904   0.547   0.898   8.894
 4221WAT     H112905   0.623   0.925   8.954
 4221WAT     H212906   0.460   0.929   8.934
 4222WAT      O12907   9.220   1.116   3.598
 4222WAT     H112908   9.260   1.030   3.567
 4222WAT     H212909   9.223   1.120   3.698
 4223WAT      O12910   5.527   3.936   6.974
 4223WAT     H112911   5.590   3.858   6.967
 4223WAT     H212912   5.436   3.902   7.001
 4224WAT      O12913   2.036   3.630   2.867
 4224WAT     H112914   1.955   3.670   2.908
 4224WAT     H212915   2.103   3.702   2.848
 4225WAT      O12916   9.308   2.478   4.116
 4225WAT     H112917   9.227   2.431   4.080
 4225WAT     H212918   9.281   2.538   4.191
 4226WAT      O12919   9.020   4.636   7.546
 4226WAT     H112920   9.081   4.660   7.622
 4226WAT     H212921   8.975   4.549   7.566
 4227WAT      O12922   1.691   4.477   5.684
 4227WAT     H112923   1.591   4.469   5.690
 4227WAT     H212924   1.727   4.404   5.627
 4228WAT      O12925   7.947   4.806   7.179
 4228WAT     H112926   7.865   4.756   7.206
 4228WAT     H212927   8.015   4.740   7.145
 4229WAT      O12928   9.764   0.219   2.236
 4229WAT     H112929   9.693   0.206   2.305
 4229WAT     H212930   9.854   0.203   2.276
 4230WAT      O12931   5.235   2.871   3.287
 4230WAT     H112932   5.151   2.922   3.306
 4230WAT     H212933   5.225   2.820   3.202
 4231WAT      O12934   7.352   5.564   3.893
 4231WAT     H112935   7.334   5.493   3.826
 4231WAT     H212936   7.296   5.550   3.974
 4232WAT      O12937   3.060   4.260   8.572
 4232WAT     H112938   2.968   4.264   8.612
 4232WAT     H212939   3.054   4.279   8.474
 4233WAT      O12940   2.144   8.200   1.604
 4233WAT     H112941   2.172   8.124   1.663
 4233WAT     H212942   2.181   8.187   1.512
 4234WAT      O12943   9.341   1.532   2.105
 4234WAT     H112944   9.382   1.521   2.195
 4234WAT     H212945   9.399   1.488   2.036
 4235WAT      O12946   9.025   9.511   3.447
 4235WAT     H112947   8.976   9.589   3.408
 4235WAT     H212948   8.966   9.431   3.446
 4236WAT      O12949   1.319   2.532   3.680
 4236WAT     H112950   1.343   2.619   3.636
 4236WAT     H212951   1.349   2.533   3.775
 4237WAT      O12952   1.349   8.015   5.017
 4237WAT     H112953   1.280   7.996   4.948
 4237WAT     H212954   1.328   8.101   5.064
 4238WAT      O12955   0.643   4.823   2.620
 4238WAT     H112956   0.719   4.829   2.556
 4238WAT     H212957   0.663   4.754   2.689
 4239WAT      O12958   7.891   7.873   2.560
 4239WAT     H112959   7.826   7.931   2.511
 4239WAT     H212960   7.983   7.909   2.548
 4240WAT      O12961   0.927   2.144   5.846
 4240WAT     H112962   0.955   2.227   5.797
 4240WAT     H212963   1.007   2.102   5.889
 4241WAT      O12964   5.549   1.817   6.967
 4241WAT     H112965   5.454   1.809   6.937
 4241WAT     H212966   5.609   1.830   6.888
 4242WAT      O12967   6.610   4.957   2.555
 4242WAT     H112968   6.558   4.883   2.510
 4242WAT     H212969   6.682   4.917   2.612
 4243WAT      O12970   8.124   0.396   0.542
 4243WAT     H112971   8.222   0.416   0.539
 4243WAT     H212972   8.107   0.305   0.504
 4244WAT      O12973   0.714   6.530   6.720
 4244WAT     H112974   0.801   6.535   6.770
 4244WAT     H212975   0.660   6.612   6.738
 4245WAT      O12976   7.596   1.836   6.560
 4245WAT     H112977   7.563   1.916   6.609
 4245WAT     H212978   7.695   1.841   6.550
 4246WAT      O12979   8.096   6.225   8.148
 4246WAT     H112980   8.083   6.237   8.247
 4246WAT     H212981   8.061   6.136   8.121
 4247WAT      O12982   0.203   4.156   7.836
 4247WAT     H112983   0.283   4.149   7.897
 4247WAT     H212984   0.135   4.089   7.863
 4248WAT      O12985   4.315   5.681   4.197
 4248WAT     H112986   4.277   5.690   4.289
 4248WAT     H212987   4.302   5.767   4.147
 4249WAT      O12988   8.321   2.182   5.128
 4249WAT     H112989   8.320   2.197   5.227
 4249WAT     H212990   8.351   2.265   5.082
 4250WAT      O12991   7.073   6.346   2.436
 4250WAT     H112992   7.123   6.399   2.368
 4250WAT     H212993   6.984   6.389   2.452
 4251WAT      O12994   2.478   4.215   9.169
 4251WAT     H112995   2.516   4.307   9.181
 4251WAT     H212996   2.391   4.208   9.217
 4252WAT      O12997   4.086   0.503   4.008
 4252WAT     H112998   4.000   0.511   3.957
 4252WAT     H212999   4.072   0.445   4.088
 4253WAT      O13000   7.420   5.178   6.137
 4253WAT     H113001   7.461   5.262   6.101
 4253WAT     H213002   7.394   5.118   6.061
 4254WAT      O13003   3.234   6.621   2.242
 4254WAT     H113004   3.207   6.703   2.193
 4254WAT     H213005   3.160   6.554   2.239
 4255WAT      O13006   1.732   7.265   9.593
 4255WAT     H113007   1.785   7.182   9.578
 4255WAT     H213008   1.635   7.242   9.599
 4256WAT      O13009   2.825   6.105   2.776
 4256WAT     H113010   2.795   6.143   2.689
 4256WAT     H213011   2.925   6.103   2.778
 4257WAT      O13012   8.068   3.021   3.666
 4257WAT     H113013   8.161   2.985   3.669
 4257WAT     H213014   8.050   3.075   3.748
 4258WAT      O13015   0.670   0.925   8.213
 4258WAT     H113016   0.720   1.005   8.247
 4258WAT     H213017   0.572   0.944   8.212
 4259WAT      O13018   0.901   6.532   2.187
 4259WAT     H113019   0.851   6.600   2.133
 4259WAT     H213020   0.979   6.498   2.134
 4260WAT      O13021   5.051   8.444   6.733
 4260WAT     H113022   4.980   8.434   6.803
 4260WAT     H213023   5.031   8.525   6.677
 4261WAT      O13024   8.804   7.693   5.870
 4261WAT     H113025   8.710   7.659   5.870
 4261WAT     H213026   8.851   7.662   5.952
 4262WAT      O13027   5.140   5.173   0.804
 4262WAT     H113028   5.068   5.205   0.865
 4262WAT     H213029   5.107   5.095   0.751
 4263WAT      O13030   7.795   3.039   1.284
 4263WAT     H113031   7.894   3.048   1.273
 4263WAT     H213032   7.776   2.985   1.366
 4264WAT      O13033   8.013   7.107   4.741
 4264WAT     H113034   8.082   7.107   4.813
 4264WAT     H213035   7.961   7.193   4.744
 4265WAT      O13036   5.532   2.335   6.991
 4265WAT     H113037   5.449   2.305   7.039
 4265WAT     H213038   5.538   2.435   6.994
 4266WAT      O13039   0.433   7.813   6.133
 4266WAT     H113040   0.456   7.740   6.069
 4266WAT     H213041   0.347   7.856   6.104
 4267WAT      O13042   5.074   4.418   6.029
 4267WAT     H113043   5.044   4.502   5.983
 4267WAT     H213044   5.129   4.442   6.109
 4268WAT      O13045   0.287   9.413   2.913
 4268WAT     H113046   0.194   9.406   2.949
 4268WAT     H213047   0.283   9.410   2.813
 4269WAT      O13048   1.549   7.443   2.264
 4269WAT     H113049   1.623   7.413   2.203
 4269WAT     H213050   1.518   7.365   2.319
 4270WAT      O13051   2.304   7.214   1.010
 4270WAT     H113052   2.325   7.304   1.046
 4270WAT     H213053   2.230   7.173   1.063
 4271WAT      O13054   0.215   0.905   9.464
 4271WAT     H113055   0.243   1.000   9.471
 4271WAT     H213056   0.291   0.850   9.430
 4272WAT      O13057   2.704   3.309   8.787
 4272WAT     H113058   2.745   3.321   8.878
 4272WAT     H213059   2.627   3.373   8.777
 4273WAT      O13060   5.313   6.100   2.113
 4273WAT     H113061   5.308   6.131   2.208
 4273WAT     H213062   5.259   6.016   2.102
 4274WAT      O13063   8.492   1.764   5.783
 4274WAT     H113064   8.569   1.717   5.827
 4274WAT     H213065   8.479   1.728   5.691
 4275WAT      O13066   6.477   0.974   5.284
 4275WAT     H113067   6.517   0.885   5.264
 4275WAT     H213068   6.550   1.042   5.291
 4276WAT      O13069   9.830   3.186   7.904
 4276WAT     H113070   9.838   3.114   7.835
 4276WAT     H213071   9.919   3.201   7.947
 4277WAT      O13072   4.091   5.540   7.028
 4277WAT     H113073   4.163   5.494   7.080
 4277WAT     H213074   4.068   5.484   6.948
 4278WAT      O13075   0.835   7.523   5.183
 4278WAT     H113076   0.913   7.474   5.223
 4278WAT     H213077   0.866   7.574   5.103
 4279WAT      O13078   1.451   7.512   7.497
 4279WAT     H113079   1.425   7.607   7.519
 4279WAT     H213080   1.549   7.509   7.477
 4280WAT      O13081   1.932   4.838   3.870
 4280WAT     H113082   1.969   4.748   3.891
 4280WAT     H213083   1.835   4.841   3.891
 4281WAT      O13084   1.619   5.087   1.774
 4281WAT     H113085   1.588   5.182   1.770
 4281WAT     H213086   1.672   5.066   1.691
 4282WAT      O13087   2.305   3.370   8.495
 4282WAT     H113088   2.357   3.285   8.486
 4282WAT     H213089   2.208   3.352   8.480
 4283WAT      O13090   8.031   0.015   3.127
 4283WAT     H113091   8.111   0.054   3.171
 4283WAT     H213092   8.017  -0.079   3.160
 4284WAT      O13093   0.491   0.059   1.414
 4284WAT     H113094   0.546   0.067   1.330
 4284WAT     H213095   0.537   0.107   1.489
 4285WAT      O13096   6.699   6.353   4.892
 4285WAT     H113097   6.641   6.431   4.913
 4285WAT     H213098   6.791   6.369   4.928
 4286WAT      O13099   6.014   4.390   7.493
 4286WAT     H113100   5.991   4.370   7.588
 4286WAT     H213101   5.940   4.442   7.450
 4287WAT      O13102   2.775   8.159   1.434
 4287WAT     H113103   2.745   8.065   1.450
 4287WAT     H213104   2.835   8.188   1.509
 4288WAT      O13105   9.137   4.080   9.638
 4288WAT     H113106   9.153   3.989   9.676
 4288WAT     H213107   9.203   4.144   9.678
 4289WAT      O13108   5.801   5.850   2.788
 4289WAT     H113109   5.798   5.796   2.704
 4289WAT     H213110   5.896   5.866   2.814
 4290WAT      O13111   4.462   5.754   2.374
 4290WAT     H113112   4.475   5.670   2.320
 4290WAT     H213113   4.432   5.730   2.466
 4291WAT      O13114   4.162   5.679   8.131
 4291WAT     H113115   4.123   5.759   8.086
 4291WAT     H213116   4.223   5.708   8.205
 4292WAT      O13117   7.480   0.918   7.076
 4292WAT     H113118   7.553   0.968   7.029
 4292WAT     H213119   7.392   0.939   7.033
 4293WAT      O13120   3.397   9.503   2.246
 4293WAT     H113121   3.438   9.530   2.333
 4293WAT     H213122   3.381   9.584   2.190
 4294WAT      O13123   7.196   9.229   2.349
 4294WAT     H113124   7.235   9.276   2.428
 4294WAT     H213125   7.103   9.263   2.332
 4295WAT      O13126   4.888   9.567   3.322
 4295WAT     H113127   4.886   9.468   3.315
 4295WAT     H213128   4.810   9.606   3.274
 4296WAT      O13129   1.071   6.736   5.075
 4296WAT     H113130   0.997   6.669   5.084
 4296WAT     H213131   1.079   6.764   4.980
 4297WAT      O13132   7.727   6.386   1.496
 4297WAT     H113133   7.743   6.380   1.595
 4297WAT     H213134   7.642   6.340   1.473
 4298WAT      O13135   6.807   5.790   3.326
 4298WAT     H113136   6.776   5.697   3.308
 4298WAT     H213137   6.821   5.838   3.239
 4299WAT      O13138   5.880   7.783   2.068
 4299WAT     H113139   5.809   7.853   2.065
 4299WAT     H213140   5.896   7.754   2.162
 4300WAT      O13141   8.778   2.633   7.504
 4300WAT     H113142   8.772   2.627   7.404
 4300WAT     H213143   8.864   2.592   7.534
 4301WAT      O13144   7.413   8.154   8.931
 4301WAT     H113145   7.405   8.200   8.843
 4301WAT     H213146   7.492   8.092   8.930
 4302WAT      O13147   8.302   5.402   8.477
 4302WAT     H113148   8.280   5.378   8.572
 4302WAT     H213149   8.334   5.320   8.429
 4303WAT      O13150   9.510   5.027   4.303
 4303WAT     H113151   9.510   5.047   4.205
 4303WAT     H213152   9.587   5.072   4.346
 4304WAT      O13153   9.347   3.141   0.684
 4304WAT     H113154   9.271   3.206   0.688
 4304WAT     H213155   9.333   3.070   0.753
 4305WAT      O13156   0.779   0.849   3.847
 4305WAT     H113157   0.682   0.824   3.838
 4305WAT     H213158   0.831   0.808   3.772
 4306WAT      O13159   7.732   9.179   6.675
 4306WAT     H113160   7.732   9.084   6.709
 4306WAT     H213161   7.763   9.240   6.748
 4307WAT      O13162   8.211   0.158   4.017
 4307WAT     H113163   8.256   0.156   3.928
 4307WAT     H213164   8.274   0.126   4.088
 4308WAT      O13165   6.141   0.687   7.049
 4308WAT     H113166   6.225   0.736   7.027
 4308WAT     H213167   6.064   0.750   7.049
 4309WAT      O13168   5.158   7.441   7.885
 4309WAT     H113169   5.240   7.498   7.883
 4309WAT     H213170   5.181   7.348   7.859
 4310WAT      O13171   4.392   8.966   7.055
 4310WAT     H113172   4.431   8.892   7.000
 4310WAT     H213173   4.465   9.022   7.092
 4311WAT      O13174   8.118   6.160   6.454
 4311WAT     H113175   8.154   6.251   6.476
 4311WAT     H213176   8.109   6.107   6.538
 4312WAT      O13177   9.030   1.208   6.867
 4312WAT     H113178   9.109   1.162   6.907
 4312WAT     H213179   8.959   1.141   6.845
 4313WAT      O13180   1.580   0.897   8.710
 4313WAT     H113181   1.483   0.910   8.732
 4313WAT     H213182   1.634   0.967   8.757
 4314WAT      O13183   2.273   3.829   5.255
 4314WAT     H113184   2.192   3.805   5.309
 4314WAT     H213185   2.315   3.910   5.294
 4315WAT      O13186   0.475   0.751   2.951
 4315WAT     H113187   0.521   0.820   3.007
 4315WAT     H213188   0.529   0.733   2.869
 4316WAT      O13189   3.948   1.548   2.747
 4316WAT     H113190   3.992   1.529   2.659
 4316WAT     H213191   3.886   1.625   2.736
 4317WAT      O13192   6.030   8.189   4.338
 4317WAT     H113193   5.979   8.178   4.423
 4317WAT     H213194   5.972   8.235   4.270
 4318WAT      O13195   0.995   5.433   0.175
 4318WAT     H113196   0.989   5.409   0.078
 4318WAT     H213197   1.077   5.488   0.191
 4319WAT      O13198   9.479   7.218   9.205
 4319WAT     H113199   9.440   7.162   9.278
 4319WAT     H213200   9.578   7.204   9.202
 4320WAT      O13201   5.914   4.426   8.891
 4320WAT     H113202   5.863   4.457   8.811
 4320WAT     H213203   5.981   4.495   8.916
 4321WAT      O13204   6.494   7.831   1.532
 4321WAT     H113205   6.436   7.913   1.537
 4321WAT     H213206   6.471   7.779   1.451
 4322WAT      O13207   3.538   3.036   8.714
 4322WAT     H113208   3.557   3.103   8.786
 4322WAT     H213209   3.443   3.006   8.722
 4323WAT      O13210   9.587   9.419   8.257
 4323WAT     H113211   9.549   9.352   8.192
 4323WAT     H213212   9.684   9.432   8.238
 4324WAT      O13213   5.287   9.214   3.346
 4324WAT     H113214   5.375   9.259   3.332
 4324WAT     H213215   5.252   9.236   3.438
 4325WAT      O13216   6.163   5.632   2.750
 4325WAT     H113217   6.115   5.546   2.734
 4325WAT     H213218   6.179   5.678   2.663
 4326WAT      O13219   5.254   8.040   7.392
 4326WAT     H113220   5.202   8.001   7.315
 4326WAT     H213221   5.335   8.087   7.356
 4327WAT      O13222   5.895   1.070   2.114
 4327WAT     H113223   5.851   1.151   2.074
 4327WAT     H213224   5.989   1.063   2.079
 4328WAT      O13225   9.019   5.130   6.382
 4328WAT     H113226   9.095   5.165   6.326
 4328WAT     H213227   8.951   5.202   6.393
 4329WAT      O13228   9.527   0.796   6.615
 4329WAT     H113229   9.448   0.746   6.580
 4329WAT     H213230   9.586   0.823   6.539
 4330WAT      O13231   2.777   3.395   0.277
 4330WAT     H113232   2.847   3.440   0.220
 4330WAT     H213233   2.775   3.298   0.256
 4331WAT      O13234   2.579   3.479   9.171
 4331WAT     H113235   2.530   3.478   9.258
 4331WAT     H213236   2.675   3.503   9.187
 4332WAT      O13237   4.159   3.860   9.861
 4332WAT     H113238   4.096   3.846   9.785
 4332WAT     H213239   4.218   3.780   9.871
 4333WAT      O13240   0.409   1.310   8.896
 4333WAT     H113241   0.345   1.355   8.834
 4333WAT     H213242   0.358   1.257   8.964
 4334WAT      O13243   0.679   8.233   2.648
 4334WAT     H113244   0.590   8.246   2.604
 4334WAT     H213245   0.751   8.237   2.579
 4335WAT      O13246   9.257   6.721   3.412
 4335WAT     H113247   9.309   6.654   3.465
 4335WAT     H213248   9.175   6.678   3.375
 4336WAT      O13249   5.337   6.366   9.179
 4336WAT     H113250   5.310   6.283   9.227
 4336WAT     H213251   5.409   6.413   9.231
 4337WAT      O13252   2.660   2.057   0.538
 4337WAT     H113253   2.718   2.106   0.473
 4337WAT     H213254   2.684   1.960   0.538
 4338WAT      O13255   8.224   9.453   0.937
 4338WAT     H113256   8.318   9.420   0.933
 4338WAT     H213257   8.224   9.550   0.962
 4339WAT      O13258   2.230   1.747   5.476
 4339WAT     H113259   2.289   1.806   5.531
 4339WAT     H213260   2.136   1.754   5.509
 4340WAT      O13261   2.551   1.310   1.371
 4340WAT     H113262   2.524   1.243   1.441
 4340WAT     H213263   2.639   1.284   1.331
 4341WAT      O13264   9.403   6.785   7.756
 4341WAT     H113265   9.362   6.744   7.675
 4341WAT     H213266   9.335   6.786   7.830
 4342WAT      O13267   5.095   3.191   0.339
 4342WAT     H113268   5.096   3.277   0.391
 4342WAT     H213269   5.050   3.207   0.251
 4343WAT      O13270   2.106   7.874   3.179
 4343WAT     H113271   2.091   7.831   3.090
 4343WAT     H213272   2.019   7.889   3.224
 4344WAT      O13273   8.664   5.054   0.943
 4344WAT     H113274   8.690   5.064   0.847
 4344WAT     H213275   8.615   4.968   0.956
 4345WAT      O13276   2.064   8.817   8.943
 4345WAT     H113277   2.042   8.749   9.013
 4345WAT     H213278   1.988   8.882   8.935
 4346WAT      O13279   0.226   3.524   3.960
 4346WAT     H113280   0.230   3.430   3.994
 4346WAT     H213281   0.198   3.585   4.034
 4347WAT      O13282   7.284   5.535   0.509
 4347WAT     H113283   7.199   5.553   0.459
 4347WAT     H213284   7.323   5.622   0.540
 4348WAT      O13285   9.362   4.843   3.279
 4348WAT     H113286   9.350   4.873   3.373
 4348WAT     H213287   9.296   4.771   3.258
 4349WAT      O13288   4.691   5.798   7.868
 4349WAT     H113289   4.683   5.707   7.909
 4349WAT     H213290   4.786   5.815   7.843
 4350WAT      O13291   7.959   2.392   0.045
 4350WAT     H113292   7.982   2.375  -0.051
 4350WAT     H213293   7.900   2.472   0.052
 4351WAT      O13294   4.393   5.765   6.801
 4351WAT     H113295   4.303   5.807   6.788
 4351WAT     H213296   4.454   5.831   6.844
 4352WAT      O13297   8.461   3.077   7.003
 4352WAT     H113298   8.450   3.112   6.910
 4352WAT     H213299   8.530   3.005   7.003
 4353WAT      O13300   3.615   8.959   2.823
 4353WAT     H113301   3.527   9.005   2.820
 4353WAT     H213302   3.676   8.999   2.755
 4354WAT      O13303   9.265   6.226   7.358
 4354WAT     H113304   9.203   6.296   7.321
 4354WAT     H213305   9.329   6.268   7.422
 4355WAT      O13306   1.536   7.033   3.777
 4355WAT     H113307   1.447   7.077   3.769
 4355WAT     H213308   1.530   6.939   3.745
 4356WAT      O13309   4.467   4.114   7.173
 4356WAT     H113310   4.434   4.206   7.192
 4356WAT     H213311   4.453   4.056   7.254
 4357WAT      O13312   7.985   1.988   7.145
 4357WAT     H113313   7.944   2.050   7.212
 4357WAT     H213314   7.948   1.896   7.158
 4358WAT      O13315   7.211   3.643   3.233
 4358WAT     H113316   7.289   3.592   3.270
 4358WAT     H213317   7.234   3.740   3.226
 4359WAT      O13318   7.737   9.428   1.070
 4359WAT     H113319   7.795   9.494   1.119
 4359WAT     H213320   7.675   9.478   1.009
 4360WAT      O13321   3.499   4.268   6.452
 4360WAT     H113322   3.531   4.222   6.535
 4360WAT     H213323   3.496   4.366   6.467
 4361WAT      O13324   1.958   7.502   5.798
 4361WAT     H113325   1.870   7.495   5.751
 4361WAT     H213326   2.019   7.563   5.748
 4362WAT      O13327   1.128   9.221   2.653
 4362WAT     H113328   1.184   9.295   2.617
 4362WAT     H213329   1.148   9.137   2.604
 4363WAT      O13330   4.071   3.521   9.743
 4363WAT     H113331   4.011   3.552   9.816
 4363WAT     H213332   4.163   3.505   9.779
 4364WAT      O13333   1.036   3.385   9.878
 4364WAT     H113334   1.018   3.408   9.974
 4364WAT     H213335   1.115   3.325   9.872
 4365WAT      O13336   9.683   5.306   4.955
 4365WAT     H113337   9.664   5.310   4.857
 4365WAT     H213338   9.680   5.210   4.985
 4366WAT      O13339   9.709   6.485   4.099
 4366WAT     H113340   9.724   6.488   4.000
 4366WAT     H213341   9.769   6.416   4.140
 4367WAT      O13342   1.555   1.658   5.645
 4367WAT     H113343   1.460   1.652   5.617
 4367WAT     H213344   1.561   1.704   5.734
 4368WAT      O13345   7.635   5.149   7.026
 4368WAT     H113346   7.543   5.111   7.032
 4368WAT     H213347   7.655   5.204   7.108
 4369WAT      O13348   4.511   8.285   7.158
 4369WAT     H113349   4.411   8.278   7.161
 4369WAT     H213350   4.548   8.217   7.095
 4370WAT      O13351   7.974   6.751   2.676
 4370WAT     H113352   7.885   6.795   2.662
 4370WAT     H213353   8.044   6.801   2.625
 4371WAT      O13354   9.520   6.812   1.552
 4371WAT     H113355   9.541   6.900   1.511
 4371WAT     H213356   9.588   6.790   1.621
 4372WAT      O13357   1.343   9.032   8.325
 4372WAT     H113358   1.257   9.077   8.349
 4372WAT     H213359   1.416   9.064   8.386
 4373WAT      O13360   6.265   6.730   8.144
 4373WAT     H113361   6.309   6.689   8.064
 4373WAT     H213362   6.284   6.829   8.146
 4374WAT      O13363   0.807   1.956   1.983
 4374WAT     H113364   0.733   1.903   1.942
 4374WAT     H213365   0.873   1.894   2.026
 4375WAT      O13366   4.360   6.937   5.159
 4375WAT     H113367   4.289   6.928   5.229
 4375WAT     H213368   4.423   7.010   5.184
 4376WAT      O13369   5.052   0.645   7.760
 4376WAT     H113370   5.066   0.653   7.859
 4376WAT     H213371   5.134   0.606   7.718
 4377WAT      O13372   0.053   6.684   6.080
 4377WAT     H113373   0.109   6.605   6.106
 4377WAT     H213374   0.098   6.735   6.007
 4378WAT      O13375   5.696   2.786   1.167
 4378WAT     H113376   5.686   2.877   1.207
 4378WAT     H213377   5.606   2.748   1.147
 4379WAT      O13378   5.371   0.225   8.096
 4379WAT     H113379   5.353   0.156   8.026
 4379WAT     H213380   5.397   0.311   8.052
 4380WAT      O13381   6.259   4.394   4.809
 4380WAT     H113382   6.316   4.427   4.885
 4380WAT     H213383   6.200   4.320   4.841
 4381WAT      O13384   4.525   4.860   2.486
 4381WAT     H113385   4.430   4.880   2.463
 4381WAT     H213386   4.578   4.850   2.402
 4382WAT      O13387   8.027   8.063   4.616
 4382WAT     H113388   8.111   8.054   4.563
 4382WAT     H213389   8.047   8.110   4.702
 4383WAT      O13390   3.071   4.311   8.041
 4383WAT     H113391   3.118   4.226   8.017
 4383WAT     H213392   3.101   4.384   7.979
 4384WAT      O13393   4.315   0.394   8.160
 4384WAT     H113394   4.223   0.421   8.133
 4384WAT     H213395   4.358   0.469   8.211
 4385WAT      O13396   0.363   7.594   0.687
 4385WAT     H113397   0.451   7.604   0.642
 4385WAT     H213398   0.295   7.562   0.621
 4386WAT      O13399   5.984   3.392   4.290
 4386WAT     H113400   5.891   3.409   4.323
 4386WAT     H213401   5.999   3.293   4.282
 4387WAT      O13402   3.611   9.310   8.071
 4387WAT     H113403   3.653   9.370   8.004
 4387WAT     H213404   3.602   9.357   8.159
 4388WAT      O13405   8.045   9.395   6.991
 4388WAT     H113406   8.064   9.300   7.015
 4388WAT     H213407   8.127   9.435   6.950
 4389WAT      O13408   3.980   2.301   0.613
 4389WAT     H113409   3.951   2.265   0.524
 4389WAT     H213410   4.076   2.277   0.628
 4390WAT      O13411   4.923   3.718   3.341
 4390WAT     H113412   4.982   3.644   3.309
 4390WAT     H213413   4.862   3.746   3.267
 4391WAT      O13414   8.398   9.696   4.208
 4391WAT     H113415   8.423   9.677   4.303
 4391WAT     H213416   8.475   9.741   4.162
 4392WAT      O13417   2.910   5.189   3.986
 4392WAT     H113418   2.999   5.173   3.943
 4392WAT     H213419   2.896   5.122   4.058
 4393WAT      O13420   1.535   0.062   1.058
 4393WAT     H113421   1.569   0.021   1.143
 4393WAT     H213422   1.559   0.158   1.055
 4394WAT      O13423   2.365   9.272   1.525
 4394WAT     H113424   2.367   9.269   1.425
 4394WAT     H213425   2.275   9.245   1.557
 4395WAT      O13426   5.491   1.586   4.120
 4395WAT     H113427   5.567   1.651   4.130
 4395WAT     H213428   5.430   1.594   4.198
 4396WAT      O13429   5.305   6.996   7.674
 4396WAT     H113430   5.390   7.009   7.623
 4396WAT     H213431   5.307   6.907   7.719
 4397WAT      O13432   0.926   4.924   9.128
 4397WAT     H113433   1.001   4.859   9.139
 4397WAT     H213434   0.964   5.015   9.108
 4398WAT      O13435   5.709   7.628   5.653
 4398WAT     H113436   5.636   7.563   5.633
 4398WAT     H213437   5.789   7.607   5.597
 4399WAT      O13438   5.992   2.730   3.377
 4399WAT     H113439   5.995   2.788   3.296
 4399WAT     H213440   5.913   2.756   3.433
 4400WAT      O13441   0.187   0.690   5.504
 4400WAT     H113442   0.196   0.771   5.562
 4400WAT     H213443   0.120   0.628   5.544
 4401WAT      O13444   4.528   7.239   8.776
 4401WAT     H113445   4.559   7.183   8.853
 4401WAT     H213446   4.584   7.220   8.696
 4402WAT      O13447   1.939   5.661   3.926
 4402WAT     H113448   1.881   5.584   3.899
 4402WAT     H213449   2.030   5.628   3.947
 4403WAT      O13450   6.055   9.718   1.753
 4403WAT     H113451   6.125   9.703   1.822
 4403WAT     H213452   6.082   9.672   1.668
 4404WAT      O13453   8.569   6.046   0.414
 4404WAT     H113454   8.589   5.986   0.491
 4404WAT     H213455   8.653   6.088   0.381
 4405WAT      O13456   7.456   6.160   6.228
 4405WAT     H113457   7.380   6.205   6.182
 4405WAT     H213458   7.524   6.229   6.255
 4406WAT      O13459   3.878   3.988   2.925
 4406WAT     H113460   3.961   3.965   2.874
 4406WAT     H213461   3.902   4.046   3.003
 4407WAT      O13462   1.565   0.736   0.647
 4407WAT     H113463   1.664   0.751   0.652
 4407WAT     H213464   1.544   0.641   0.667
 4408WAT      O13465   4.165   0.059   5.022
 4408WAT     H113466   4.144   0.039   4.927
 4408WAT     H213467   4.262   0.083   5.030
 4409WAT      O13468   8.857   2.522   0.589
 4409WAT     H113469   8.776   2.464   0.581
 4409WAT     H213470   8.897   2.536   0.498
 4410WAT      O13471   7.040   8.542   5.987
 4410WAT     H113472   6.994   8.455   6.002
 4410WAT     H213473   7.126   8.544   6.037
 4411WAT      O13474   0.584   8.797   6.826
 4411WAT     H113475   0.667   8.755   6.791
 4411WAT     H213476   0.593   8.814   6.924
 4412WAT      O13477   1.529   9.795   2.236
 4412WAT     H113478   1.454   9.752   2.186
 4412WAT     H213479   1.493   9.861   2.301
 4413WAT      O13480   7.360   8.421   8.761
 4413WAT     H113481   7.441   8.478   8.777
 4413WAT     H213482   7.385   8.345   8.701
 4414WAT      O13483   4.673   3.211   5.215
 4414WAT     H113484   4.708   3.212   5.121
 4414WAT     H213485   4.601   3.280   5.224
 4415WAT      O13486   2.594   3.466   3.416
 4415WAT     H113487   2.572   3.471   3.514
 4415WAT     H213488   2.545   3.539   3.367
 4416WAT      O13489   3.661   3.224   7.809
 4416WAT     H113490   3.580   3.193   7.758
 4416WAT     H213491   3.712   3.289   7.752
 4417WAT      O13492   2.024   7.347   4.343
 4417WAT     H113493   2.050   7.443   4.356
 4417WAT     H213494   1.988   7.335   4.250
 4418WAT      O13495   5.870   0.354   4.707
 4418WAT     H113496   5.828   0.441   4.681
 4418WAT     H213497   5.888   0.354   4.805
 4419WAT      O13498   3.384   4.236   5.135
 4419WAT     H113499   3.373   4.299   5.058
 4419WAT     H213500   3.310   4.170   5.136
 4420WAT      O13501   7.439   8.523   7.426
 4420WAT     H113502   7.511   8.571   7.475
 4420WAT     H213503   7.480   8.459   7.360
 4421WAT      O13504   9.135   5.162   9.570
 4421WAT     H113505   9.196   5.235   9.602
 4421WAT     H213506   9.040   5.192   9.579
 4422WAT      O13507   1.629   1.424   6.651
 4422WAT     H113508   1.549   1.371   6.620
 4422WAT     H213509   1.712   1.374   6.628
 4423WAT      O13510   4.750   9.802   1.661
 4423WAT     H113511   4.767   9.894   1.695
 4423WAT     H213512   4.825   9.773   1.601
 4424WAT      O13513   6.315   4.926   8.240
 4424WAT     H113514   6.349   4.834   8.218
 4424WAT     H213515   6.315   4.982   8.157
 4425WAT      O13516   3.014   3.064   3.055
 4425WAT     H113517   2.922   3.034   3.030
 4425WAT     H213518   3.081   3.001   3.018
 4426WAT      O13519   6.485   7.495   9.840
 4426WAT     H113520   6.430   7.434   9.898
 4426WAT     H213521   6.495   7.583   9.885
 4427WAT      O13522   3.034   9.529   4.316
 4427WAT     H113523   3.008   9.498   4.408
 4427WAT     H213524   3.071   9.452   4.265
 4428WAT      O13525   3.862   3.345   1.863
 4428WAT     H113526   3.896   3.274   1.802
 4428WAT     H213527   3.928   3.361   1.936
 4429WAT      O13528   7.655   7.304   9.622
 4429WAT     H113529   7.648   7.242   9.544
 4429WAT     H213530   7.567   7.310   9.669
 4430WAT      O13531   5.334   0.037   7.889
 4430WAT     H113532   5.386  -0.039   7.929
 4430WAT     H213533   5.237   0.014   7.890
 4431WAT      O13534   5.409   6.306   5.543
 4431WAT     H113535   5.388   6.392   5.592
 4431WAT     H213536   5.508   6.298   5.532
 4432WAT      O13537   9.525   7.503   2.831
 4432WAT     H113538   9.603   7.440   2.828
 4432WAT     H213539   9.440   7.451   2.834
 4433WAT      O13540   5.424   1.451   3.477
 4433WAT     H113541   5.366   1.509   3.534
 4433WAT     H213542   5.382   1.438   3.388
 4434WAT      O13543   6.788   6.809   1.347
 4434WAT     H113544   6.881   6.846   1.348
 4434WAT     H213545   6.748   6.822   1.256
 4435WAT      O13546   2.792   8.601   3.017
 4435WAT     H113547   2.797   8.512   3.062
 4435WAT     H213548   2.880   8.648   3.028
 4436WAT      O13549   5.566   7.757   7.769
 4436WAT     H113550   5.511   7.679   7.796
 4436WAT     H213551   5.598   7.745   7.675
 4437WAT      O13552   0.874   2.330   9.444
 4437WAT     H113553   0.795   2.332   9.505
 4437WAT     H213554   0.919   2.419   9.445
 4438WAT      O13555   0.795   3.458   3.958
 4438WAT     H113556   0.789   3.558   3.965
 4438WAT     H213557   0.869   3.425   4.016
 4439WAT      O13558   0.141   4.532   3.627
 4439WAT     H113559   0.170   4.549   3.533
 4439WAT     H213560   0.049   4.569   3.640
 4440WAT      O13561   2.100   7.617   2.216
 4440WAT     H113562   2.121   7.706   2.257
 4440WAT     H213563   2.182   7.581   2.172
 4441WAT      O13564   3.618   0.067   8.380
 4441WAT     H113565   3.688   0.023   8.323
 4441WAT     H213566   3.569   0.135   8.325
 4442WAT      O13567   5.451   3.174   5.073
 4442WAT     H113568   5.432   3.120   5.155
 4442WAT     H213569   5.395   3.257   5.073
 4443WAT      O13570   9.190   1.715   5.986
 4443WAT     H113571   9.167   1.808   5.956
 4443WAT     H213572   9.289   1.708   5.999
 4444WAT      O13573   9.832   3.685   6.242
 4444WAT     H113574   9.751   3.732   6.207
 4444WAT     H213575   9.804   3.600   6.287
 4445WAT      O13576   5.956   9.145   0.111
 4445WAT     H113577   5.933   9.104   0.022
 4445WAT     H213578   5.933   9.080   0.184
 4446WAT      O13579   8.234   0.085   1.260
 4446WAT     H113580   8.235  -0.008   1.296
 4446WAT     H213581   8.148   0.101   1.211
 4447WAT      O13582   1.312   8.276   2.401
 4447WAT     H113583   1.384   8.284   2.470
 4447WAT     H213584   1.226   8.252   2.445
 4448WAT      O13585   3.067   0.435   1.770
 4448WAT     H113586   3.116   0.388   1.697
 4448WAT     H213587   3.120   0.513   1.803
 4449WAT      O13588   5.897   8.851   8.095
 4449WAT     H113589   5.964   8.899   8.152
 4449WAT     H213590   5.926   8.856   7.999
 4450WAT      O13591   6.811   4.103   5.986
 4450WAT     H113592   6.752   4.141   5.915
 4450WAT     H213593   6.790   4.146   6.074
 4451WAT      O13594   5.540   7.148   7.272
 4451WAT     H113595   5.594   7.184   7.196
 4451WAT     H213596   5.520   7.051   7.255
 4452WAT      O13597   5.352   3.049   8.110
 4452WAT     H113598   5.411   3.037   8.031
 4452WAT     H213599   5.262   3.082   8.080
 4453WAT      O13600   6.352   7.915   5.892
 4453WAT     H113601   6.330   8.012   5.880
 4453WAT     H213602   6.381   7.899   5.986
 4454WAT      O13603   6.620   8.409   8.052
 4454WAT     H113604   6.685   8.339   8.024
 4454WAT     H213605   6.587   8.459   7.971
 4455WAT      O13606   1.337   9.475   5.706
 4455WAT     H113607   1.302   9.552   5.653
 4455WAT     H213608   1.273   9.399   5.700
 4456WAT      O13609   4.053   1.430   4.781
 4456WAT     H113610   4.080   1.499   4.714
 4456WAT     H213611   3.965   1.454   4.821
 4457WAT      O13612   2.739   8.639   3.388
 4457WAT     H113613   2.801   8.668   3.314
 4457WAT     H213614   2.702   8.548   3.366
 4458WAT      O13615   9.154   1.873   4.652
 4458WAT     H113616   9.122   1.790   4.607
 4458WAT     H213617   9.243   1.856   4.694
 4459WAT      O13618   0.400   4.922   1.965
 4459WAT     H113619   0.345   4.855   2.015
 4459WAT     H213620   0.477   4.875   1.921
 4460WAT      O13621   5.530   9.669   9.744
 4460WAT     H113622   5.559   9.764   9.741
 4460WAT     H213623   5.599   9.615   9.792
 4461WAT      O13624   7.740   4.591   6.995
 4461WAT     H113625   7.718   4.623   7.087
 4461WAT     H213626   7.656   4.569   6.945
 4462WAT      O13627   2.222   2.558   1.097
 4462WAT     H113628   2.167   2.499   1.038
 4462WAT     H213629   2.308   2.511   1.120
 4463WAT      O13630   1.640   7.213   1.208
 4463WAT     H113631   1.574   7.277   1.248
 4463WAT     H213632   1.683   7.160   1.282
 4464WAT      O13633   4.147   2.418   3.578
 4464WAT     H113634   4.059   2.466   3.580
 4464WAT     H213635   4.140   2.341   3.515
 4465WAT      O13636   6.711   4.575   7.386
 4465WAT     H113637   6.694   4.661   7.433
 4465WAT     H213638   6.761   4.593   7.301
 4466WAT      O13639   5.160   6.555   8.738
 4466WAT     H113640   5.175   6.470   8.789
 4466WAT     H213641   5.212   6.629   8.782
 4467WAT      O13642   5.902   3.674   0.943
 4467WAT     H113643   5.861   3.757   0.979
 4467WAT     H213644   5.998   3.669   0.971
 4468WAT      O13645   2.407   8.457   2.934
 4468WAT     H113646   2.498   8.472   2.894
 4468WAT     H213647   2.380   8.362   2.919
 4469WAT      O13648   3.953   9.498   4.012
 4469WAT     H113649   4.000   9.410   4.024
 4469WAT     H213650   3.942   9.542   4.101
 4470WAT      O13651   7.926   7.819   5.491
 4470WAT     H113652   7.999   7.774   5.439
 4470WAT     H213653   7.886   7.892   5.435
 4471WAT      O13654   0.227   6.409   9.066
 4471WAT     H113655   0.241   6.358   9.150
 4471WAT     H213656   0.142   6.380   9.022
 4472WAT      O13657   0.662   1.558   0.458
 4472WAT     H113658   0.691   1.525   0.368
 4472WAT     H213659   0.614   1.645   0.448
 4473WAT      O13660   7.741   0.213   9.217
 4473WAT     H113661   7.815   0.215   9.285
 4473WAT     H213662   7.653   0.214   9.264
 4474WAT      O13663   2.505   9.157   7.313
 4474WAT     H113664   2.429   9.215   7.284
 4474WAT     H213665   2.482   9.061   7.300
 4475WAT      O13666   5.369   8.839   7.004
 4475WAT     H113667   5.460   8.833   7.044
 4475WAT     H213668   5.350   8.758   6.949
 4476WAT      O13669   9.691   3.208   9.094
 4476WAT     H113670   9.758   3.281   9.090
 4476WAT     H213671   9.725   3.134   9.153
 4477WAT      O13672   1.692   8.569   0.633
 4477WAT     H113673   1.736   8.628   0.564
 4477WAT     H213674   1.734   8.478   0.630
 4478WAT      O13675   2.262   3.437   6.210
 4478WAT     H113676   2.189   3.476   6.154
 4478WAT     H213677   2.347   3.436   6.158
 4479WAT      O13678   6.042   9.293   7.593
 4479WAT     H113679   6.061   9.232   7.670
 4479WAT     H213680   6.053   9.388   7.623
 4480WAT      O13681   7.282   5.819   6.114
 4480WAT     H113682   7.206   5.755   6.099
 4480WAT     H213683   7.327   5.838   6.027
 4481WAT      O13684   4.351   4.121   2.062
 4481WAT     H113685   4.294   4.154   1.987
 4481WAT     H213686   4.418   4.056   2.028
 4482WAT      O13687   6.523   6.522   4.994
 4482WAT     H113688   6.439   6.468   5.000
 4482WAT     H213689   6.511   6.608   5.045
 4483WAT      O13690   7.870   4.226   3.283
 4483WAT     H113691   7.798   4.286   3.317
 4483WAT     H213692   7.833   4.135   3.267
 4484WAT      O13693   9.044   7.011   7.276
 4484WAT     H113694   9.036   7.031   7.178
 4484WAT     H213695   9.101   7.080   7.320
 4485WAT      O13696   0.678   5.981   4.042
 4485WAT     H113697   0.661   6.066   4.092
 4485WAT     H213698   0.653   5.993   3.946
 4486WAT      O13699   7.196   0.201   8.674
 4486WAT     H113700   7.293   0.178   8.683
 4486WAT     H213701   7.187   0.290   8.630
 4487WAT      O13702   5.704   8.085   5.751
 4487WAT     H113703   5.643   8.157   5.717
 4487WAT     H213704   5.724   8.102   5.848
 4488WAT      O13705   5.212   4.730   3.069
 4488WAT     H113706   5.263   4.669   3.008
 4488WAT     H213707   5.148   4.677   3.124
 4489WAT      O13708   6.236   0.134   0.194
 4489WAT     H113709   6.168   0.071   0.158
 4489WAT     H213710   6.195   0.188   0.268
 4490WAT      O13711   0.132   1.128   6.412
 4490WAT     H113712   0.105   1.085   6.326
 4490WAT     H213713   0.093   1.077   6.488
 4491WAT      O13714   6.924   0.420   6.775
 4491WAT     H113715   6.966   0.506   6.802
 4491WAT     H213716   6.835   0.410   6.820
 4492WAT      O13717   6.009   5.867   0.193
 4492WAT     H113718   5.950   5.787   0.182
 4492WAT     H213719   5.953   5.948   0.212
 4493WAT      O13720   0.334   0.342   8.234
 4493WAT     H113721   0.262   0.377   8.293
 4493WAT     H213722   0.292   0.298   8.154
 4494WAT      O13723   7.946   5.758   5.528
 4494WAT     H113724   7.966   5.854   5.513
 4494WAT     H213725   7.875   5.728   5.465
 4495WAT      O13726   2.789   1.859   1.338
 4495WAT     H113727   2.791   1.806   1.423
 4495WAT     H213728   2.738   1.944   1.354
 4496WAT      O13729   1.502   2.176   2.318
 4496WAT     H113730   1.525   2.152   2.223
 4496WAT     H213731   1.486   2.092   2.370
 4497WAT      O13732   2.004   0.813   9.645
 4497WAT     H113733   1.905   0.811   9.628
 4497WAT     H213734   2.022   0.854   9.734
 4498WAT      O13735   0.007   7.927   3.795
 4498WAT     H113736   0.062   7.965   3.720
 4498WAT     H213737  -0.076   7.980   3.806
 4499WAT      O13738   7.007   3.820   3.105
 4499WAT     H113739   7.007   3.910   3.149
 4499WAT     H213740   7.074   3.761   3.150
 4500WAT      O13741   9.151   7.425   6.088
 4500WAT     H113742   9.251   7.425   6.089
 4500WAT     H213743   9.118   7.335   6.060
 4501WAT      O13744   3.790   7.360   0.126
 4501WAT     H113745   3.871   7.358   0.067
 4501WAT     H213746   3.818   7.376   0.220
 4502WAT      O13747   5.171   8.597   7.122
 4502WAT     H113748   5.129   8.541   7.193
 4502WAT     H213749   5.212   8.679   7.163
 4503WAT      O13750   2.703   6.749   2.423
 4503WAT     H113751   2.623   6.731   2.366
 4503WAT     H213752   2.676   6.802   2.504
 4504WAT      O13753   5.651   6.548   8.179
 4504WAT     H113754   5.679   6.514   8.090
 4504WAT     H213755   5.600   6.477   8.228
 4505WAT      O13756   7.564   8.065   0.453
 4505WAT     H113757   7.652   8.055   0.407
 4505WAT     H213758   7.565   8.014   0.539
 4506WAT      O13759   7.456   6.548   0.104
 4506WAT     H113760   7.450   6.556   0.203
 4506WAT     H213761   7.452   6.452   0.078
 4507WAT      O13762   9.647   9.213   2.838
 4507WAT     H113763   9.609   9.120   2.836
 4507WAT     H213764   9.616   9.263   2.757
 4508WAT      O13765   7.955   0.467   5.474
 4508WAT     H113766   7.966   0.549   5.529
 4508WAT     H213767   8.011   0.393   5.512
 4509WAT      O13768   8.464   7.052   6.385
 4509WAT     H113769   8.518   7.118   6.437
 4509WAT     H213770   8.419   7.098   6.308
 4510WAT      O13771   7.179   9.819   0.795
 4510WAT     H113772   7.246   9.761   0.748
 4510WAT     H213773   7.101   9.763   0.824
 4511WAT      O13774   3.690   9.740   0.860
 4511WAT     H113775   3.646   9.805   0.800
 4511WAT     H213776   3.674   9.766   0.955
 4512WAT      O13777   7.170   4.196   2.772
 4512WAT     H113778   7.074   4.227   2.769
 4512WAT     H213779   7.229   4.269   2.738
 4513WAT      O13780   3.353   3.297   3.837
 4513WAT     H113781   3.423   3.292   3.908
 4513WAT     H213782   3.328   3.205   3.809
 4514WAT      O13783   4.341   1.238   0.865
 4514WAT     H113784   4.297   1.309   0.919
 4514WAT     H213785   4.438   1.260   0.852
 4515WAT      O13786   3.420   7.313   6.289
 4515WAT     H113787   3.431   7.412   6.297
 4515WAT     H213788   3.485   7.267   6.350
 4516WAT      O13789   5.433   3.535   2.278
 4516WAT     H113790   5.450   3.603   2.206
 4516WAT     H213791   5.401   3.582   2.360
 4517WAT      O13792   1.546   1.117   9.586
 4517WAT     H113793   1.514   1.210   9.566
 4517WAT     H213794   1.475   1.067   9.635
 4518WAT      O13795   2.739   5.553   8.405
 4518WAT     H113796   2.817   5.582   8.461
 4518WAT     H213797   2.669   5.512   8.464
 4519WAT      O13798   9.189   8.594   4.467
 4519WAT     H113799   9.241   8.526   4.414
 4519WAT     H213800   9.145   8.658   4.404
 4520WAT      O13801   8.860   3.634   8.492
 4520WAT     H113802   8.931   3.572   8.458
 4520WAT     H213803   8.850   3.711   8.428
 4521WAT      O13804   4.903   1.629   3.434
 4521WAT     H113805   4.915   1.705   3.370
 4521WAT     H213806   4.880   1.546   3.383
 4522WAT      O13807   8.964   6.959   2.503
 4522WAT     H113808   8.928   6.876   2.461
 4522WAT     H213809   8.978   6.943   2.601
 4523WAT      O13810   6.864   0.575   8.558
 4523WAT     H113811   6.873   0.635   8.478
 4523WAT     H213812   6.910   0.617   8.636
 4524WAT      O13813   1.803   0.838   5.098
 4524WAT     H113814   1.866   0.761   5.085
 4524WAT     H213815   1.839   0.919   5.052
 4525WAT      O13816   7.518   2.005   6.167
 4525WAT     H113817   7.596   2.020   6.229
 4525WAT     H213818   7.516   2.077   6.099
 4526WAT      O13819   3.534   5.958   3.504
 4526WAT     H113820   3.469   6.033   3.519
 4526WAT     H213821   3.592   5.947   3.585
 4527WAT      O13822   7.696   3.984   0.121
 4527WAT     H113823   7.681   4.056   0.054
 4527WAT     H213824   7.617   3.923   0.122
 4528WAT      O13825   2.796   8.191   7.380
 4528WAT     H113826   2.844   8.272   7.413
 4528WAT     H213827   2.859   8.133   7.329
 4529WAT      O13828   5.215   6.748   9.552
 4529WAT     H113829   5.195   6.714   9.460
 4529WAT     H213830   5.300   6.802   9.549
 4530WAT      O13831   1.874   3.547   7.863
 4530WAT     H113832   1.901   3.505   7.776
 4530WAT     H213833   1.847   3.642   7.846
 4531WAT      O13834   3.688   7.356   4.505
 4531WAT     H113835   3.697   7.318   4.597
 4531WAT     H213836   3.593   7.348   4.475
 4532WAT      O13837   5.787   5.985   9.065
 4532WAT     H113838   5.816   5.940   8.980
 4532WAT     H213839   5.867   6.009   9.119
 4533WAT      O13840   2.182   2.567   8.759
 4533WAT     H113841   2.146   2.483   8.799
 4533WAT     H213842   2.225   2.547   8.671
 4534WAT      O13843   8.702   1.862   5.132
 4534WAT     H113844   8.794   1.891   5.108
 4534WAT     H213845   8.638   1.888   5.059
 4535WAT      O13846   3.450   4.516   5.821
 4535WAT     H113847   3.440   4.441   5.887
 4535WAT     H213848   3.529   4.499   5.763
 4536WAT      O13849   5.061   7.914   5.773
 4536WAT     H113850   5.100   7.863   5.696
 4536WAT     H213851   4.965   7.891   5.784
 4537WAT      O13852   7.846   3.348   7.707
 4537WAT     H113853   7.810   3.338   7.800
 4537WAT     H213854   7.946   3.344   7.709
 4538WAT      O13855   7.629   4.000   7.967
 4538WAT     H113856   7.688   4.071   8.006
 4538WAT     H213857   7.612   3.930   8.036
 4539WAT      O13858   8.990   0.673   8.306
 4539WAT     H113859   8.899   0.715   8.304
 4539WAT     H213860   9.052   0.724   8.246
 4540WAT      O13861   2.318   3.278   3.744
 4540WAT     H113862   2.254   3.242   3.812
 4540WAT     H213863   2.291   3.371   3.717
 4541WAT      O13864   9.730   8.560   3.695
 4541WAT     H113865   9.764   8.559   3.601
 4541WAT     H213866   9.639   8.520   3.697
 4542WAT      O13867   7.171   1.351   9.688
 4542WAT     H113868   7.226   1.414   9.743
 4542WAT     H213869   7.074   1.371   9.700
 4543WAT      O13870   2.665   8.398   3.305
 4543WAT     H113871   2.647   8.306   3.340
 4543WAT     H213872   2.728   8.393   3.228
 4544WAT      O13873   8.606   7.040   2.836
 4544WAT     H113874   8.692   7.042   2.886
 4544WAT     H213875   8.533   7.008   2.897
 4545WAT      O13876   6.882   2.534   1.500
 4545WAT     H113877   6.795   2.571   1.531
 4545WAT     H213878   6.934   2.605   1.453
 4546WAT      O13879   2.027   1.348   2.689
 4546WAT     H113880   2.086   1.277   2.651
 4546WAT     H213881   2.035   1.348   2.789
 4547WAT      O13882   6.797   6.733   3.567
 4547WAT     H113883   6.824   6.768   3.657
 4547WAT     H213884   6.835   6.641   3.554
 4548WAT      O13885   8.684   3.774   8.764
 4548WAT     H113886   8.644   3.828   8.838
 4548WAT     H213887   8.739   3.833   8.705
 4549WAT      O13888   3.032   5.809   5.384
 4549WAT     H113889   2.991   5.895   5.355
 4549WAT     H213890   2.982   5.733   5.342
 4550WAT      O13891   3.300   1.853   4.596
 4550WAT     H113892   3.246   1.933   4.572
 4550WAT     H213893   3.389   1.858   4.552
 4551WAT      O13894   0.680   8.445   0.273
 4551WAT     H113895   0.586   8.478   0.261
 4551WAT     H213896   0.739   8.491   0.207
 4552WAT      O13897   9.292   1.798   6.428
 4552WAT     H113898   9.220   1.863   6.453
 4552WAT     H213899   9.322   1.748   6.509
 4553WAT      O13900   1.544   4.625   9.447
 4553WAT     H113901   1.580   4.585   9.532
 4553WAT     H213902   1.476   4.695   9.469
 4554WAT      O13903   0.055   5.669   0.589
 4554WAT     H113904   0.080   5.695   0.682
 4554WAT     H213905   0.005   5.583   0.591
 4555WAT      O13906   7.366   3.435   1.992
 4555WAT     H113907   7.436   3.491   2.036
 4555WAT     H213908   7.352   3.468   1.899
 4556WAT      O13909   4.880   1.822   4.701
 4556WAT     H113910   4.904   1.885   4.774
 4556WAT     H213911   4.784   1.836   4.674
 4557WAT      O13912   2.394   2.443   9.228
 4557WAT     H113913   2.311   2.451   9.174
 4557WAT     H213914   2.370   2.444   9.326
 4558WAT      O13915   5.148   1.947   0.757
 4558WAT     H113916   5.247   1.946   0.774
 4558WAT     H213917   5.103   1.885   0.821
 4559WAT      O13918   5.087   0.383   2.027
 4559WAT     H113919   5.028   0.454   1.990
 4559WAT     H213920   5.131   0.416   2.110
 4560WAT      O13921   6.509   8.934   7.701
 4560WAT     H113922   6.566   8.865   7.656
 4560WAT     H213923   6.559   9.020   7.704
 4561WAT      O13924   4.666   4.992   0.954
 4561WAT     H113925   4.605   5.057   0.999
 4561WAT     H213926   4.759   5.003   0.990
 4562WAT      O13927   3.147   5.161   7.974
 4562WAT     H113928   3.234   5.211   7.974
 4562WAT     H213929   3.148   5.093   8.047
 4563WAT      O13930   1.542   2.537   8.622
 4563WAT     H113931   1.479   2.560   8.696
 4563WAT     H213932   1.595   2.617   8.597
 4564WAT      O13933   1.940   2.821   6.237
 4564WAT     H113934   1.999   2.896   6.269
 4564WAT     H213935   1.844   2.845   6.253
 4565WAT      O13936   0.746   3.559   3.581
 4565WAT     H113937   0.658   3.513   3.579
 4565WAT     H213938   0.733   3.654   3.610
 4566WAT      O13939   6.056   1.622   1.057
 4566WAT     H113940   6.054   1.635   0.958
 4566WAT     H213941   6.137   1.667   1.095
 4567WAT      O13942   8.185   0.679   2.653
 4567WAT     H113943   8.088   0.661   2.673
 4567WAT     H213944   8.217   0.615   2.583
 4568WAT      O13945   0.878   2.668   6.988
 4568WAT     H113946   0.890   2.729   7.066
 4568WAT     H213947   0.968   2.646   6.949
 4569WAT      O13948   1.735   6.730   6.721
 4569WAT     H113949   1.798   6.728   6.643
 4569WAT     H213950   1.759   6.658   6.786
 4570WAT      O13951   0.003   8.364   6.447
 4570WAT     H113952   0.090   8.396   6.408
 4570WAT     H213953  -0.040   8.439   6.497
 4571WAT      O13954   5.855   8.399   2.617
 4571WAT     H113955   5.795   8.466   2.660
 4571WAT     H213956   5.860   8.417   2.519
 4572WAT      O13957   0.740   1.610   7.397
 4572WAT     H113958   0.738   1.591   7.495
 4572WAT     H213959   0.686   1.541   7.348
 4573WAT      O13960   5.519   2.371   0.045
 4573WAT     H113961   5.540   2.315   0.125
 4573WAT     H213962   5.567   2.458   0.052
 4574WAT      O13963   0.266   2.598   0.044
 4574WAT     H113964   0.330   2.668   0.076
 4574WAT     H213965   0.215   2.632  -0.035
 4575WAT      O13966   7.816   9.742   0.251
 4575WAT     H113967   7.831   9.713   0.157
 4575WAT     H213968   7.903   9.741   0.300
 4576WAT      O13969   3.082   6.237   5.043
 4576WAT     H113970   3.166   6.271   5.085
 4576WAT     H213971   3.051   6.155   5.092
 4577WAT      O13972   4.113   6.409   1.519
 4577WAT     H113973   4.015   6.430   1.509
 4577WAT     H213974   4.131   6.317   1.485
 4578WAT      O13975   9.720   0.462   4.201
 4578WAT     H113976   9.679   0.503   4.120
 4578WAT     H213977   9.731   0.531   4.272
 4579WAT      O13978   1.014   6.858   4.553
 4579WAT     H113979   1.029   6.817   4.463
 4579WAT     H213980   0.989   6.954   4.543
 4580WAT      O13981   3.802   8.092   8.407
 4580WAT     H113982   3.822   8.108   8.310
 4580WAT     H213983   3.746   8.010   8.416
 4581WAT      O13984   6.609   1.644   3.340
 4581WAT     H113985   6.622   1.743   3.347
 4581WAT     H213986   6.525   1.618   3.389
 4582WAT      O13987   7.457   4.118   8.962
 4582WAT     H113988   7.395   4.078   8.894
 4582WAT     H213989   7.422   4.099   9.054
 4583WAT      O13990   3.668   1.258   1.526
 4583WAT     H113991   3.572   1.261   1.555
 4583WAT     H213992   3.725   1.298   1.597
 4584WAT      O13993   1.366   4.095   5.024
 4584WAT     H113994   1.316   4.014   5.054
 4584WAT     H213995   1.361   4.103   4.925
 4585WAT      O13996   3.044   9.802   8.539
 4585WAT     H113997   3.100   9.788   8.458
 4585WAT     H213998   3.006   9.715   8.569
 4586WAT      O13999   2.959   5.388   1.719
 4586WAT     H114000   2.959   5.324   1.796
 4586WAT     H214001   3.052   5.398   1.683
 4587WAT      O14002   2.111   7.406   0.858
 4587WAT     H114003   2.076   7.368   0.944
 4587WAT     H214004   2.123   7.333   0.792
 4588WAT      O14005   6.850   7.928   4.237
 4588WAT     H114006   6.788   7.887   4.170
 4588WAT     H214007   6.906   7.856   4.278
 4589WAT      O14008   9.164   2.179   0.120
 4589WAT     H114009   9.153   2.189   0.219
 4589WAT     H214010   9.241   2.118   0.101
 4590WAT      O14011   0.772   0.709   3.075
 4590WAT     H114012   0.723   0.735   3.158
 4590WAT     H214013   0.833   0.632   3.095
 4591WAT      O14014   1.711   6.668   0.160
 4591WAT     H114015   1.633   6.717   0.198
 4591WAT     H214016   1.795   6.718   0.181
 4592WAT      O14017   9.012   0.602   5.855
 4592WAT     H114018   9.064   0.638   5.778
 4592WAT     H214019   8.927   0.654   5.865
 4593WAT      O14020   7.293   0.968   1.823
 4593WAT     H114021   7.305   1.068   1.817
 4593WAT     H214022   7.320   0.927   1.736
 4594WAT      O14023   1.873   0.238   3.423
 4594WAT     H114024   1.926   0.175   3.479
 4594WAT     H214025   1.828   0.188   3.349
 4595WAT      O14026   4.920   4.704   8.338
 4595WAT     H114027   4.837   4.734   8.385
 4595WAT     H214028   4.930   4.756   8.253
 4596WAT      O14029   3.243   3.373   8.317
 4596WAT     H114030   3.276   3.399   8.408
 4596WAT     H214031   3.298   3.296   8.283
 4597WAT      O14032   4.022   2.767   6.436
 4597WAT     H114033   4.032   2.859   6.474
 4597WAT     H214034   3.954   2.769   6.362
 4598WAT      O14035   9.706   6.497   9.765
 4598WAT     H114036   9.626   6.506   9.707
 4598WAT     H214037   9.777   6.561   9.736
 4599WAT      O14038   1.628   8.067   8.869
 4599WAT     H114039   1.619   8.165   8.853
 4599WAT     H214040   1.645   8.020   8.782
 4600WAT      O14041   3.450   3.524   6.051
 4600WAT     H114042   3.440   3.624   6.056
 4600WAT     H214043   3.430   3.485   6.141
 4601WAT      O14044   1.008   5.465   9.351
 4601WAT     H114045   0.953   5.508   9.423
 4601WAT     H214046   1.016   5.367   9.369
 4602WAT      O14047   1.416   1.385   9.006
 4602WAT     H114048   1.450   1.385   8.911
 4602WAT     H214049   1.457   1.462   9.055
 4603WAT      O14050   2.120   4.341   1.157
 4603WAT     H114051   2.056   4.348   1.080
 4603WAT     H214052   2.113   4.250   1.198
 4604WAT      O14053   4.301   4.956   2.383
 4604WAT     H114054   4.252   5.033   2.424
 4604WAT     H214055   4.281   4.952   2.285
 4605WAT      O14056   6.139   7.803   8.982
 4605WAT     H114057   6.098   7.744   9.051
 4605WAT     H214058   6.149   7.895   9.019
 4606WAT      O14059   3.648   6.083   5.418
 4606WAT     H114060   3.652   6.113   5.322
 4606WAT     H214061   3.705   6.002   5.430
 4607WAT      O14062   5.369   5.247   3.919
 4607WAT     H114063   5.391   5.167   3.864
 4607WAT     H214064   5.447   5.309   3.922
 4608WAT      O14065   5.739   6.727   0.815
 4608WAT     H114066   5.728   6.749   0.718
 4608WAT     H214067   5.727   6.629   0.828
 4609WAT      O14068   7.000   6.977   1.451
 4609WAT     H114069   7.056   6.962   1.370
 4609WAT     H214070   7.054   7.025   1.521
 4610WAT      O14071   3.850   2.361   7.390
 4610WAT     H114072   3.899   2.414   7.458
 4610WAT     H214073   3.869   2.264   7.403
 4611WAT      O14074   5.086   7.598   9.348
 4611WAT     H114075   5.030   7.588   9.266
 4611WAT     H214076   5.116   7.508   9.378
 4612WAT      O14077   4.812   1.138   4.717
 4612WAT     H114078   4.833   1.112   4.811
 4612WAT     H214079   4.798   1.237   4.712
 4613WAT      O14080   7.127   6.116   5.015
 4613WAT     H114081   7.220   6.113   4.978
 4613WAT     H214082   7.087   6.025   5.013
 4614WAT      O14083   0.720   3.076   2.027
 4614WAT     H114084   0.755   3.040   1.941
 4614WAT     H214085   0.734   3.009   2.100
 4615WAT      O14086   2.156   3.345   5.279
 4615WAT     H114087   2.234   3.371   5.336
 4615WAT     H214088   2.177   3.364   5.183
 4616WAT      O14089   8.168   5.664   1.594
 4616WAT     H114090   8.215   5.749   1.617
 4616WAT     H214091   8.076   5.685   1.561
 4617WAT      O14092   6.677   0.441   6.393
 4617WAT     H114093   6.671   0.530   6.438
 4617WAT     H214094   6.585   0.403   6.382
 4618WAT      O14095   2.992   9.135   8.682
 4618WAT     H114096   2.933   9.056   8.700
 4618WAT     H214097   3.077   9.126   8.734
 4619WAT      O14098   0.824   5.636   9.480
 4619WAT     H114099   0.780   5.648   9.392
 4619WAT     H214100   0.788   5.703   9.545
 4620WAT      O14101   7.604   1.292   9.836
 4620WAT     H114102   7.703   1.287   9.847
 4620WAT     H214103   7.575   1.225   9.767
 4621WAT      O14104   4.403   2.493   5.867
 4621WAT     H114105   4.407   2.444   5.954
 4621WAT     H214106   4.435   2.587   5.880
 4622WAT      O14107   9.385   3.272   5.369
 4622WAT     H114108   9.389   3.174   5.385
 4622WAT     H214109   9.293   3.298   5.340
 4623WAT      O14110   3.088   8.376   3.555
 4623WAT     H114111   2.995   8.407   3.574
 4623WAT     H214112   3.106   8.290   3.603
 4624WAT      O14113   3.410   8.335   0.367
 4624WAT     H114114   3.340   8.264   0.363
 4624WAT     H214115   3.444   8.354   0.275
 4625WAT      O14116   7.101   2.475   8.055
 4625WAT     H114117   7.093   2.378   8.034
 4625WAT     H214118   7.043   2.527   7.991
 4626WAT      O14119   3.259   2.253   0.997
 4626WAT     H114120   3.277   2.159   1.024
 4626WAT     H214121   3.305   2.274   0.911
 4627WAT      O14122   7.994   9.443   3.861
 4627WAT     H114123   8.029   9.534   3.837
 4627WAT     H214124   8.046   9.407   3.939
 4628WAT      O14125   2.354   8.747   8.935
 4628WAT     H114126   2.400   8.662   8.908
 4628WAT     H214127   2.256   8.740   8.914
 4629WAT      O14128   0.040   9.222   9.193
 4629WAT     H114129  -0.037   9.203   9.132
 4629WAT     H214130   0.036   9.317   9.223
 4630WAT      O14131   1.224   3.741   4.712
 4630WAT     H114132   1.146   3.681   4.728
 4630WAT     H214133   1.219   3.819   4.774
 4631WAT      O14134   2.103   2.534   7.030
 4631WAT     H114135   2.023   2.589   7.004
 4631WAT     H214136   2.083   2.484   7.114
 4632WAT      O14137   3.739   2.156   0.114
 4632WAT     H114138   3.836   2.138   0.097
 4632WAT     H214139   3.696   2.074   0.150
 4633WAT      O14140   2.305   1.086   5.712
 4633WAT     H114141   2.403   1.098   5.731
 4633WAT     H214142   2.257   1.062   5.797
 4634WAT      O14143   1.605   6.174   5.975
 4634WAT     H114144   1.603   6.270   6.004
 4634WAT     H214145   1.687   6.158   5.920
 4635WAT      O14146   5.375   7.870   8.567
 4635WAT     H114147   5.406   7.958   8.533
 4635WAT     H214148   5.442   7.800   8.545
 4636WAT      O14149   6.417   3.647   0.823
 4636WAT     H114150   6.425   3.590   0.904
 4636WAT     H214151   6.506   3.653   0.777
 4637WAT      O14152   5.947   0.098   5.367
 4637WAT     H114153   5.891   0.051   5.436
 4637WAT     H214154   6.043   0.093   5.393
 4638WAT      O14155   7.226   5.215   1.890
 4638WAT     H114156   7.300   5.281   1.885
 4638WAT     H214157   7.179   5.210   1.802
 4639WAT      O14158   0.424   0.131   5.388
 4639WAT     H114159   0.422   0.109   5.485
 4639WAT     H214160   0.419   0.046   5.335
 4640WAT      O14161   7.717   4.270   8.280
 4640WAT     H114162   7.753   4.299   8.369
 4640WAT     H214163   7.623   4.237   8.292
 4641WAT      O14164   5.554   4.589   7.086
 4641WAT     H114165   5.477   4.634   7.040
 4641WAT     H214166   5.624   4.565   7.019
 4642WAT      O14167   5.170   2.557   6.800
 4642WAT     H114168   5.163   2.462   6.768
 4642WAT     H214169   5.153   2.560   6.898
 4643WAT      O14170   6.844   8.692   1.673
 4643WAT     H114171   6.865   8.595   1.688
 4643WAT     H214172   6.929   8.742   1.660
 4644WAT      O14173   3.875   2.913   4.947
 4644WAT     H114174   3.825   2.944   5.027
 4644WAT     H214175   3.812   2.871   4.882
 4645WAT      O14176   7.584   3.075   2.967
 4645WAT     H114177   7.677   3.113   2.959
 4645WAT     H214178   7.530   3.104   2.888
 4646WAT      O14179   6.050   8.219   3.665
 4646WAT     H114180   6.119   8.269   3.612
 4646WAT     H214181   6.088   8.131   3.694
 4647WAT      O14182   5.912   6.615   0.560
 4647WAT     H114183   5.912   6.708   0.524
 4647WAT     H214184   6.006   6.586   0.580
 4648WAT      O14185   2.392   4.405   1.118
 4648WAT     H114186   2.302   4.414   1.159
 4648WAT     H214187   2.391   4.442   1.025
 4649WAT      O14188   0.785   5.648   1.911
 4649WAT     H114189   0.865   5.625   1.856
 4649WAT     H214190   0.790   5.744   1.939
 4650WAT      O14191   9.581   1.323   9.403
 4650WAT     H114192   9.628   1.345   9.489
 4650WAT     H214193   9.515   1.250   9.419
 4651WAT      O14194   7.916   7.717   4.927
 4651WAT     H114195   7.986   7.768   4.977
 4651WAT     H214196   7.872   7.778   4.861
 4652WAT      O14197   4.481   3.464   5.284
 4652WAT     H114198   4.417   3.475   5.361
 4652WAT     H214199   4.448   3.517   5.206
 4653WAT      O14200   3.290   8.269   0.867
 4653WAT     H114201   3.211   8.212   0.889
 4653WAT     H214202   3.333   8.235   0.783
 4654WAT      O14203   7.053   2.277   0.905
 4654WAT     H114204   7.045   2.376   0.894
 4654WAT     H214205   6.963   2.238   0.922
 4655WAT      O14206   5.363   6.535   8.529
 4655WAT     H114207   5.296   6.539   8.603
 4655WAT     H214208   5.410   6.623   8.521
 4656WAT      O14209   1.571   3.153   5.222
 4656WAT     H114210   1.611   3.062   5.214
 4656WAT     H214211   1.484   3.156   5.172
 4657WAT      O14212   2.846   0.278   9.340
 4657WAT     H114213   2.802   0.191   9.318
 4657WAT     H214214   2.857   0.332   9.256
 4658WAT      O14215   0.369   1.578   6.921
 4658WAT     H114216   0.347   1.500   6.980
 4658WAT     H214217   0.357   1.552   6.825
 4659WAT      O14218   2.080   2.724   9.335
 4659WAT     H114219   1.995   2.773   9.318
 4659WAT     H214220   2.157   2.775   9.297
 4660WAT      O14221   8.106   4.251   5.724
 4660WAT     H114222   8.180   4.298   5.772
 4660WAT     H214223   8.089   4.162   5.766
 4661WAT      O14224   6.751   1.105   2.727
 4661WAT     H114225   6.670   1.061   2.766
 4661WAT     H214226   6.822   1.037   2.713
 4662WAT      O14227   7.638   3.064   0.158
 4662WAT     H114228   7.723   3.109   0.130
 4662WAT     H214229   7.660   2.980   0.209
 4663WAT      O14230   0.728   0.757   8.476
 4663WAT     H114231   0.675   0.677   8.503
 4663WAT     H214232   0.704   0.783   8.383
 4664WAT      O14233   4.921   8.038   8.044
 4664WAT     H114234   4.966   8.121   8.077
 4664WAT     H214235   4.827   8.060   8.017
 4665WAT      O14236   4.549   4.930   9.314
 4665WAT     H114237   4.450   4.925   9.327
 4665WAT     H214238   4.576   5.026   9.300
 4666WAT      O14239   3.493   9.182   5.610
 4666WAT     H114240   3.543   9.108   5.565
 4666WAT     H214241   3.407   9.198   5.561
 4667WAT      O14242   4.385   3.393   8.554
 4667WAT     H114243   4.447   3.470   8.537
 4667WAT     H214244   4.385   3.372   8.652
 4668WAT      O14245   6.481   6.578   4.630
 4668WAT     H114246   6.455   6.495   4.678
 4668WAT     H214247   6.433   6.656   4.670
 4669WAT      O14248   0.174   7.036   2.741
 4669WAT     H114249   0.187   6.937   2.743
 4669WAT     H214250   0.175   7.072   2.834
 4670WAT      O14251   0.238   3.463   7.676
 4670WAT     H114252   0.180   3.544   7.684
 4670WAT     H214253   0.332   3.487   7.701
 4671WAT      O14254   0.192   2.612   0.693
 4671WAT     H114255   0.093   2.598   0.685
 4671WAT     H214256   0.240   2.543   0.638
 4672WAT      O14257   6.181   1.166   0.314
 4672WAT     H114258   6.275   1.132   0.317
 4672WAT     H214259   6.181   1.266   0.321
 4673WAT      O14260   6.257   7.586   1.563
 4673WAT     H114261   6.264   7.616   1.468
 4673WAT     H214262   6.240   7.665   1.622
 4674WAT      O14263   3.099   5.306   5.054
 4674WAT     H114264   3.139   5.256   4.977
 4674WAT     H214265   3.101   5.249   5.135
 4675WAT      O14266   6.645   9.084   7.420
 4675WAT     H114267   6.728   9.113   7.373
 4675WAT     H214268   6.643   9.123   7.512
 4676WAT      O14269   7.875   2.412   8.372
 4676WAT     H114270   7.782   2.445   8.362
 4676WAT     H214271   7.874   2.315   8.396
 4677WAT      O14272   1.246   9.581   7.805
 4677WAT     H114273   1.334   9.623   7.782
 4677WAT     H214274   1.248   9.485   7.778
 4678WAT      O14275   4.522   7.639   5.646
 4678WAT     H114276   4.516   7.546   5.611
 4678WAT     H214277   4.574   7.696   5.581
 4679WAT      O14278   4.591   8.961   5.820
 4679WAT     H114279   4.510   8.932   5.870
 4679WAT     H214280   4.583   8.934   5.724
 4680WAT      O14281   8.141   2.502   4.262
 4680WAT     H114282   8.090   2.426   4.221
 4680WAT     H214283   8.175   2.474   4.352
 4681WAT      O14284   1.055   7.699   3.535
 4681WAT     H114285   0.988   7.762   3.495
 4681WAT     H214286   1.105   7.745   3.608
 4682WAT      O14287   7.869   0.371   9.654
 4682WAT     H114288   7.828   0.288   9.617
 4682WAT     H214289   7.921   0.349   9.736
 4683WAT      O14290   4.277   2.125   1.756
 4683WAT     H114291   4.285   2.026   1.764
 4683WAT     H214292   4.258   2.163   1.847
 4684WAT      O14293   3.079   4.502   5.321
 4684WAT     H114294   3.045   4.584   5.368
 4684WAT     H214295   3.015   4.478   5.248
 4685WAT      O14296   0.482   3.393   1.056
 4685WAT     H114297   0.442   3.333   1.125
 4685WAT     H214298   0.432   3.480   1.055
 4686WAT      O14299   2.338   0.474   1.428
 4686WAT     H114300   2.396   0.432   1.359
 4686WAT     H214301   2.279   0.542   1.386
 4687WAT      O14302   5.533   9.448   4.853
 4687WAT     H114303   5.471   9.370   4.856
 4687WAT     H214304   5.563   9.462   4.758
 4688WAT      O14305   7.422   1.497   2.937
 4688WAT     H114306   7.462   1.589   2.945
 4688WAT     H214307   7.357   1.495   2.861
 4689WAT      O14308   1.217   1.580   5.966
 4689WAT     H114309   1.248   1.541   5.879
 4689WAT     H214310   1.126   1.545   5.988
 4690WAT      O14311   3.926   2.851   1.338
 4690WAT     H114312   3.839   2.845   1.387
 4690WAT     H214313   3.910   2.854   1.240
 4691WAT      O14314   0.682   4.536   3.220
 4691WAT     H114315   0.667   4.484   3.136
 4691WAT     H214316   0.598   4.539   3.273
 4692WAT      O14317   1.676   7.094   0.355
 4692WAT     H114318   1.614   7.161   0.396
 4692WAT     H214319   1.728   7.138   0.282
 4693WAT      O14320   5.560   7.294   2.795
 4693WAT     H114321   5.562   7.384   2.752
 4693WAT     H214322   5.573   7.304   2.894
 4694WAT      O14323   9.025   6.025   4.178
 4694WAT     H114324   8.992   5.933   4.196
 4694WAT     H214325   9.120   6.020   4.146
 4695WAT      O14326   4.672   4.588   8.694
 4695WAT     H114327   4.574   4.569   8.702
 4695WAT     H214328   4.718   4.513   8.647
 4696WAT      O14329   1.433   9.778   3.201
 4696WAT     H114330   1.366   9.783   3.275
 4696WAT     H214331   1.483   9.692   3.207
 4697WAT      O14332   2.729   2.857   8.197
 4697WAT     H114333   2.688   2.877   8.108
 4697WAT     H214334   2.662   2.810   8.254
 4698WAT      O14335   1.118   2.030   7.428
 4698WAT     H114336   1.190   1.986   7.375
 4698WAT     H214337   1.155   2.112   7.473
 4699WAT      O14338   3.927   3.923   0.640
 4699WAT     H114339   3.940   3.834   0.683
 4699WAT     H214340   4.007   3.944   0.583
 4700WAT      O14341   1.842   4.832   9.690
 4700WAT     H114342   1.875   4.738   9.685
 4700WAT     H214343   1.775   4.841   9.764
 4701WAT      O14344   0.420   2.462   8.993
 4701WAT     H114345   0.330   2.432   8.959
 4701WAT     H214346   0.492   2.424   8.934
 4702WAT      O14347   5.544   2.435   6.739
 4702WAT     H114348   5.633   2.420   6.696
 4702WAT     H214349   5.540   2.385   6.826
 4703WAT      O14350   8.820   4.620   8.462
 4703WAT     H114351   8.833   4.575   8.550
 4703WAT     H214352   8.764   4.702   8.475
 4704WAT      O14353   5.323   0.864   1.144
 4704WAT     H114354   5.263   0.882   1.222
 4704WAT     H214355   5.290   0.915   1.065
 4705WAT      O14356   0.291   8.977   7.628
 4705WAT     H114357   0.295   8.911   7.552
 4705WAT     H214358   0.276   8.928   7.714
 4706WAT      O14359   6.763   2.252   9.768
 4706WAT     H114360   6.674   2.210   9.784
 4706WAT     H214361   6.786   2.247   9.671
 4707WAT      O14362   7.785   3.020   0.908
 4707WAT     H114363   7.847   2.951   0.945
 4707WAT     H214364   7.702   3.024   0.965
 4708WAT      O14365   7.769   2.440   2.980
 4708WAT     H114366   7.860   2.404   2.958
 4708WAT     H214367   7.715   2.448   2.896
 4709WAT      O14368   5.461   0.602   8.807
 4709WAT     H114369   5.453   0.562   8.899
 4709WAT     H214370   5.464   0.702   8.814
 4710WAT      O14371   4.982   4.520   8.751
 4710WAT     H114372   4.957   4.616   8.740
 4710WAT     H214373   5.018   4.485   8.665
 4711WAT      O14374   9.522   2.062   7.661
 4711WAT     H114375   9.509   2.017   7.572
 4711WAT     H214376   9.437   2.056   7.713
 4712WAT      O14377   1.169   1.569   4.899
 4712WAT     H114378   1.222   1.485   4.910
 4712WAT     H214379   1.104   1.577   4.975
 4713WAT      O14380   0.930   8.738   1.664
 4713WAT     H114381   0.906   8.762   1.570
 4713WAT     H214382   1.026   8.713   1.669
 4714WAT      O14383   2.969   8.656   0.960
 4714WAT     H114384   3.015   8.714   1.027
 4714WAT     H214385   2.877   8.692   0.943
 4715WAT      O14386   8.841   4.882   6.208
 4715WAT     H114387   8.923   4.864   6.263
 4715WAT     H214388   8.789   4.797   6.196
 4716WAT      O14389   0.064   1.179   4.639
 4716WAT     H114390   0.021   1.265   4.666
 4716WAT     H214391   0.078   1.179   4.540
 4717WAT      O14392   7.357   4.516   2.014
 4717WAT     H114393   7.384   4.422   1.993
 4717WAT     H214394   7.333   4.523   2.111
 4718WAT      O14395   9.555   9.687   3.406
 4718WAT     H114396   9.534   9.613   3.342
 4718WAT     H214397   9.652   9.709   3.400
 4719WAT      O14398   0.665   4.827   0.599
 4719WAT     H114399   0.669   4.885   0.680
 4719WAT     H214400   0.579   4.842   0.551
 4720WAT      O14401   9.277   5.253   2.917
 4720WAT     H114402   9.366   5.274   2.877
 4720WAT     H214403   9.270   5.155   2.933
 4721WAT      O14404   7.766   0.232   4.040
 4721WAT     H114405   7.786   0.145   3.995
 4721WAT     H214406   7.838   0.298   4.018
 4722WAT      O14407   2.337   6.440   6.014
 4722WAT     H114408   2.253   6.479   5.977
 4722WAT     H214409   2.384   6.509   6.069
 4723WAT      O14410   7.869   2.649   9.781
 4723WAT     H114411   7.832   2.575   9.725
 4723WAT     H214412   7.915   2.716   9.723
 4724WAT      O14413   1.709   5.699   9.715
 4724WAT     H114414   1.650   5.625   9.746
 4724WAT     H214415   1.691   5.781   9.770
 4725WAT      O14416   7.644   0.259   0.015
 4725WAT     H114417   7.635   0.358   0.017
 4725WAT     H214418   7.565   0.218  -0.031
 4726WAT      O14419   5.552   4.410   1.262
 4726WAT     H114420   5.570   4.337   1.196
 4726WAT     H214421   5.636   4.461   1.279
 4727WAT      O14422   6.030   1.948   9.605
 4727WAT     H114423   6.071   1.869   9.559
 4727WAT     H214424   6.059   2.032   9.560
 4728WAT      O14425   6.855   5.039   1.717
 4728WAT     H114426   6.854   4.944   1.685
 4728WAT     H214427   6.762   5.067   1.743
 4729WAT      O14428   2.503   3.888   9.445
 4729WAT     H114429   2.563   3.932   9.378
 4729WAT     H214430   2.529   3.916   9.537
 4730WAT      O14431   0.735   1.436   9.215
 4730WAT     H114432   0.691   1.483   9.138
 4730WAT     H214433   0.779   1.352   9.182
 4731WAT      O14434   0.452   2.149   1.762
 4731WAT     H114435   0.423   2.126   1.855
 4731WAT     H214436   0.459   2.066   1.707
 4732WAT      O14437   7.912   9.466   0.394
 4732WAT     H114438   7.935   9.466   0.491
 4732WAT     H214439   7.993   9.490   0.341
 4733WAT      O14440   6.671   7.563   6.940
 4733WAT     H114441   6.611   7.544   7.018
 4733WAT     H214442   6.753   7.506   6.947
 4734WAT      O14443   5.763   9.151   7.775
 4734WAT     H114444   5.782   9.054   7.763
 4734WAT     H214445   5.687   9.178   7.716
 4735WAT      O14446   0.957   9.788   7.991
 4735WAT     H114447   0.942   9.756   7.897
 4735WAT     H214448   1.055   9.795   8.008
 4736WAT      O14449   0.957   0.364   0.716
 4736WAT     H114450   0.906   0.448   0.697
 4736WAT     H214451   0.990   0.324   0.630
 4737WAT      O14452   6.705   5.347   4.857
 4737WAT     H114453   6.658   5.294   4.786
 4737WAT     H214454   6.803   5.347   4.840
 4738WAT      O14455   8.623   2.756   9.749
 4738WAT     H114456   8.719   2.767   9.774
 4738WAT     H214457   8.590   2.667   9.780
 4739WAT      O14458   0.891   5.214   2.664
 4739WAT     H114459   0.919   5.178   2.753
 4739WAT     H214460   0.972   5.228   2.607
 4740WAT      O14461   8.155   5.009   8.523
 4740WAT     H114462   8.103   5.083   8.565
 4740WAT     H214463   8.108   4.922   8.539
 4741WAT      O14464   7.762   4.642   3.310
 4741WAT     H114465   7.851   4.652   3.356
 4741WAT     H214466   7.717   4.731   3.306
 4742WAT      O14467   8.377   7.200   4.155
 4742WAT     H114468   8.430   7.116   4.168
 4742WAT     H214469   8.320   7.191   4.074
 4743WAT      O14470   8.106   3.977   8.466
 4743WAT     H114471   8.121   3.899   8.527
 4743WAT     H214472   8.064   3.945   8.381
 4744WAT      O14473   4.439   5.226   3.377
 4744WAT     H114474   4.454   5.153   3.311
 4744WAT     H214475   4.398   5.305   3.331
 4745WAT      O14476   8.864   0.178   1.070
 4745WAT     H114477   8.890   0.115   0.997
 4745WAT     H214478   8.902   0.146   1.157
 4746WAT      O14479   3.861   4.079   3.760
 4746WAT     H114480   3.769   4.078   3.801
 4746WAT     H214481   3.924   4.126   3.821
 4747WAT      O14482   0.533   8.810   4.754
 4747WAT     H114483   0.579   8.827   4.841
 4747WAT     H214484   0.463   8.739   4.766
 4748WAT      O14485   0.583   6.279   6.814
 4748WAT     H114486   0.556   6.224   6.734
 4748WAT     H214487   0.642   6.354   6.784
 4749WAT      O14488   0.264   9.785   9.127
 4749WAT     H114489   0.323   9.770   9.048
 4749WAT     H214490   0.206   9.865   9.111
 4750WAT      O14491   5.317   7.921   2.360
 4750WAT     H114492   5.384   7.964   2.300
 4750WAT     H214493   5.243   7.882   2.305
 4751WAT      O14494   3.011   1.589   2.226
 4751WAT     H114495   2.940   1.541   2.278
 4751WAT     H214496   3.007   1.561   2.130
 4752WAT      O14497   1.714   8.410   9.292
 4752WAT     H114498   1.706   8.344   9.218
 4752WAT     H214499   1.749   8.365   9.374
 4753WAT      O14500   5.844   7.601   0.419
 4753WAT     H114501   5.884   7.573   0.332
 4753WAT     H214502   5.915   7.639   0.479
 4754WAT      O14503   3.765   2.300   0.788
 4754WAT     H114504   3.827   2.282   0.711
 4754WAT     H214505   3.716   2.216   0.811
 4755WAT      O14506   9.060   2.938   7.919
 4755WAT     H114507   9.083   2.954   7.823
 4755WAT     H214508   9.116   2.863   7.954
 4756WAT      O14509   4.878   9.595   8.709
 4756WAT     H114510   4.978   9.588   8.699
 4756WAT     H214511   4.837   9.614   8.620
 4757WAT      O14512   8.189   7.843   5.336
 4757WAT     H114513   8.198   7.845   5.237
 4757WAT     H214514   8.229   7.927   5.375
 4758WAT      O14515   1.137   3.396   5.963
 4758WAT     H114516   1.052   3.359   5.925
 4758WAT     H214517   1.195   3.322   5.994
 4759WAT      O14518   0.149   3.528   4.923
 4759WAT     H114519   0.245   3.556   4.920
 4759WAT     H214520   0.117   3.509   4.830
 4760WAT      O14521   4.393   0.030   8.904
 4760WAT     H114522   4.465   0.078   8.954
 4760WAT     H214523   4.433  -0.026   8.832
 4761WAT      O14524   8.029   5.274   5.950
 4761WAT     H114525   8.054   5.354   5.896
 4761WAT     H214526   8.107   5.245   6.005
 4762WAT      O14527   1.710   4.248   0.503
 4762WAT     H114528   1.619   4.209   0.497
 4762WAT     H214529   1.774   4.180   0.538
 4763WAT      O14530   4.572   5.605   3.650
 4763WAT     H114531   4.633   5.668   3.698
 4763WAT     H214532   4.621   5.519   3.631
 4764WAT      O14533   7.873   5.046   0.414
 4764WAT     H114534   7.941   5.110   0.451
 4764WAT     H214535   7.863   5.060   0.316
 4765WAT      O14536   6.463   1.865   0.876
 4765WAT     H114537   6.489   1.874   0.780
 4765WAT     H214538   6.541   1.887   0.934
 4766WAT      O14539   1.463   4.254   6.425
 4766WAT     H114540   1.537   4.198   6.388
 4766WAT     H214541   1.400   4.280   6.351
 4767WAT      O14542   9.449   5.941   2.735
 4767WAT     H114543   9.516   5.902   2.673
 4767WAT     H214544   9.461   5.902   2.826
 4768WAT      O14545   2.969   1.055   0.685
 4768WAT     H114546   2.971   1.018   0.592
 4768WAT     H214547   3.054   1.102   0.705
 4769WAT      O14548   0.448   9.193   6.910
 4769WAT     H114549   0.426   9.243   6.994
 4769WAT     H214550   0.364   9.161   6.867
 4770WAT      O14551   6.024   7.913   7.281
 4770WAT     H114552   6.106   7.881   7.234
 4770WAT     H214553   6.011   7.860   7.365
 4771WAT      O14554   1.440   2.302   6.630
 4771WAT     H114555   1.532   2.284   6.596
 4771WAT     H214556   1.423   2.249   6.713
 4772WAT      O14557   1.792   0.743   5.398
 4772WAT     H114558   1.852   0.754   5.476
 4772WAT     H214559   1.836   0.781   5.316
 4773WAT      O14560   2.104   7.979   6.514
 4773WAT     H114561   2.149   7.890   6.511
 4773WAT     H214562   2.166   8.048   6.476
 4774WAT      O14563   9.029   4.623   4.156
 4774WAT     H114564   8.972   4.702   4.134
 4774WAT     H214565   9.080   4.642   4.240
 4775WAT      O14566   9.449   4.093   0.364
 4775WAT     H114567   9.352   4.104   0.339
 4775WAT     H214568   9.500   4.174   0.336
 4776WAT      O14569   7.623   8.342   5.760
 4776WAT     H114570   7.695   8.302   5.816
 4776WAT     H214571   7.573   8.410   5.813
 4777WAT      O14572   1.818   8.643   5.531
 4777WAT     H114573   1.737   8.693   5.499
 4777WAT     H214574   1.789   8.567   5.589
 4778WAT      O14575   9.720   1.065   1.409
 4778WAT     H114576   9.748   1.088   1.316
 4778WAT     H214577   9.646   1.125   1.438
 4779WAT      O14578   9.186   3.984   7.863
 4779WAT     H114579   9.268   4.036   7.840
 4779WAT     H214580   9.152   3.938   7.781
 4780WAT      O14581   9.387   0.040   0.285
 4780WAT     H114582   9.388   0.058   0.186
 4780WAT     H214583   9.294   0.047   0.319
 4781WAT      O14584   5.151   6.938   0.961
 4781WAT     H114585   5.092   7.003   0.913
 4781WAT     H214586   5.099   6.893   1.033
 4782WAT      O14587   8.002   2.064   1.367
 4782WAT     H114588   8.048   2.046   1.280
 4782WAT     H214589   7.922   2.121   1.351
 4783WAT      O14590   2.175   9.746   2.826
 4783WAT     H114591   2.247   9.716   2.763
 4783WAT     H214592   2.218   9.784   2.909
 4784WAT      O14593   8.488   3.279   6.317
 4784WAT     H114594   8.391   3.277   6.342
 4784WAT     H214595   8.524   3.186   6.319
 4785WAT      O14596   4.319   7.246   6.092
 4785WAT     H114597   4.253   7.210   6.158
 4785WAT     H214598   4.394   7.290   6.140
 4786WAT      O14599   4.845   1.101   8.367
 4786WAT     H114600   4.904   1.182   8.376
 4786WAT     H214601   4.751   1.130   8.351
 4787WAT      O14602   9.396   6.337   5.363
 4787WAT     H114603   9.494   6.316   5.366
 4787WAT     H214604   9.358   6.329   5.454
 4788WAT      O14605   8.096   4.772   4.723
 4788WAT     H114606   8.072   4.692   4.668
 4788WAT     H214607   8.041   4.850   4.692
 4789WAT      O14608   3.813   2.055   6.042
 4789WAT     H114609   3.857   2.092   6.124
 4789WAT     H214610   3.714   2.069   6.049
 4790WAT      O14611   4.576   8.386   1.403
 4790WAT     H114612   4.611   8.295   1.421
 4790WAT     H214613   4.494   8.380   1.346
 4791WAT      O14614   0.543   1.823   9.161
 4791WAT     H114615   0.462   1.764   9.162
 4791WAT     H214616   0.606   1.792   9.090
 4792WAT      O14617   9.237   3.934   3.007
 4792WAT     H114618   9.319   3.948   2.951
 4792WAT     H214619   9.198   4.023   3.030
 4793WAT      O14620   1.230   1.573   2.750
 4793WAT     H114621   1.149   1.550   2.804
 4793WAT     H214622   1.217   1.663   2.709
 4794WAT      O14623   7.832   1.147   9.798
 4794WAT     H114624   7.768   1.084   9.841
 4794WAT     H214625   7.922   1.105   9.791
 4795WAT      O14626   8.900   8.818   3.328
 4795WAT     H114627   8.993   8.826   3.365
 4795WAT     H214628   8.848   8.751   3.380
 4796WAT      O14629   4.605   4.151   4.990
 4796WAT     H114630   4.543   4.219   4.950
 4796WAT     H214631   4.636   4.089   4.918
 4797WAT      O14632   0.186   0.130   1.783
 4797WAT     H114633   0.121   0.186   1.835
 4797WAT     H214634   0.176   0.035   1.810
 4798WAT      O14635   8.491   7.464   9.182
 4798WAT     H114636   8.519   7.386   9.238
 4798WAT     H214637   8.427   7.520   9.233
 4799WAT      O14638   8.092   4.676   8.877
 4799WAT     H114639   8.123   4.588   8.841
 4799WAT     H214640   7.994   4.670   8.897
 4800WAT      O14641   2.775   9.410   2.594
 4800WAT     H114642   2.701   9.418   2.661
 4800WAT     H214643   2.853   9.364   2.635
 4801WAT      O14644   0.383   4.259   8.109
 4801WAT     H114645   0.462   4.309   8.074
 4801WAT     H214646   0.303   4.318   8.107
 4802WAT      O14647   0.480   5.512   7.769
 4802WAT     H114648   0.417   5.444   7.731
 4802WAT     H214649   0.570   5.503   7.726
 4803WAT      O14650   8.561   3.955   8.962
 4803WAT     H114651   8.609   3.939   9.049
 4803WAT     H214652   8.488   4.022   8.975
 4804WAT      O14653   7.789   9.038   6.154
 4804WAT     H114654   7.868   9.079   6.199
 4804WAT     H214655   7.750   9.103   6.089
 4805WAT      O14656   9.332   3.494   1.550
 4805WAT     H114657   9.329   3.528   1.644
 4805WAT     H214658   9.410   3.535   1.502
 4806WAT      O14659   0.922   9.070   4.152
 4806WAT     H114660   0.929   8.995   4.086
 4806WAT     H214661   0.878   9.148   4.110
 4807WAT      O14662   4.189   1.030   6.247
 4807WAT     H114663   4.165   0.933   6.245
 4807WAT     H214664   4.106   1.085   6.247
 4808WAT      O14665   4.221   0.388   8.555
 4808WAT     H114666   4.256   0.331   8.629
 4808WAT     H214667   4.153   0.453   8.591
 4809WAT      O14668   5.588   2.480   5.055
 4809WAT     H114669   5.585   2.574   5.090
 4809WAT     H214670   5.681   2.460   5.022
 4810WAT      O14671   8.272   5.944   6.325
 4810WAT     H114672   8.214   5.862   6.324
 4810WAT     H214673   8.221   6.019   6.366
 4811WAT      O14674   0.917   9.770   7.718
 4811WAT     H114675   0.939   9.766   7.620
 4811WAT     H214676   0.923   9.865   7.749
 4812WAT      O14677   3.303   4.786   3.997
 4812WAT     H114678   3.372   4.734   4.048
 4812WAT     H214679   3.292   4.746   3.906
 4813WAT      O14680   0.405   0.176   0.792
 4813WAT     H114681   0.475   0.228   0.743
 4813WAT     H214682   0.316   0.220   0.779
 4814WAT      O14683   9.285   8.766   8.872
 4814WAT     H114684   9.231   8.805   8.947
 4814WAT     H214685   9.375   8.741   8.906
 4815WAT      O14686   4.199   8.870   3.236
 4815WAT     H114687   4.116   8.898   3.189
 4815WAT     H214688   4.204   8.771   3.239
 4816WAT      O14689   3.305   3.225   6.024
 4816WAT     H114690   3.215   3.207   6.064
 4816WAT     H214691   3.322   3.324   6.025
 4817WAT      O14692   1.287   2.058   0.548
 4817WAT     H114693   1.214   2.121   0.520
 4817WAT     H214694   1.374   2.108   0.549
 4818WAT      O14695   5.629   8.997   3.802
 4818WAT     H114696   5.722   9.015   3.768
 4818WAT     H214697   5.625   9.019   3.899
 4819WAT      O14698   8.738   7.540   6.168
 4819WAT     H114699   8.687   7.557   6.253
 4819WAT     H214700   8.828   7.583   6.174
 4820WAT      O14701   4.614   0.407   9.052
 4820WAT     H114702   4.706   0.415   9.091
 4820WAT     H214703   4.596   0.485   8.993
 4821WAT      O14704   5.039   2.952   1.994
 4821WAT     H114705   5.120   2.908   1.956
 4821WAT     H214706   4.962   2.941   1.931
 4822WAT      O14707   4.494   4.036   6.374
 4822WAT     H114708   4.556   3.997   6.441
 4822WAT     H214709   4.495   4.136   6.381
 4823WAT      O14710   3.896   7.889   2.564
 4823WAT     H114711   3.977   7.918   2.514
 4823WAT     H214712   3.883   7.948   2.644
 4824WAT      O14713   7.278   3.321   6.301
 4824WAT     H114714   7.362   3.308   6.354
 4824WAT     H214715   7.199   3.321   6.363
 4825WAT      O14716   9.106   9.799   9.333
 4825WAT     H114717   9.201   9.830   9.331
 4825WAT     H214718   9.044   9.878   9.337
 4826WAT      O14719   0.843   6.934   2.099
 4826WAT     H114720   0.828   6.943   2.198
 4826WAT     H214721   0.790   7.003   2.051
 4827WAT      O14722   6.807   6.967   3.473
 4827WAT     H114723   6.799   6.868   3.485
 4827WAT     H214724   6.756   7.014   3.545
 4828WAT      O14725   2.418   1.947   7.998
 4828WAT     H114726   2.459   2.019   8.054
 4828WAT     H214727   2.461   1.859   8.021
 4829WAT      O14728   4.340   9.208   8.378
 4829WAT     H114729   4.258   9.157   8.402
 4829WAT     H214730   4.420   9.149   8.388
 4830WAT      O14731   0.045   1.411   4.261
 4830WAT     H114732  -0.046   1.440   4.290
 4830WAT     H214733   0.076   1.335   4.318
 4831WAT      O14734   1.844   3.835   2.110
 4831WAT     H114735   1.857   3.875   2.019
 4831WAT     H214736   1.930   3.794   2.141
 4832WAT      O14737   7.907   9.167   1.825
 4832WAT     H114738   7.870   9.234   1.890
 4832WAT     H214739   7.853   9.170   1.741
 4833WAT      O14740   7.122   9.171   8.161
 4833WAT     H114741   7.197   9.233   8.183
 4833WAT     H214742   7.037   9.207   8.198
 4834WAT      O14743   1.591   4.000   7.377
 4834WAT     H114744   1.514   4.063   7.371
 4834WAT     H214745   1.599   3.965   7.471
 4835WAT      O14746   2.801   8.537   6.406
 4835WAT     H114747   2.736   8.608   6.432
 4835WAT     H214748   2.886   8.549   6.457
 4836WAT      O14749   3.911   8.491   0.728
 4836WAT     H114750   3.823   8.457   0.760
 4836WAT     H214751   3.904   8.589   0.711
 4837WAT      O14752   6.836   5.234   0.409
 4837WAT     H114753   6.743   5.210   0.378
 4837WAT     H214754   6.844   5.333   0.417
 4838WAT      O14755   4.386   8.926   7.666
 4838WAT     H114756   4.406   9.003   7.606
 4838WAT     H214757   4.288   8.925   7.687
 4839WAT      O14758   6.755   2.251   4.720
 4839WAT     H114759   6.708   2.322   4.772
 4839WAT     H214760   6.837   2.290   4.677
 4840WAT      O14761   0.191   5.135   4.814
 4840WAT     H114762   0.288   5.111   4.807
 4840WAT     H214763   0.180   5.233   4.804
 4841WAT      O14764   7.010   0.936   2.426
 4841WAT     H114765   7.100   0.894   2.442
 4841WAT     H214766   6.986   0.927   2.329
 4842WAT      O14767   6.686   8.541   8.265
 4842WAT     H114768   6.669   8.503   8.174
 4842WAT     H214769   6.784   8.536   8.286
 4843WAT      O14770   5.824   6.376   9.705
 4843WAT     H114771   5.760   6.300   9.690
 4843WAT     H214772   5.835   6.427   9.620
 4844WAT      O14773   1.702   2.201   2.814
 4844WAT     H114774   1.737   2.290   2.843
 4844WAT     H214775   1.725   2.186   2.718
 4845WAT      O14776   6.530   7.163   4.317
 4845WAT     H114777   6.544   7.120   4.406
 4845WAT     H214778   6.580   7.111   4.247
 4846WAT      O14779   8.759   6.192   9.018
 4846WAT     H114780   8.764   6.291   9.033
 4846WAT     H214781   8.670   6.168   8.979
 4847WAT      O14782   0.993   1.126   3.149
 4847WAT     H114783   0.934   1.079   3.084
 4847WAT     H214784   0.944   1.203   3.190
 4848WAT      O14785   5.302   0.876   5.422
 4848WAT     H114786   5.336   0.816   5.349
 4848WAT     H214787   5.333   0.969   5.406
 4849WAT      O14788   6.447   1.768   2.529
 4849WAT     H114789   6.348   1.780   2.516
 4849WAT     H214790   6.472   1.673   2.512
 4850WAT      O14791   5.054   3.021   2.270
 4850WAT     H114792   5.059   3.027   2.170
 4850WAT     H214793   4.960   3.041   2.299
 4851WAT      O14794   5.283   6.100   7.467
 4851WAT     H114795   5.206   6.045   7.499
 4851WAT     H214796   5.369   6.056   7.492
 4852WAT      O14797   7.317   9.840   3.628
 4852WAT     H114798   7.367   9.766   3.672
 4852WAT     H214799   7.302   9.914   3.694
 4853WAT      O14800   1.686   7.894   8.611
 4853WAT     H114801   1.692   7.850   8.521
 4853WAT     H214802   1.749   7.971   8.614
 4854WAT      O14803   6.293   8.160   4.279
 4854WAT     H114804   6.193   8.151   4.271
 4854WAT     H214805   6.316   8.183   4.374
 4855WAT      O14806   9.462   7.977   0.940
 4855WAT     H114807   9.397   7.905   0.918
 4855WAT     H214808   9.519   7.948   1.018
 4856WAT      O14809   9.631   2.815   6.880
 4856WAT     H114810   9.650   2.836   6.784
 4856WAT     H214811   9.621   2.716   6.892
 4857WAT      O14812   4.859   0.215   4.951
 4857WAT     H114813   4.935   0.272   4.922
 4857WAT     H214814   4.777   0.238   4.899
 4858WAT      O14815   7.961   9.628   7.140
 4858WAT     H114816   7.882   9.602   7.196
 4858WAT     H214817   7.986   9.552   7.081
 4859WAT      O14818   3.097   2.603   2.346
 4859WAT     H114819   3.145   2.690   2.354
 4859WAT     H214820   3.004   2.613   2.381
 4860WAT      O14821   7.489   5.197   7.815
 4860WAT     H114822   7.462   5.143   7.895
 4860WAT     H214823   7.415   5.259   7.790
 4861WAT      O14824   1.808   4.120   5.812
 4861WAT     H114825   1.843   4.148   5.722
 4861WAT     H214826   1.718   4.078   5.802
 4862WAT      O14827   0.651   1.387   4.386
 4862WAT     H114828   0.686   1.338   4.466
 4862WAT     H214829   0.723   1.447   4.350
 4863WAT      O14830   1.292   1.762   7.724
 4863WAT     H114831   1.295   1.708   7.808
 4863WAT     H214832   1.204   1.809   7.717
 4864WAT      O14833   0.409   9.264   7.553
 4864WAT     H114834   0.406   9.200   7.476
 4864WAT     H214835   0.467   9.227   7.625
 4865WAT      O14836   1.953   5.857   7.188
 4865WAT     H114837   2.015   5.921   7.142
 4865WAT     H214838   2.004   5.806   7.257
 4866WAT      O14839   3.490   2.346   1.930
 4866WAT     H114840   3.570   2.354   1.990
 4866WAT     H214841   3.488   2.423   1.866
 4867WAT      O14842   8.597   0.250   2.329
 4867WAT     H114843   8.537   0.327   2.312
 4867WAT     H214844   8.611   0.240   2.428
 4868WAT      O14845   7.799   0.385   3.590
 4868WAT     H114846   7.864   0.400   3.515
 4868WAT     H214847   7.846   0.399   3.677
 4869WAT      O14848   1.499   0.243   9.012
 4869WAT     H114849   1.588   0.209   8.982
 4869WAT     H214850   1.437   0.167   9.026
 4870WAT      O14851   8.588   1.659   6.977
 4870WAT     H114852   8.675   1.625   6.942
 4870WAT     H214853   8.527   1.680   6.900
 4871WAT      O14854   0.544   6.705   5.591
 4871WAT     H114855   0.571   6.671   5.681
 4871WAT     H214856   0.520   6.802   5.597
 4872WAT      O14857   7.025   2.534   3.445
 4872WAT     H114858   7.080   2.568   3.369
 4872WAT     H214859   7.084   2.514   3.523
 4873WAT      O14860   6.933   1.248   4.025
 4873WAT     H114861   6.914   1.257   3.927
 4873WAT     H214862   6.848   1.259   4.076
 4874WAT      O14863   2.094   7.514   0.210
 4874WAT     H114864   2.009   7.564   0.197
 4874WAT     H214865   2.094   7.470   0.299
 4875WAT      O14866   1.172   5.648   2.739
 4875WAT     H114867   1.158   5.551   2.754
 4875WAT     H214868   1.085   5.697   2.750
 4876WAT      O14869   8.173   0.058   2.492
 4876WAT     H114870   8.109   0.103   2.430
 4876WAT     H214871   8.243   0.124   2.521
 4877WAT      O14872   0.103   8.031   9.692
 4877WAT     H114873   0.022   7.981   9.723
 4877WAT     H214874   0.182   7.970   9.690
 4878WAT      O14875   5.070   2.408   5.390
 4878WAT     H114876   5.119   2.416   5.477
 4878WAT     H214877   5.079   2.315   5.355
 4879WAT      O14878   1.343   1.520   4.559
 4879WAT     H114879   1.290   1.604   4.573
 4879WAT     H214880   1.369   1.482   4.648
 4880WAT      O14881   8.388   0.488   8.355
 4880WAT     H114882   8.442   0.404   8.367
 4880WAT     H214883   8.406   0.550   8.431
 4881WAT      O14884   1.920   5.143   0.249
 4881WAT     H114885   1.999   5.194   0.215
 4881WAT     H214886   1.909   5.158   0.347
 4882WAT      O14887   0.111   1.716   8.492
 4882WAT     H114888   0.026   1.663   8.494
 4882WAT     H214889   0.173   1.677   8.423
 4883WAT      O14890   3.932   5.771   2.494
 4883WAT     H114891   3.982   5.699   2.448
 4883WAT     H214892   3.949   5.858   2.447
 4884WAT      O14893   0.592   0.593   1.832
 4884WAT     H114894   0.633   0.511   1.871
 4884WAT     H214895   0.629   0.609   1.740
 4885WAT      O14896   2.534   7.991   3.069
 4885WAT     H114897   2.576   8.017   2.982
 4885WAT     H214898   2.448   8.039   3.081
 4886WAT      O14899   5.321   1.740   6.839
 4886WAT     H114900   5.357   1.701   6.754
 4886WAT     H214901   5.222   1.751   6.831
 4887WAT      O14902   8.768   9.106   6.471
 4887WAT     H114903   8.803   9.120   6.563
 4887WAT     H214904   8.676   9.145   6.464
 4888WAT      O14905   3.731   6.198   8.940
 4888WAT     H114906   3.658   6.153   8.991
 4888WAT     H214907   3.727   6.171   8.844
 4889WAT      O14908   4.241   3.834   6.874
 4889WAT     H114909   4.262   3.757   6.935
 4889WAT     H214910   4.270   3.811   6.781
 4890WAT      O14911   2.408   8.273   4.930
 4890WAT     H114912   2.484   8.235   4.878
 4890WAT     H214913   2.435   8.287   5.025
 4891WAT      O14914   1.248   9.564   8.236
 4891WAT     H114915   1.299   9.623   8.299
 4891WAT     H214916   1.311   9.522   8.171
 4892WAT      O14917   6.572   1.305   5.713
 4892WAT     H114918   6.666   1.310   5.681
 4892WAT     H214919   6.550   1.212   5.740
 4893WAT      O14920   1.894   8.664   4.131
 4893WAT     H114921   1.821   8.596   4.140
 4893WAT     H214922   1.903   8.715   4.217
 4894WAT      O14923   5.699   5.639   6.361
 4894WAT     H114924   5.779   5.600   6.314
 4894WAT     H214925   5.686   5.734   6.333
 4895WAT      O14926   6.748   6.107   3.671
 4895WAT     H114927   6.844   6.097   3.698
 4895WAT     H214928   6.744   6.134   3.575
 4896WAT      O14929   5.990   2.557   8.623
 4896WAT     H114930   6.054   2.529   8.694
 4896WAT     H214931   6.001   2.655   8.603
 4897WAT      O14932   5.882   4.836   4.714
 4897WAT     H114933   5.859   4.758   4.656
 4897WAT     H214934   5.963   4.815   4.769
 4898WAT      O14935   5.985   4.000   6.745
 4898WAT     H114936   5.895   4.028   6.780
 4898WAT     H214937   5.974   3.959   6.655
 4899WAT      O14938   7.775   0.686   4.712
 4899WAT     H114939   7.848   0.740   4.753
 4899WAT     H214940   7.699   0.677   4.777
 4900WAT      O14941   4.797   1.743   8.084
 4900WAT     H114942   4.831   1.773   7.994
 4900WAT     H214943   4.788   1.644   8.085
 4901WAT      O14944   4.069   4.472   9.391
 4901WAT     H114945   3.974   4.448   9.411
 4901WAT     H214946   4.081   4.479   9.292
 4902WAT      O14947   4.911   5.375   8.312
 4902WAT     H114948   4.822   5.398   8.352
 4902WAT     H214949   4.900   5.298   8.249
 4903WAT      O14950   0.992   3.258   9.038
 4903WAT     H114951   1.001   3.357   9.035
 4903WAT     H214952   0.946   3.231   9.122
 4904WAT      O14953   5.032   5.184   4.369
 4904WAT     H114954   5.129   5.164   4.353
 4904WAT     H214955   4.997   5.241   4.294
 4905WAT      O14956   7.177   4.168   0.665
 4905WAT     H114957   7.101   4.163   0.730
 4905WAT     H214958   7.160   4.241   0.599
 4906WAT      O14959   8.628   8.440   9.213
 4906WAT     H114960   8.654   8.350   9.248
 4906WAT     H214961   8.560   8.481   9.274
 4907WAT      O14962   4.957   6.663   3.254
 4907WAT     H114963   4.882   6.603   3.225
 4907WAT     H214964   4.919   6.749   3.287
 4908WAT      O14965   6.472   0.810   2.192
 4908WAT     H114966   6.514   0.892   2.232
 4908WAT     H214967   6.542   0.741   2.177
 4909WAT      O14968   0.715   0.439   0.434
 4909WAT     H114969   0.753   0.355   0.396
 4909WAT     H214970   0.617   0.443   0.413
 4910WAT      O14971   4.247   9.517   2.505
 4910WAT     H114972   4.331   9.558   2.541
 4910WAT     H214973   4.223   9.436   2.559
 4911WAT      O14974   6.682   1.194   9.444
 4911WAT     H114975   6.584   1.192   9.426
 4911WAT     H214976   6.698   1.234   9.535
 4912WAT      O14977   2.922   3.415   7.708
 4912WAT     H114978   2.945   3.344   7.775
 4912WAT     H214979   2.853   3.380   7.645
 4913WAT      O14980   9.168   7.386   1.670
 4913WAT     H114981   9.153   7.479   1.636
 4913WAT     H214982   9.162   7.387   1.770
 4914WAT      O14983   2.873   8.252   8.810
 4914WAT     H114984   2.837   8.242   8.717
 4914WAT     H214985   2.798   8.241   8.875
 4915WAT      O14986   1.311   7.459   9.131
 4915WAT     H114987   1.255   7.517   9.072
 4915WAT     H214988   1.345   7.513   9.208
 4916WAT      O14989   1.047   8.602   3.465
 4916WAT     H114990   0.950   8.584   3.480
 4916WAT     H214991   1.066   8.699   3.474
 4917WAT      O14992   6.027   8.895   9.588
 4917WAT     H114993   6.013   8.924   9.493
 4917WAT     H214994   6.111   8.936   9.623
 4918WAT      O14995   6.360   3.099   9.548
 4918WAT     H114996   6.432   3.041   9.509
 4918WAT     H214997   6.402   3.171   9.603
 4919WAT      O14998   7.952   4.359   7.323
 4919WAT     H114999   8.012   4.341   7.401
 4919WAT     H215000   8.007   4.374   7.241
 4920WAT      O15001   6.322   9.063   8.139
 4920WAT     H115002   6.375   9.143   8.110
 4920WAT     H215003   6.353   8.982   8.090
 4921WAT      O15004   1.358   2.539   6.736
 4921WAT     H115005   1.388   2.457   6.688
 4921WAT     H215006   1.348   2.614   6.670
 4922WAT      O15007   2.927   3.106   7.194
 4922WAT     H115008   2.967   3.189   7.153
 4922WAT     H215009   2.827   3.109   7.184
 4923WAT      O15010   3.549   7.246   1.000
 4923WAT     H115011   3.557   7.297   0.914
 4923WAT     H215012   3.452   7.237   1.024
 4924WAT      O15013   2.705   4.142   4.500
 4924WAT     H115014   2.741   4.093   4.579
 4924WAT     H215015   2.744   4.103   4.416
 4925WAT      O15016   3.407   5.417   0.942
 4925WAT     H115017   3.430   5.322   0.961
 4925WAT     H215018   3.430   5.473   1.022
 4926WAT      O15019   3.636   8.984   1.563
 4926WAT     H115020   3.693   9.064   1.581
 4926WAT     H215021   3.659   8.947   1.473
 4927WAT      O15022   2.119   7.561   6.729
 4927WAT     H115023   2.030   7.599   6.753
 4927WAT     H215024   2.164   7.620   6.663
 4928WAT      O15025   4.399   8.042   6.334
 4928WAT     H115026   4.482   7.989   6.321
 4928WAT     H215027   4.350   8.049   6.247
 4929WAT      O15028   4.621   4.857   6.993
 4929WAT     H115029   4.595   4.763   7.015
 4929WAT     H215030   4.553   4.919   7.031
 4930WAT      O15031   2.420   3.931   8.799
 4930WAT     H115032   2.398   4.028   8.811
 4930WAT     H215033   2.341   3.883   8.762
 4931WAT      O15034   1.513   9.539   4.669
 4931WAT     H115035   1.596   9.581   4.634
 4931WAT     H215036   1.531   9.499   4.759
 4932WAT      O15037   3.304   3.894   2.372
 4932WAT     H115038   3.345   3.869   2.459
 4932WAT     H215039   3.249   3.977   2.384
 4933WAT      O15040   6.015   9.017   4.476
 4933WAT     H115041   6.057   9.029   4.565
 4933WAT     H215042   6.005   9.106   4.431
 4934WAT      O15043   1.152   9.829   5.096
 4934WAT     H115044   1.164   9.794   5.189
 4934WAT     H215045   1.060   9.867   5.087
 4935WAT      O15046   4.973   8.293   7.211
 4935WAT     H115047   5.045   8.339   7.264
 4935WAT     H215048   4.891   8.283   7.268
 4936WAT      O15049   8.745   8.421   4.945
 4936WAT     H115050   8.752   8.359   5.024
 4936WAT     H215051   8.735   8.515   4.978
 4937WAT      O15052   7.335   7.130   9.241
 4937WAT     H115053   7.362   7.072   9.318
 4937WAT     H215054   7.412   7.140   9.178
 4938WAT      O15055   4.067   3.181   6.765
 4938WAT     H115056   4.095   3.261   6.713
 4938WAT     H215057   4.052   3.104   6.702
 4939WAT      O15058   2.631   1.914   1.686
 4939WAT     H115059   2.634   1.939   1.783
 4939WAT     H215060   2.717   1.941   1.642
 4940WAT      O15061   5.064   8.660   7.564
 4940WAT     H115062   5.062   8.561   7.572
 4940WAT     H215063   4.981   8.699   7.603
 4941WAT      O15064   2.007   0.878   6.650
 4941WAT     H115065   1.969   0.961   6.691
 4941WAT     H215066   2.099   0.863   6.685
 4942WAT      O15067   9.770   4.560   3.746
 4942WAT     H115068   9.674   4.544   3.726
 4942WAT     H215069   9.782   4.580   3.843
 4943WAT      O15070   0.667   5.875   9.071
 4943WAT     H115071   0.605   5.822   9.013
 4943WAT     H215072   0.696   5.819   9.148
 4944WAT      O15073   7.438   3.853   0.150
 4944WAT     H115074   7.435   3.902   0.237
 4944WAT     H215075   7.404   3.913   0.077
 4945WAT      O15076   4.074   3.749   2.018
 4945WAT     H115077   4.130   3.812   2.072
 4945WAT     H215078   4.091   3.765   1.920
 4946WAT      O15079   9.236   0.451   8.366
 4946WAT     H115080   9.230   0.544   8.402
 4946WAT     H215081   9.331   0.427   8.348
 4947WAT      O15082   9.000   8.835   7.619
 4947WAT     H115083   8.950   8.759   7.659
 4947WAT     H215084   9.060   8.875   7.687
 4948WAT      O15085   7.537   0.547   9.420
 4948WAT     H115086   7.531   0.638   9.378
 4948WAT     H215087   7.593   0.553   9.503
 4949WAT      O15088   6.630   1.027   8.528
 4949WAT     H115089   6.667   1.114   8.495
 4949WAT     H215090   6.532   1.022   8.506
 4950WAT      O15091   6.298   0.579   2.319
 4950WAT     H115092   6.201   0.586   2.293
 4950WAT     H215093   6.347   0.659   2.285
 4951WAT      O15094   0.911   4.085   9.549
 4951WAT     H115095   0.929   3.987   9.558
 4951WAT     H215096   0.993   4.131   9.514
 4952WAT      O15097   8.925   2.643   9.477
 4952WAT     H115098   8.857   2.598   9.419
 4952WAT     H215099   8.952   2.581   9.551
 4953WAT      O15100   8.771   4.859   8.158
 4953WAT     H115101   8.850   4.864   8.098
 4953WAT     H215102   8.708   4.789   8.125
 4954WAT      O15103   0.794   5.531   3.573
 4954WAT     H115104   0.766   5.438   3.597
 4954WAT     H215105   0.788   5.543   3.474
 4955WAT      O15106   1.170   1.390   1.397
 4955WAT     H115107   1.075   1.378   1.368
 4955WAT     H215108   1.194   1.487   1.392
 4956WAT      O15109   0.671   8.825   6.162
 4956WAT     H115110   0.695   8.895   6.228
 4956WAT     H215111   0.754   8.794   6.115
 4957WAT      O15112   0.827   7.637   3.825
 4957WAT     H115113   0.842   7.623   3.727
 4957WAT     H215114   0.745   7.588   3.854
 4958WAT      O15115   2.326   2.796   6.934
 4958WAT     H115116   2.265   2.725   6.970
 4958WAT     H215117   2.280   2.885   6.941
 4959WAT      O15118   3.505   5.295   4.066
 4959WAT     H115119   3.583   5.356   4.050
 4959WAT     H215120   3.488   5.289   4.164
 4960WAT      O15121   1.233   3.688   7.938
 4960WAT     H115122   1.256   3.757   8.006
 4960WAT     H215123   1.145   3.647   7.959
 4961WAT      O15124   1.645   2.106   8.462
 4961WAT     H115125   1.614   2.168   8.534
 4961WAT     H215126   1.661   2.158   8.378
 4962WAT      O15127   5.228   7.369   6.954
 4962WAT     H115128   5.287   7.393   7.031
 4962WAT     H215129   5.284   7.357   6.871
 4963WAT      O15130   0.462   1.550   4.923
 4963WAT     H115131   0.393   1.575   4.855
 4963WAT     H215132   0.548   1.528   4.876
 4964WAT      O15133   4.182   4.704   5.282
 4964WAT     H115134   4.167   4.623   5.339
 4964WAT     H215135   4.276   4.704   5.247
 4965WAT      O15136   1.337   3.214   3.381
 4965WAT     H115137   1.280   3.284   3.425
 4965WAT     H215138   1.377   3.252   3.298
 4966WAT      O15139   2.899   3.846   1.011
 4966WAT     H115140   2.800   3.833   1.004
 4966WAT     H215141   2.926   3.850   1.107
 4967WAT      O15142   8.764   5.927   2.361
 4967WAT     H115143   8.820   5.994   2.312
 4967WAT     H215144   8.821   5.875   2.424
 4968WAT      O15145   9.823   2.634   1.209
 4968WAT     H115146   9.880   2.666   1.134
 4968WAT     H215147   9.782   2.546   1.184
 4969WAT      O15148   4.655   4.147   6.624
 4969WAT     H115149   4.571   4.192   6.652
 4969WAT     H215150   4.716   4.139   6.703
 4970WAT      O15151   9.363   8.192   7.917
 4970WAT     H115152   9.343   8.255   7.841
 4970WAT     H215153   9.314   8.106   7.903
 4971WAT      O15154   4.855   5.932   5.073
 4971WAT     H115155   4.803   5.990   5.135
 4971WAT     H215156   4.944   5.910   5.113
 4972WAT      O15157   9.836   9.694   3.410
 4972WAT     H115158   9.816   9.746   3.493
 4972WAT     H215159   9.906   9.742   3.356
 4973WAT      O15160   4.910   9.404   6.697
 4973WAT     H115161   4.963   9.350   6.631
 4973WAT     H215162   4.860   9.476   6.648
 4974WAT      O15163   2.834   9.700   2.757
 4974WAT     H115164   2.912   9.685   2.696
 4974WAT     H215165   2.863   9.684   2.851
 4975WAT      O15166   4.098   5.694   7.720
 4975WAT     H115167   4.189   5.722   7.691
 4975WAT     H215168   4.044   5.775   7.744
 4976WAT      O15169   7.193   2.589   4.977
 4976WAT     H115170   7.240   2.656   4.920
 4976WAT     H215171   7.249   2.506   4.985
 4977WAT      O15172   9.832   2.920   6.087
 4977WAT     H115173   9.769   2.956   6.018
 4977WAT     H215174   9.795   2.936   6.178
 4978WAT      O15175   2.587   3.282   0.073
 4978WAT     H115176   2.666   3.224   0.092
 4978WAT     H215177   2.590   3.314  -0.022
 4979WAT      O15178   8.623   8.106   2.854
 4979WAT     H115179   8.615   8.028   2.791
 4979WAT     H215180   8.626   8.072   2.948
 4980WAT      O15181   3.503   8.764   2.665
 4980WAT     H115182   3.583   8.807   2.706
 4980WAT     H215183   3.456   8.709   2.734
 4981WAT      O15184   6.081   3.074   8.267
 4981WAT     H115185   6.096   2.979   8.292
 4981WAT     H215186   6.086   3.084   8.168
 4982WAT      O15187   1.304   0.333   8.853
 4982WAT     H115188   1.324   0.404   8.786
 4982WAT     H215189   1.379   0.327   8.919
 4983WAT      O15190   8.048   1.762   5.897
 4983WAT     H115191   7.991   1.819   5.956
 4983WAT     H215192   8.028   1.665   5.915
 4984WAT      O15193   1.729   6.456   3.090
 4984WAT     H115194   1.751   6.362   3.116
 4984WAT     H215195   1.746   6.468   2.993
 4985WAT      O15196   3.868   3.140   8.682
 4985WAT     H115197   3.912   3.213   8.734
 4985WAT     H215198   3.823   3.178   8.601
 4986WAT      O15199   2.201   3.674   8.059
 4986WAT     H115200   2.219   3.577   8.044
 4986WAT     H215201   2.252   3.706   8.139
 4987WAT      O15202   8.453   3.657   0.374
 4987WAT     H115203   8.503   3.583   0.330
 4987WAT     H215204   8.363   3.624   0.405
 4988WAT      O15205   0.933   3.648   6.385
 4988WAT     H115206   1.015   3.692   6.423
 4988WAT     H215207   0.955   3.605   6.298
 4989WAT      O15208   5.305   7.093   6.420
 4989WAT     H115209   5.331   7.180   6.462
 4989WAT     H215210   5.285   7.026   6.492
 4990WAT      O15211   9.776   6.884   2.318
 4990WAT     H115212   9.794   6.982   2.311
 4990WAT     H215213   9.824   6.836   2.245
 4991WAT      O15214   3.710   1.055   1.343
 4991WAT     H115215   3.708   1.134   1.404
 4991WAT     H215216   3.755   1.080   1.257
 4992WAT      O15217   5.161   7.602   7.428
 4992WAT     H115218   5.220   7.636   7.501
 4992WAT     H215219   5.199   7.630   7.339
 4993WAT      O15220   2.073   3.248   3.904
 4993WAT     H115221   2.025   3.332   3.880
 4993WAT     H215222   2.016   3.169   3.878
 4994WAT      O15223   7.464   8.060   3.746
 4994WAT     H115224   7.386   8.004   3.773
 4994WAT     H215225   7.433   8.154   3.730
 4995WAT      O15226   3.647   8.644   0.649
 4995WAT     H115227   3.629   8.688   0.562
 4995WAT     H215228   3.735   8.675   0.686
 4996WAT      O15229   5.045   8.506   1.880
 4996WAT     H115230   5.023   8.417   1.920
 4996WAT     H215231   5.123   8.496   1.818
 4997WAT      O15232   6.010   2.829   1.976
 4997WAT     H115233   6.077   2.761   1.945
 4997WAT     H215234   6.058   2.909   2.011
 4998WAT      O15235   7.687   3.449   9.333
 4998WAT     H115236   7.596   3.484   9.310
 4998WAT     H215237   7.717   3.385   9.263
 4999WAT      O15238   0.802   8.193   7.346
 4999WAT     H115239   0.764   8.264   7.405
 4999WAT     H215240   0.778   8.212   7.251
 5000WAT      O15241   0.066   8.895   8.039
 5000WAT     H115242  -0.030   8.876   8.019
 5000WAT     H215243   0.075   8.988   8.075
 5001WAT      O15244   3.896   8.469   8.237
 5001WAT     H115245   3.919   8.463   8.334
 5001WAT     H215246   3.963   8.419   8.184
 5002WAT      O15247   9.258   4.365   0.554
 5002WAT     H115248   9.352   4.366   0.587
 5002WAT     H215249   9.227   4.459   0.537
 5003WAT      O15250   3.405   4.058   0.395
 5003WAT     H115251   3.423   4.138   0.337
 5003WAT     H215252   3.389   3.978   0.337
 5004WAT      O15253   5.145   3.081   2.685
 5004WAT     H115254   5.200   3.136   2.748
 5004WAT     H215255   5.106   3.139   2.615
 5005WAT      O15256   7.607   8.596   6.798
 5005WAT     H115257   7.590   8.500   6.819
 5005WAT     H215258   7.603   8.610   6.699
 5006WAT      O15259   2.384   8.680   0.318
 5006WAT     H115260   2.286   8.668   0.335
 5006WAT     H215261   2.401   8.682   0.220
 5007WAT      O15262   2.008   3.633   9.065
 5007WAT     H115263   2.002   3.722   9.021
 5007WAT     H215264   2.044   3.566   9.000
 5008WAT      O15265   7.463   3.592   9.052
 5008WAT     H115266   7.437   3.550   9.139
 5008WAT     H215267   7.561   3.583   9.039
 5009WAT      O15268   2.841   8.810   0.656
 5009WAT     H115269   2.851   8.718   0.618
 5009WAT     H215270   2.752   8.819   0.701
 5010WAT      O15271   2.666   5.519   6.387
 5010WAT     H115272   2.688   5.617   6.385
 5010WAT     H215273   2.568   5.507   6.376
 5011WAT      O15274   4.986   1.635   4.535
 5011WAT     H115275   5.070   1.645   4.587
 5011WAT     H215276   4.916   1.695   4.572
 5012WAT      O15277   4.997   0.027   9.289
 5012WAT     H115278   5.059  -0.028   9.232
 5012WAT     H215279   4.980  -0.022   9.375
 5013WAT      O15280   9.604   3.858   0.408
 5013WAT     H115281   9.593   3.838   0.506
 5013WAT     H215282   9.577   3.953   0.391
 5014WAT      O15283   2.042   2.549   4.825
 5014WAT     H115284   2.002   2.623   4.772
 5014WAT     H215285   2.138   2.538   4.799
 5015WAT      O15286   0.405   8.522   7.671
 5015WAT     H115287   0.497   8.541   7.636
 5015WAT     H215288   0.411   8.495   7.768
 5016WAT      O15289   5.829   1.370   6.749
 5016WAT     H115290   5.802   1.301   6.817
 5016WAT     H215291   5.870   1.324   6.671
 5017WAT      O15292   6.688   4.256   2.853
 5017WAT     H115293   6.755   4.193   2.814
 5017WAT     H215294   6.729   4.305   2.930
 5018WAT      O15295   8.466   5.483   2.997
 5018WAT     H115296   8.420   5.541   3.064
 5018WAT     H215297   8.404   5.410   2.967
 5019WAT      O15298   2.499   7.684   2.263
 5019WAT     H115299   2.461   7.637   2.183
 5019WAT     H215300   2.598   7.679   2.261
 5020WAT      O15301   0.213   0.587   3.740
 5020WAT     H115302   0.208   0.677   3.783
 5020WAT     H215303   0.267   0.525   3.797
 5021WAT      O15304   6.999   8.097   5.692
 5021WAT     H115305   6.920   8.040   5.711
 5021WAT     H215306   7.074   8.040   5.657
 5022WAT      O15307   6.266   0.524   9.285
 5022WAT     H115308   6.291   0.568   9.372
 5022WAT     H215309   6.339   0.540   9.218
 5023WAT      O15310   3.968   5.200   7.974
 5023WAT     H115311   3.960   5.229   7.878
 5023WAT     H215312   4.064   5.203   8.001
 5024WAT      O15313   1.162   2.588   8.301
 5024WAT     H115314   1.128   2.546   8.217
 5024WAT     H215315   1.237   2.533   8.338
 5025WAT      O15316   1.139   6.632   2.475
 5025WAT     H115317   1.207   6.698   2.441
 5025WAT     H215318   1.144   6.548   2.420
 5026WAT      O15319   6.516   9.834   6.939
 5026WAT     H115320   6.551   9.819   7.032
 5026WAT     H215321   6.553   9.764   6.878
 5027WAT      O15322   9.835   4.021   1.289
 5027WAT     H115323   9.756   4.082   1.276
 5027WAT     H215324   9.812   3.931   1.253
 5028WAT      O15325   8.783   0.911   1.354
 5028WAT     H115326   8.840   0.987   1.323
 5028WAT     H215327   8.829   0.865   1.431
 5029WAT      O15328   5.259   0.975   3.737
 5029WAT     H115329   5.228   0.994   3.830
 5029WAT     H215330   5.271   0.877   3.724
 5030WAT      O15331   2.796   8.110   0.855
 5030WAT     H115332   2.841   8.050   0.789
 5030WAT     H215333   2.734   8.057   0.912
 5031WAT      O15334   9.772   2.461   3.445
 5031WAT     H115335   9.733   2.553   3.447
 5031WAT     H215336   9.712   2.400   3.394
 5032WAT      O15337   1.454   3.070   7.957
 5032WAT     H115338   1.461   3.155   8.009
 5032WAT     H215339   1.406   3.088   7.871
 5033WAT      O15340   7.049   7.825   6.188
 5033WAT     H115341   6.956   7.810   6.155
 5033WAT     H215342   7.106   7.746   6.166
 5034WAT      O15343   7.225   0.685   0.167
 5034WAT     H115344   7.222   0.785   0.165
 5034WAT     H215345   7.279   0.652   0.089
 5035WAT      O15346   2.349   7.729   0.260
 5035WAT     H115347   2.411   7.654   0.282
 5035WAT     H215348   2.262   7.692   0.228
 5036WAT      O15349   2.303   2.436   5.466
 5036WAT     H115350   2.393   2.476   5.448
 5036WAT     H215351   2.310   2.336   5.460
 5037WAT      O15352   2.017   4.686   4.187
 5037WAT     H115353   1.919   4.686   4.204
 5037WAT     H215354   2.034   4.662   4.091
 5038WAT      O15355   0.463   2.779   6.480
 5038WAT     H115356   0.533   2.789   6.550
 5038WAT     H215357   0.391   2.717   6.513
 5039WAT      O15358   3.635   8.480   7.853
 5039WAT     H115359   3.713   8.543   7.852
 5039WAT     H215360   3.587   8.487   7.941
 5040WAT      O15361   0.608   4.284   6.040
 5040WAT     H115362   0.708   4.277   6.046
 5040WAT     H215363   0.572   4.325   6.124
 5041WAT      O15364   2.970   8.846   2.252
 5041WAT     H115365   2.937   8.913   2.319
 5041WAT     H215366   3.070   8.845   2.253
 5042WAT      O15367   8.093   9.139   0.153
 5042WAT     H115368   8.053   9.224   0.119
 5042WAT     H215369   8.115   9.148   0.250
 5043WAT      O15370   3.679   5.100   7.540
 5043WAT     H115371   3.614   5.157   7.489
 5043WAT     H215372   3.766   5.097   7.492
 5044WAT      O15373   8.544   3.175   5.918
 5044WAT     H115374   8.450   3.140   5.911
 5044WAT     H215375   8.543   3.264   5.963
 5045WAT      O15376   6.116   9.700   7.388
 5045WAT     H115377   6.051   9.746   7.327
 5045WAT     H215378   6.099   9.729   7.483
 5046WAT      O15379   1.946   1.977   4.815
 5046WAT     H115380   1.856   1.996   4.775
 5046WAT     H215381   2.011   2.047   4.787
 5047WAT      O15382   0.588   7.798   7.195
 5047WAT     H115383   0.680   7.758   7.187
 5047WAT     H215384   0.569   7.852   7.113
 5048WAT      O15385   5.539   8.628   5.125
 5048WAT     H115386   5.554   8.529   5.126
 5048WAT     H215387   5.456   8.648   5.073
 5049WAT      O15388   4.496   2.365   7.168
 5049WAT     H115389   4.480   2.346   7.072
 5049WAT     H215390   4.489   2.281   7.221
 5050WAT      O15391   3.554   8.305   5.601
 5050WAT     H115392   3.492   8.357   5.660
 5050WAT     H215393   3.555   8.209   5.631
 5051WAT      O15394   0.897   7.305   4.882
 5051WAT     H115395   0.804   7.270   4.875
 5051WAT     H215396   0.960   7.228   4.895
 5052WAT      O15397   6.599   4.312   6.610
 5052WAT     H115398   6.626   4.408   6.610
 5052WAT     H215399   6.571   4.285   6.518
 5053WAT      O15400   2.168   5.724   4.510
 5053WAT     H115401   2.147   5.702   4.605
 5053WAT     H215402   2.265   5.749   4.502
 5054WAT      O15403   6.485   3.639   3.426
 5054WAT     H115404   6.481   3.563   3.361
 5054WAT     H215405   6.393   3.663   3.456
 5055WAT      O15406   3.045   9.121   7.627
 5055WAT     H115407   3.078   9.067   7.704
 5055WAT     H215408   2.968   9.177   7.656
 5056WAT      O15409   9.274   1.903   1.377
 5056WAT     H115410   9.346   1.858   1.431
 5056WAT     H215411   9.220   1.834   1.330
 5057WAT      O15412   4.420   4.489   8.756
 5057WAT     H115413   4.425   4.429   8.835
 5057WAT     H215414   4.335   4.542   8.759
 5058WAT      O15415   3.200   1.748   1.740
 5058WAT     H115416   3.106   1.740   1.709
 5058WAT     H215417   3.254   1.796   1.671
 5059WAT      O15418   6.263   9.662   0.737
 5059WAT     H115419   6.228   9.604   0.811
 5059WAT     H215420   6.191   9.722   0.704
 5060WAT      O15421   1.959   5.724   9.898
 5060WAT     H115422   1.908   5.726   9.812
 5060WAT     H215423   2.050   5.763   9.884
 5061WAT      O15424   8.826   1.366   2.073
 5061WAT     H115425   8.842   1.437   2.140
 5061WAT     H215426   8.911   1.316   2.056
 5062WAT      O15427   3.759   7.868   9.763
 5062WAT     H115428   3.712   7.937   9.818
 5062WAT     H215429   3.814   7.810   9.824
 5063WAT      O15430   1.887   2.322   4.079
 5063WAT     H115431   1.906   2.406   4.129
 5063WAT     H215432   1.863   2.249   4.143
 5064WAT      O15433   5.484   0.547   0.440
 5064WAT     H115434   5.524   0.473   0.494
 5064WAT     H215435   5.385   0.545   0.449
 5065WAT      O15436   7.920   7.552   4.221
 5065WAT     H115437   7.853   7.580   4.289
 5065WAT     H215438   7.894   7.464   4.182
 5066WAT      O15439   5.137   2.334   9.874
 5066WAT     H115440   5.214   2.270   9.877
 5066WAT     H215441   5.081   2.315   9.793
 5067WAT      O15442   4.859   7.286   5.529
 5067WAT     H115443   4.946   7.239   5.543
 5067WAT     H215444   4.855   7.322   5.436
 5068WAT      O15445   8.198   5.085   1.266
 5068WAT     H115446   8.161   5.015   1.206
 5068WAT     H215447   8.219   5.045   1.356
 5069WAT      O15448   1.034   9.208   9.547
 5069WAT     H115449   0.961   9.264   9.510
 5069WAT     H215450   0.997   9.145   9.615
 5070WAT      O15451   1.664   8.446   7.406
 5070WAT     H115452   1.612   8.370   7.443
 5070WAT     H215453   1.636   8.531   7.452
 5071WAT      O15454   0.986   0.206   4.296
 5071WAT     H115455   0.963   0.165   4.208
 5071WAT     H215456   0.998   0.134   4.364
 5072WAT      O15457   7.774   5.475   0.423
 5072WAT     H115458   7.725   5.441   0.343
 5072WAT     H215459   7.711   5.527   0.481
 5073WAT      O15460   0.396   5.693   2.745
 5073WAT     H115461   0.380   5.636   2.825
 5073WAT     H215462   0.350   5.653   2.666
 5074WAT      O15463   2.071   2.713   5.083
 5074WAT     H115464   2.045   2.681   4.992
 5074WAT     H215465   2.118   2.641   5.132
 5075WAT      O15466   7.097   7.693   8.953
 5075WAT     H115467   6.997   7.689   8.955
 5075WAT     H215468   7.134   7.654   9.037
 5076WAT      O15469   7.107   0.541   0.576
 5076WAT     H115470   7.191   0.580   0.616
 5076WAT     H215471   7.121   0.525   0.479
 5077WAT      O15472   4.727   3.659   3.692
 5077WAT     H115473   4.656   3.671   3.761
 5077WAT     H215474   4.686   3.625   3.607
 5078WAT      O15475   4.230   9.576   3.198
 5078WAT     H115476   4.182   9.544   3.280
 5078WAT     H215477   4.327   9.551   3.205
 5079WAT      O15478   2.153   0.380   4.297
 5079WAT     H115479   2.164   0.311   4.225
 5079WAT     H215480   2.225   0.367   4.366
 5080WAT      O15481   7.120   9.012   8.994
 5080WAT     H115482   7.119   8.912   8.989
 5080WAT     H215483   7.035   9.048   8.956
 5081WAT      O15484   3.996   1.648   0.901
 5081WAT     H115485   3.904   1.615   0.880
 5081WAT     H215486   3.994   1.699   0.987
 5082WAT      O15487   9.617   0.684   6.855
 5082WAT     H115488   9.578   0.702   6.765
 5082WAT     H215489   9.717   0.681   6.848
 5083WAT      O15490   1.957   1.036   2.195
 5083WAT     H115491   1.862   1.023   2.223
 5083WAT     H215492   1.960   1.083   2.107
 5084WAT      O15493   2.953   9.626   1.408
 5084WAT     H115494   2.875   9.679   1.442
 5084WAT     H215495   2.996   9.676   1.333
 5085WAT      O15496   8.016   1.934   4.032
 5085WAT     H115497   7.974   1.967   3.948
 5085WAT     H215498   7.948   1.884   4.086
 5086WAT      O15499   4.043   3.451   2.039
 5086WAT     H115500   4.012   3.545   2.053
 5086WAT     H215501   4.067   3.410   2.127
 5087WAT      O15502   0.852   2.831   4.038
 5087WAT     H115503   0.759   2.854   4.068
 5087WAT     H215504   0.848   2.789   3.948
 5088WAT      O15505   9.112   8.937   5.255
 5088WAT     H115506   9.017   8.924   5.284
 5088WAT     H215507   9.174   8.907   5.328
 5089WAT      O15508   1.884   4.384   7.132
 5089WAT     H115509   1.843   4.312   7.187
 5089WAT     H215510   1.978   4.358   7.107
 5090WAT      O15511   1.888   8.419   5.252
 5090WAT     H115512   1.890   8.322   5.225
 5090WAT     H215513   1.847   8.473   5.179
 5091WAT      O15514   3.779   3.707   9.666
 5091WAT     H115515   3.757   3.664   9.579
 5091WAT     H215516   3.721   3.669   9.738
 5092WAT      O15517   0.756   0.397   1.943
 5092WAT     H115518   0.720   0.306   1.962
 5092WAT     H215519   0.856   0.394   1.941
 5093WAT      O15520   4.145   8.422   7.890
 5093WAT     H115521   4.244   8.425   7.876
 5093WAT     H215522   4.098   8.418   7.802
 5094WAT      O15523   3.599   3.236   4.327
 5094WAT     H115524   3.579   3.285   4.412
 5094WAT     H215525   3.689   3.265   4.293
 5095WAT      O15526   3.743   6.895   2.056
 5095WAT     H115527   3.749   6.969   2.124
 5095WAT     H215528   3.667   6.913   1.994
 5096WAT      O15529   4.740   5.459   8.925
 5096WAT     H115530   4.714   5.500   9.012
 5096WAT     H215531   4.784   5.371   8.942
 5097WAT      O15532   4.933   8.004   1.806
 5097WAT     H115533   5.005   8.025   1.873
 5097WAT     H215534   4.896   7.913   1.825
 5098WAT      O15535   7.357   7.515   8.132
 5098WAT     H115536   7.259   7.522   8.151
 5098WAT     H215537   7.405   7.587   8.181
 5099WAT      O15538   7.519   0.899   3.311
 5099WAT     H115539   7.492   0.829   3.245
 5099WAT     H215540   7.618   0.893   3.327
 5100WAT      O15541   2.546   1.298   9.151
 5100WAT     H115542   2.549   1.391   9.115
 5100WAT     H215543   2.546   1.302   9.251
 5101WAT      O15544   0.998   3.657   1.955
 5101WAT     H115545   0.984   3.568   1.998
 5101WAT     H215546   1.095   3.679   1.955
 5102WAT      O15547   4.373   5.656   8.730
 5102WAT     H115548   4.347   5.734   8.787
 5102WAT     H215549   4.338   5.572   8.772
 5103WAT      O15550   9.109   0.832   9.167
 5103WAT     H115551   9.181   0.857   9.102
 5103WAT     H215552   9.076   0.739   9.147
 5104WAT      O15553   6.740   0.071   2.196
 5104WAT     H115554   6.683   0.144   2.159
 5104WAT     H215555   6.787   0.103   2.278
 5105WAT      O15556   8.723   0.024   8.179
 5105WAT     H115557   8.739   0.070   8.267
 5105WAT     H215558   8.699   0.092   8.110
 5106WAT      O15559   7.032   4.452   4.227
 5106WAT     H115560   7.007   4.356   4.230
 5106WAT     H215561   7.106   4.465   4.161
 5107WAT      O15562   2.083   4.677   2.064
 5107WAT     H115563   2.046   4.768   2.042
 5107WAT     H215564   2.140   4.684   2.146
 5108WAT      O15565   0.735   1.885   3.122
 5108WAT     H115566   0.766   1.795   3.093
 5108WAT     H215567   0.648   1.877   3.172
 5109WAT      O15568   0.656   6.809   9.286
 5109WAT     H115569   0.580   6.831   9.225
 5109WAT     H215570   0.742   6.828   9.239
 5110WAT      O15571   8.537   8.101   4.477
 5110WAT     H115572   8.619   8.058   4.515
 5110WAT     H215573   8.559   8.143   4.388
 5111WAT      O15574   4.032   9.679   2.352
 5111WAT     H115575   4.014   9.759   2.409
 5111WAT     H215576   4.104   9.623   2.394
 5112WAT      O15577   5.097   5.895   5.202
 5112WAT     H115578   5.154   5.971   5.170
 5112WAT     H215579   5.153   5.813   5.209
 5113WAT      O15580   4.507   5.490   4.163
 5113WAT     H115581   4.434   5.557   4.174
 5113WAT     H215582   4.560   5.512   4.081
 5114WAT      O15583   0.999   5.843   3.380
 5114WAT     H115584   1.030   5.934   3.407
 5114WAT     H215585   0.899   5.839   3.386
 5115WAT      O15586   8.375   4.890   1.791
 5115WAT     H115587   8.434   4.815   1.761
 5115WAT     H215588   8.432   4.970   1.812
 5116WAT      O15589   1.388   4.881   4.483
 5116WAT     H115590   1.309   4.927   4.524
 5116WAT     H215591   1.467   4.941   4.489
 5117WAT      O15592   7.541   1.181   5.586
 5117WAT     H115593   7.570   1.128   5.665
 5117WAT     H215594   7.444   1.202   5.594
 5118WAT      O15595   2.327   4.973   8.446
 5118WAT     H115596   2.244   4.972   8.390
 5118WAT     H215597   2.404   5.004   8.391
 5119WAT      O15598   6.718   6.109   3.386
 5119WAT     H115599   6.801   6.085   3.336
 5119WAT     H215600   6.639   6.072   3.337
 5120WAT      O15601   6.530   6.046   4.330
 5120WAT     H115602   6.476   6.124   4.299
 5120WAT     H215603   6.624   6.076   4.349
 5121WAT      O15604   9.554   1.450   3.694
 5121WAT     H115605   9.535   1.470   3.790
 5121WAT     H215606   9.473   1.471   3.639
 5122WAT      O15607   8.073   3.087   8.559
 5122WAT     H115608   8.060   2.999   8.604
 5122WAT     H215609   8.154   3.132   8.597
 5123WAT      O15610   7.375   2.222   9.806
 5123WAT     H115611   7.305   2.280   9.847
 5123WAT     H215612   7.401   2.257   9.717
 5124WAT      O15613   6.857   8.348   6.319
 5124WAT     H115614   6.909   8.424   6.357
 5124WAT     H215615   6.867   8.348   6.219
 5125WAT      O15616   8.717   5.812   5.039
 5125WAT     H115617   8.705   5.897   5.090
 5125WAT     H215618   8.677   5.736   5.090
 5126WAT      O15619   5.820   8.898   1.146
 5126WAT     H115620   5.765   8.961   1.091
 5126WAT     H215621   5.778   8.807   1.144
 5127WAT      O15622   3.270   1.151   8.686
 5127WAT     H115623   3.176   1.158   8.718
 5127WAT     H215624   3.307   1.061   8.712
 5128WAT      O15625   5.004   6.317   7.173
 5128WAT     H115626   5.073   6.356   7.233
 5128WAT     H215627   5.029   6.334   7.077
 5129WAT      O15628   6.999   1.381   9.137
 5129WAT     H115629   6.948   1.444   9.195
 5129WAT     H215630   7.025   1.300   9.190
 5130WAT      O15631   6.595   6.921   6.363
 5130WAT     H115632   6.497   6.937   6.379
 5130WAT     H215633   6.637   7.006   6.331
 5131WAT      O15634   7.983   8.532   7.659
 5131WAT     H115635   8.074   8.508   7.692
 5131WAT     H215636   7.972   8.631   7.660
 5132WAT      O15637   8.966   0.485   2.306
 5132WAT     H115638   8.933   0.514   2.396
 5132WAT     H215639   8.950   0.387   2.295
 5133WAT      O15640   4.134   7.073   0.433
 5133WAT     H115641   4.152   7.091   0.530
 5133WAT     H215642   4.149   7.157   0.380
 5134WAT      O15643   3.200   7.063   2.050
 5134WAT     H115644   3.195   7.123   1.970
 5134WAT     H215645   3.244   7.111   2.125
 5135WAT      O15646   0.368   4.615   7.040
 5135WAT     H115647   0.289   4.675   7.030
 5135WAT     H215648   0.355   4.556   7.119
 5136WAT      O15649   5.037   1.275   7.841
 5136WAT     H115650   5.056   1.247   7.936
 5136WAT     H215651   4.972   1.212   7.800
 5137WAT      O15652   4.141   7.298   4.903
 5137WAT     H115653   4.108   7.385   4.866
 5137WAT     H215654   4.094   7.278   4.989
 5138WAT      O15655   7.153   3.304   9.313
 5138WAT     H115656   7.134   3.291   9.411
 5138WAT     H215657   7.073   3.344   9.269
 5139WAT      O15658   9.787   5.706   3.209
 5139WAT     H115659   9.733   5.787   3.230
 5139WAT     H215660   9.726   5.633   3.178
 5140WAT      O15661   7.985   2.123   5.059
 5140WAT     H115662   7.990   2.165   5.150
 5140WAT     H215663   7.950   2.029   5.068
 5141WAT      O15664   3.362   4.321   0.682
 5141WAT     H115665   3.291   4.346   0.616
 5141WAT     H215666   3.374   4.221   0.682
 5142WAT      O15667   8.519   3.317   9.838
 5142WAT     H115668   8.466   3.297   9.755
 5142WAT     H215669   8.604   3.265   9.836
 5143WAT      O15670   3.497   5.200   4.618
 5143WAT     H115671   3.463   5.110   4.646
 5143WAT     H215672   3.595   5.194   4.598
 5144WAT      O15673   5.072   4.175   4.547
 5144WAT     H115674   5.088   4.106   4.477
 5144WAT     H215675   5.072   4.266   4.505
 5145WAT      O15676   3.018   1.154   8.827
 5145WAT     H115677   2.990   1.229   8.888
 5145WAT     H215678   2.995   1.067   8.869
 5146WAT      O15679   8.308   9.627   1.591
 5146WAT     H115680   8.405   9.650   1.600
 5146WAT     H215681   8.297   9.556   1.521
 5147WAT      O15682   7.255   2.292   1.127
 5147WAT     H115683   7.165   2.295   1.171
 5147WAT     H215684   7.249   2.239   1.043
 5148WAT      O15685   4.505   3.914   1.966
 5148WAT     H115686   4.598   3.905   2.000
 5148WAT     H215687   4.463   3.824   1.959
 5149WAT      O15688   8.058   2.848   4.557
 5149WAT     H115689   8.133   2.865   4.494
 5149WAT     H215690   8.059   2.753   4.586
 5150WAT      O15691   3.526   6.965   2.366
 5150WAT     H115692   3.502   6.903   2.440
 5150WAT     H215693   3.456   7.036   2.358
 5151WAT      O15694   5.852   1.806   2.473
 5151WAT     H115695   5.877   1.729   2.533
 5151WAT     H215696   5.864   1.779   2.378
 5152WAT      O15697   5.162   4.148   0.539
 5152WAT     H115698   5.136   4.236   0.580
 5152WAT     H215699   5.240   4.162   0.478
 5153WAT      O15700   2.491   3.314   5.216
 5153WAT     H115701   2.441   3.229   5.234
 5153WAT     H215702   2.456   3.386   5.276
 5154WAT      O15703   0.449   0.585   6.499
 5154WAT     H115704   0.507   0.588   6.417
 5154WAT     H215705   0.353   0.590   6.472
 5155WAT      O15706   3.701   7.418   9.295
 5155WAT     H115707   3.748   7.344   9.248
 5155WAT     H215708   3.766   7.492   9.314
 5156WAT      O15709   0.870   7.484   9.729
 5156WAT     H115710   0.839   7.391   9.709
 5156WAT     H215711   0.790   7.543   9.741
 5157WAT      O15712   4.181   3.741   0.986
 5157WAT     H115713   4.179   3.833   0.947
 5157WAT     H215714   4.109   3.732   1.054
 5158WAT      O15715   5.465   8.336   0.866
 5158WAT     H115716   5.508   8.299   0.784
 5158WAT     H215717   5.495   8.283   0.946
 5159WAT      O15718   7.616   0.829   5.953
 5159WAT     H115719   7.549   0.758   5.973
 5159WAT     H215720   7.663   0.856   6.037
 5160WAT      O15721   5.496   6.002   6.008
 5160WAT     H115722   5.471   6.082   6.062
 5160WAT     H215723   5.570   6.025   5.946
 5161WAT      O15724   1.577   1.028   6.011
 5161WAT     H115725   1.497   1.078   6.045
 5161WAT     H215726   1.601   1.060   5.920
 5162WAT      O15727   5.939   5.890   6.445
 5162WAT     H115728   5.980   5.970   6.402
 5162WAT     H215729   5.952   5.810   6.386
 5163WAT      O15730   7.457   3.230   1.841
 5163WAT     H115731   7.457   3.222   1.940
 5163WAT     H215732   7.458   3.327   1.815
 5164WAT      O15733   2.648   2.297   5.760
 5164WAT     H115734   2.609   2.207   5.738
 5164WAT     H215735   2.698   2.332   5.681
 5165WAT      O15736   1.695   4.249   5.225
 5165WAT     H115737   1.629   4.284   5.159
 5165WAT     H215738   1.783   4.296   5.212
 5166WAT      O15739   7.496   9.116   9.883
 5166WAT     H115740   7.455   9.193   9.836
 5166WAT     H215741   7.549   9.061   9.818
 5167WAT      O15742   4.769   2.110   1.646
 5167WAT     H115743   4.810   2.113   1.555
 5167WAT     H215744   4.819   2.045   1.703
 5168WAT      O15745   1.924   5.631   3.418
 5168WAT     H115746   2.024   5.634   3.419
 5168WAT     H215747   1.889   5.689   3.345
 5169WAT      O15748   5.209   7.042   9.230
 5169WAT     H115749   5.283   7.092   9.275
 5169WAT     H215750   5.122   7.084   9.253
 5170WAT      O15751   8.434   5.229   2.181
 5170WAT     H115752   8.399   5.307   2.233
 5170WAT     H215753   8.391   5.227   2.090
 5171WAT      O15754   7.720   6.251   5.024
 5171WAT     H115755   7.684   6.333   5.069
 5171WAT     H215756   7.810   6.271   4.987
 5172WAT      O15757   4.321   5.968   7.284
 5172WAT     H115758   4.385   6.002   7.216
 5172WAT     H215759   4.286   6.045   7.338
 5173WAT      O15760   2.638   5.956   2.163
 5173WAT     H115761   2.584   5.988   2.241
 5173WAT     H215762   2.579   5.953   2.082
 5174WAT      O15763   2.178   3.891   7.874
 5174WAT     H115764   2.182   3.971   7.933
 5174WAT     H215765   2.179   3.807   7.929
 5175WAT      O15766   4.470   7.590   9.633
 5175WAT     H115767   4.459   7.596   9.733
 5175WAT     H215768   4.544   7.651   9.604
 5176WAT      O15769   5.072   0.090   6.637
 5176WAT     H115770   5.082   0.127   6.544
 5176WAT     H215771   4.989   0.128   6.678
 5177WAT      O15772   8.455   8.713   1.900
 5177WAT     H115773   8.536   8.734   1.955
 5177WAT     H215774   8.383   8.677   1.959
 5178WAT      O15775   4.054   0.756   1.279
 5178WAT     H115776   4.033   0.663   1.249
 5178WAT     H215777   4.110   0.753   1.362
 5179WAT      O15778   7.273   6.332   6.055
 5179WAT     H115779   7.275   6.260   5.986
 5179WAT     H215780   7.183   6.376   6.055
 5180WAT      O15781   0.683   4.311   4.488
 5180WAT     H115782   0.737   4.335   4.569
 5180WAT     H215783   0.605   4.255   4.516
 5181WAT      O15784   8.484   4.718   2.759
 5181WAT     H115785   8.479   4.680   2.851
 5181WAT     H215786   8.532   4.805   2.761
 5182WAT      O15787   4.785   1.667   6.971
 5182WAT     H115788   4.788   1.568   6.988
 5182WAT     H215789   4.776   1.716   7.057
 5183WAT      O15790   2.640   4.330   6.265
 5183WAT     H115791   2.708   4.373   6.324
 5183WAT     H215792   2.657   4.356   6.170
 5184WAT      O15793   2.072   8.887   0.268
 5184WAT     H115794   2.149   8.854   0.213
 5184WAT     H215795   2.028   8.964   0.223
 5185WAT      O15796   8.751   7.164   0.245
 5185WAT     H115797   8.761   7.187   0.342
 5185WAT     H215798   8.832   7.195   0.195
 5186WAT      O15799   3.106   0.693   4.981
 5186WAT     H115800   3.107   0.621   4.912
 5186WAT     H215801   3.024   0.684   5.038
 5187WAT      O15802   1.754   3.324   8.310
 5187WAT     H115803   1.682   3.390   8.330
 5187WAT     H215804   1.815   3.361   8.239
 5188WAT      O15805   8.391   4.303   3.482
 5188WAT     H115806   8.453   4.226   3.467
 5188WAT     H215807   8.297   4.271   3.482
 5189WAT      O15808   7.461   7.898   0.106
 5189WAT     H115809   7.439   7.966   0.035
 5189WAT     H215810   7.439   7.807   0.071
 5190WAT      O15811   8.809   3.570   2.694
 5190WAT     H115812   8.885   3.511   2.719
 5190WAT     H215813   8.747   3.579   2.773
 5191WAT      O15814   7.854   2.941   9.231
 5191WAT     H115815   7.902   2.936   9.143
 5191WAT     H215816   7.819   3.033   9.244
 5192WAT      O15817   0.928   9.279   3.065
 5192WAT     H115818   0.884   9.359   3.105
 5192WAT     H215819   1.023   9.275   3.095
 5193WAT      O15820   8.650   7.215   8.585
 5193WAT     H115821   8.576   7.248   8.526
 5193WAT     H215822   8.728   7.279   8.579
 5194WAT      O15823   0.120   3.742   1.447
 5194WAT     H115824   0.167   3.813   1.394
 5194WAT     H215825   0.123   3.656   1.396
 5195WAT      O15826   1.886   5.890   6.321
 5195WAT     H115827   1.832   5.973   6.333
 5195WAT     H215828   1.957   5.887   6.391
 5196WAT      O15829   2.210   0.750   4.337
 5196WAT     H115830   2.241   0.738   4.243
 5196WAT     H215831   2.143   0.680   4.360
 5197WAT      O15832   5.819   4.315   5.694
 5197WAT     H115833   5.775   4.228   5.716
 5197WAT     H215834   5.786   4.348   5.605
 5198WAT      O15835   8.005   7.522   7.996
 5198WAT     H115836   8.037   7.458   7.927
 5198WAT     H215837   7.913   7.554   7.972
 5199WAT      O15838   4.298   6.231   7.434
 5199WAT     H115839   4.366   6.199   7.500
 5199WAT     H215840   4.344   6.281   7.361
 5200WAT      O15841   0.892   6.868   7.855
 5200WAT     H115842   0.801   6.901   7.830
 5200WAT     H215843   0.910   6.781   7.809
 5201WAT      O15844   9.703   4.730   2.189
 5201WAT     H115845   9.800   4.729   2.164
 5201WAT     H215846   9.648   4.714   2.108
 5202WAT      O15847   7.355   9.474   4.807
 5202WAT     H115848   7.300   9.414   4.749
 5202WAT     H215849   7.318   9.567   4.804
 5203WAT      O15850   1.787   3.359   1.553
 5203WAT     H115851   1.738   3.406   1.480
 5203WAT     H215852   1.851   3.293   1.514
 5204WAT      O15853   5.422   1.076   5.990
 5204WAT     H115854   5.520   1.084   6.010
 5204WAT     H215855   5.386   0.994   6.034
 5205WAT      O15856   7.574   9.396   2.080
 5205WAT     H115857   7.553   9.330   2.153
 5205WAT     H215858   7.537   9.361   1.994
 5206WAT      O15859   0.605   4.979   0.823
 5206WAT     H115860   0.532   4.930   0.870
 5206WAT     H215861   0.676   5.006   0.889
 5207WAT      O15862   6.298   7.889   2.341
 5207WAT     H115863   6.276   7.852   2.431
 5207WAT     H215864   6.215   7.925   2.298
 5208WAT      O15865   9.423   6.294   0.366
 5208WAT     H115866   9.471   6.262   0.285
 5208WAT     H215867   9.399   6.391   0.355
 5209WAT      O15868   7.278   0.992   6.302
 5209WAT     H115869   7.214   0.988   6.379
 5209WAT     H215870   7.356   0.932   6.321
 5210WAT      O15871   4.358   6.382   2.035
 5210WAT     H115872   4.435   6.365   1.973
 5210WAT     H215873   4.393   6.417   2.123
 5211WAT      O15874   4.912   7.060   8.766
 5211WAT     H115875   4.927   6.993   8.693
 5211WAT     H215876   4.917   7.015   8.855
 5212WAT      O15877   8.637   6.193   2.999
 5212WAT     H115878   8.548   6.218   3.037
 5212WAT     H215879   8.709   6.245   3.046
 5213WAT      O15880   7.024   7.531   5.525
 5213WAT     H115881   6.979   7.448   5.495
 5213WAT     H215882   6.970   7.574   5.598
 5214WAT      O15883   0.712   4.370   8.010
 5214WAT     H115884   0.776   4.414   8.073
 5214WAT     H215885   0.692   4.431   7.934
 5215WAT      O15886   3.754   3.715   0.909
 5215WAT     H115887   3.697   3.775   0.964
 5215WAT     H215888   3.743   3.739   0.812
 5216WAT      O15889   3.482   6.371   7.762
 5216WAT     H115890   3.513   6.458   7.723
 5216WAT     H215891   3.502   6.369   7.860
 5217WAT      O15892   6.106   8.655   9.019
 5217WAT     H115893   6.027   8.711   8.992
 5217WAT     H215894   6.074   8.565   9.049
 5218WAT      O15895   3.926   9.573   7.414
 5218WAT     H115896   4.013   9.580   7.365
 5218WAT     H215897   3.889   9.664   7.430
 5219WAT      O15898   4.705   2.064   8.720
 5219WAT     H115899   4.790   2.107   8.750
 5219WAT     H215900   4.665   2.012   8.796
 5220WAT      O15901   9.066   9.250   9.227
 5220WAT     H115902   9.062   9.181   9.299
 5220WAT     H215903   9.093   9.338   9.266
 5221WAT      O15904   4.306   6.813   7.478
 5221WAT     H115905   4.313   6.833   7.380
 5221WAT     H215906   4.325   6.896   7.530
 5222WAT      O15907   6.715   6.626   5.303
 5222WAT     H115908   6.734   6.683   5.223
 5222WAT     H215909   6.797   6.619   5.359
 5223WAT      O15910   6.077   8.199   3.294
 5223WAT     H115911   6.031   8.259   3.228
 5223WAT     H215912   6.163   8.242   3.323
 5224WAT      O15913   1.399   3.072   4.977
 5224WAT     H115914   1.440   2.981   4.976
 5224WAT     H215915   1.443   3.129   4.907
 5225WAT      O15916   5.009   1.940   6.767
 5225WAT     H115917   5.011   1.860   6.828
 5225WAT     H215918   5.101   1.958   6.733
 5226WAT      O15919   1.589   4.319   6.657
 5226WAT     H115920   1.536   4.314   6.572
 5226WAT     H215921   1.617   4.228   6.684
 5227WAT      O15922   0.744   8.855   4.239
 5227WAT     H115923   0.803   8.934   4.255
 5227WAT     H215924   0.671   8.854   4.308
 5228WAT      O15925   1.643   9.133   5.698
 5228WAT     H115926   1.731   9.093   5.672
 5228WAT     H215927   1.643   9.230   5.675
 5229WAT      O15928   1.819   6.792   5.247
 5229WAT     H115929   1.913   6.790   5.279
 5229WAT     H215930   1.773   6.872   5.285
 5230WAT      O15931   0.659   4.271   7.344
 5230WAT     H115932   0.641   4.325   7.262
 5230WAT     H215933   0.577   4.218   7.367
 5231WAT      O15934   3.834   9.297   3.799
 5231WAT     H115935   3.742   9.329   3.772
 5231WAT     H215936   3.879   9.370   3.851
 5232WAT      O15937   1.680   1.245   4.314
 5232WAT     H115938   1.613   1.296   4.370
 5232WAT     H215939   1.638   1.220   4.227
 5233WAT      O15940   3.394   7.299   7.476
 5233WAT     H115941   3.473   7.353   7.504
 5233WAT     H215942   3.413   7.202   7.491
 5234WAT      O15943   4.136   5.349   1.122
 5234WAT     H115944   4.049   5.315   1.085
 5234WAT     H215945   4.121   5.439   1.163
 5235WAT      O15946   1.653   9.039   3.584
 5235WAT     H115947   1.578   8.973   3.588
 5235WAT     H215948   1.703   9.038   3.670
 5236WAT      O15949   6.395   8.101   5.366
 5236WAT     H115950   6.416   8.198   5.371
 5236WAT     H215951   6.365   8.069   5.456
 5237WAT      O15952   1.275   0.920   5.514
 5237WAT     H115953   1.366   0.920   5.472
 5237WAT     H215954   1.210   0.872   5.455
 5238WAT      O15955   0.235   1.191   2.767
 5238WAT     H115956   0.178   1.208   2.847
 5238WAT     H215957   0.284   1.274   2.742
 5239WAT      O15958   9.283   5.635   6.177
 5239WAT     H115959   9.261   5.606   6.271
 5239WAT     H215960   9.380   5.656   6.171
 5240WAT      O15961   2.605   6.341   4.840
 5240WAT     H115962   2.662   6.418   4.871
 5240WAT     H215963   2.563   6.364   4.753
 5241WAT      O15964   2.874   9.160   7.224
 5241WAT     H115965   2.798   9.133   7.165
 5241WAT     H215966   2.948   9.093   7.218
 5242WAT      O15967   4.310   5.462   3.294
 5242WAT     H115968   4.285   5.479   3.199
 5242WAT     H215969   4.231   5.478   3.353
 5243WAT      O15970   0.331   3.121   8.767
 5243WAT     H115971   0.300   3.074   8.684
 5243WAT     H215972   0.394   3.061   8.817
 5244WAT      O15973   2.278   2.194   0.798
 5244WAT     H115974   2.207   2.129   0.823
 5244WAT     H215975   2.249   2.287   0.824
 5245WAT      O15976   8.900   2.532   0.871
 5245WAT     H115977   8.993   2.568   0.874
 5245WAT     H215978   8.870   2.525   0.776
 5246WAT      O15979   6.300   0.340   8.787
 5246WAT     H115980   6.322   0.390   8.703
 5246WAT     H215981   6.378   0.342   8.848
 5247WAT      O15982   3.773   8.305   7.200
 5247WAT     H115983   3.707   8.345   7.264
 5247WAT     H215984   3.824   8.232   7.246
 5248WAT      O15985   5.366   9.135   1.055
 5248WAT     H115986   5.396   9.214   1.109
 5248WAT     H215987   5.275   9.153   1.019
 5249WAT      O15988   5.494   9.781   8.687
 5249WAT     H115989   5.474   9.717   8.613
 5249WAT     H215990   5.451   9.870   8.667
 5250WAT      O15991   6.597   6.496   1.657
 5250WAT     H115992   6.557   6.543   1.579
 5250WAT     H215993   6.527   6.480   1.726
 5251WAT      O15994   4.197   3.247   0.963
 5251WAT     H115995   4.264   3.285   0.899
 5251WAT     H215996   4.243   3.228   1.051
 5252WAT      O15997   8.805   8.951   7.238
 5252WAT     H115998   8.824   8.958   7.140
 5252WAT     H215999   8.892   8.947   7.288
 5253WAT      O16000   0.574   3.913   4.956
 5253WAT     H116001   0.568   3.824   4.910
 5253WAT     H216002   0.517   3.979   4.909
 5254WAT      O16003   3.849   6.150   1.253
 5254WAT     H116004   3.749   6.138   1.254
 5254WAT     H216005   3.871   6.236   1.207
 5255WAT      O16006   0.586   4.957   4.281
 5255WAT     H116007   0.567   4.899   4.202
 5255WAT     H216008   0.597   5.052   4.252
 5256WAT      O16009   8.824   4.741   0.216
 5256WAT     H116010   8.855   4.786   0.300
 5256WAT     H216011   8.782   4.653   0.240
 5257WAT      O16012   0.189   7.911   0.443
 5257WAT     H116013   0.182   7.933   0.346
 5257WAT     H216014   0.121   7.842   0.467
 5258WAT      O16015   2.282   8.594   2.668
 5258WAT     H116016   2.297   8.618   2.764
 5258WAT     H216017   2.197   8.636   2.636
 5259WAT      O16018   4.183   8.716   8.328
 5259WAT     H116019   4.238   8.632   8.321
 5259WAT     H216020   4.228   8.781   8.389
 5260WAT      O16021   4.928   1.176   4.259
 5260WAT     H116022   4.838   1.192   4.220
 5260WAT     H216023   4.956   1.082   4.241
 5261WAT      O16024   5.130   6.402   4.207
 5261WAT     H116025   5.181   6.328   4.162
 5261WAT     H216026   5.080   6.455   4.138
 5262WAT      O16027   5.933   1.781   0.304
 5262WAT     H116028   5.900   1.844   0.234
 5262WAT     H216029   5.981   1.832   0.375
 5263WAT      O16030   0.417   8.589   2.490
 5263WAT     H116031   0.333   8.635   2.518
 5263WAT     H216032   0.407   8.490   2.503
 5264WAT      O16033   5.231   0.723   8.483
 5264WAT     H116034   5.183   0.795   8.532
 5264WAT     H216035   5.230   0.639   8.537
 5265WAT      O16036   9.254   1.685   8.496
 5265WAT     H116037   9.231   1.589   8.511
 5265WAT     H216038   9.269   1.701   8.398
 5266WAT      O16039   8.249   9.700   1.051
 5266WAT     H116040   8.234   9.677   1.147
 5266WAT     H216041   8.278   9.796   1.044
 5267WAT      O16042   1.476   5.018   8.700
 5267WAT     H116043   1.389   5.056   8.669
 5267WAT     H216044   1.507   5.067   8.781
 5268WAT      O16045   2.125   5.277   1.276
 5268WAT     H116046   2.158   5.243   1.188
 5268WAT     H216047   2.031   5.245   1.291
 5269WAT      O16048   7.061   9.102   2.908
 5269WAT     H116049   7.135   9.166   2.886
 5269WAT     H216050   7.037   9.050   2.826
 5270WAT      O16051   6.867   0.146   2.420
 5270WAT     H116052   6.924   0.196   2.486
 5270WAT     H216053   6.855   0.052   2.452
 5271WAT      O16054   4.635   3.946   3.372
 5271WAT     H116055   4.558   3.986   3.322
 5271WAT     H216056   4.632   3.975   3.468
 5272WAT      O16057   4.956   9.033   0.733
 5272WAT     H116058   5.018   8.961   0.701
 5272WAT     H216059   4.989   9.122   0.700
 5273WAT      O16060   2.592   0.517   5.702
 5273WAT     H116061   2.598   0.418   5.702
 5273WAT     H216062   2.548   0.548   5.617
 5274WAT      O16063   6.893   9.244   6.081
 5274WAT     H116064   6.847   9.288   6.003
 5274WAT     H216065   6.882   9.302   6.162
 5275WAT      O16066   2.937   5.149   6.060
 5275WAT     H116067   2.896   5.227   6.108
 5275WAT     H216068   3.016   5.116   6.112
 5276WAT      O16069   1.296   6.219   8.454
 5276WAT     H116070   1.356   6.165   8.513
 5276WAT     H216071   1.251   6.159   8.388
 5277WAT      O16072   0.659   8.072   2.850
 5277WAT     H116073   0.662   8.140   2.777
 5277WAT     H216074   0.748   8.065   2.893
 5278WAT      O16075   0.879   4.315   5.768
 5278WAT     H116076   0.880   4.303   5.868
 5278WAT     H216077   0.891   4.411   5.746
 5279WAT      O16078   7.429   9.227   6.722
 5279WAT     H116079   7.519   9.224   6.678
 5279WAT     H216080   7.427   9.300   6.790
 5280WAT      O16081   5.733   0.188   7.178
 5280WAT     H116082   5.648   0.203   7.228
 5280WAT     H216083   5.777   0.276   7.161
 5281WAT      O16084   6.089   5.259   8.516
 5281WAT     H116085   6.002   5.219   8.484
 5281WAT     H216086   6.163   5.228   8.457
 5282WAT      O16087   2.949   5.546   9.531
 5282WAT     H116088   2.895   5.627   9.508
 5282WAT     H216089   2.995   5.512   9.449
 5283WAT      O16090   0.099   6.262   9.529
 5283WAT     H116091   0.161   6.286   9.604
 5283WAT     H216092   0.082   6.163   9.530
 5284WAT      O16093   6.245   2.992   3.129
 5284WAT     H116094   6.298   3.013   3.212
 5284WAT     H216095   6.302   2.937   3.067
 5285WAT      O16096   1.452   5.745   4.373
 5285WAT     H116097   1.528   5.811   4.371
 5285WAT     H216098   1.372   5.785   4.329
 5286WAT      O16099   0.189   2.868   4.736
 5286WAT     H116100   0.162   2.774   4.716
 5286WAT     H216101   0.269   2.893   4.682
 5287WAT      O16102   6.593   9.360   2.327
 5287WAT     H116103   6.547   9.446   2.352
 5287WAT     H216104   6.656   9.377   2.252
 5288WAT      O16105   0.769   1.793   7.597
 5288WAT     H116106   0.705   1.753   7.662
 5288WAT     H216107   0.734   1.783   7.504
 5289WAT      O16108   1.840   0.566   5.943
 5289WAT     H116109   1.857   0.563   6.042
 5289WAT     H216110   1.747   0.537   5.924
 5290WAT      O16111   2.398   0.952   7.255
 5290WAT     H116112   2.328   0.941   7.325
 5290WAT     H216113   2.359   0.931   7.165
 5291WAT      O16114   6.313   5.170   8.397
 5291WAT     H116115   6.314   5.078   8.357
 5291WAT     H216116   6.300   5.238   8.325
 5292WAT      O16117   3.332   0.646   0.223
 5292WAT     H116118   3.387   0.569   0.192
 5292WAT     H216119   3.338   0.720   0.156
 5293WAT      O16120   0.291   0.966   1.934
 5293WAT     H116121   0.377   0.941   1.891
 5293WAT     H216122   0.227   0.890   1.927
 5294WAT      O16123   9.267   2.634   4.459
 5294WAT     H116124   9.263   2.693   4.379
 5294WAT     H216125   9.182   2.643   4.511
 5295WAT      O16126   5.979   6.492   3.516
 5295WAT     H116127   5.946   6.566   3.575
 5295WAT     H216128   5.973   6.520   3.420
 5296WAT      O16129   0.989   1.533   5.401
 5296WAT     H116130   0.975   1.597   5.476
 5296WAT     H216131   0.903   1.485   5.381
 5297WAT      O16132   7.607   6.317   4.028
 5297WAT     H116133   7.523   6.271   4.057
 5297WAT     H216134   7.584   6.392   3.966
 5298WAT      O16135   1.535   9.671   0.546
 5298WAT     H116136   1.468   9.711   0.608
 5298WAT     H216137   1.537   9.722   0.460
 5299WAT      O16138   8.678   0.591   8.825
 5299WAT     H116139   8.616   0.667   8.842
 5299WAT     H216140   8.651   0.512   8.881
 5300WAT      O16141   6.419   0.831   6.025
 5300WAT     H116142   6.454   0.744   6.061
 5300WAT     H216143   6.439   0.837   5.928
 5301WAT      O16144   7.155   2.211   5.147
 5301WAT     H116145   7.219   2.150   5.195
 5301WAT     H216146   7.135   2.290   5.205
 5302WAT      O16147   4.931   7.689   7.514
 5302WAT     H116148   5.027   7.673   7.491
 5302WAT     H216149   4.873   7.623   7.467
 5303WAT      O16150   5.655   7.177   8.972
 5303WAT     H116151   5.620   7.192   9.065
 5303WAT     H216152   5.619   7.247   8.911
 5304WAT      O16153   3.582   2.731   8.014
 5304WAT     H116154   3.554   2.636   8.029
 5304WAT     H216155   3.504   2.782   7.976
 5305WAT      O16156   5.360   1.844   4.385
 5305WAT     H116157   5.413   1.873   4.306
 5305WAT     H216158   5.265   1.872   4.374
 5306WAT      O16159   6.249   6.769   1.397
 5306WAT     H116160   6.290   6.781   1.307
 5306WAT     H216161   6.163   6.719   1.387
 5307WAT      O16162   4.825   5.953   1.467
 5307WAT     H116163   4.787   5.999   1.387
 5307WAT     H216164   4.901   6.006   1.504
 5308WAT      O16165   4.172   5.582   9.646
 5308WAT     H116166   4.122   5.663   9.616
 5308WAT     H216167   4.186   5.521   9.567
 5309WAT      O16168   9.491   8.263   7.020
 5309WAT     H116169   9.416   8.310   7.066
 5309WAT     H216170   9.455   8.202   6.950
 5310WAT      O16171   7.060   0.887   0.546
 5310WAT     H116172   7.096   0.868   0.637
 5310WAT     H216173   6.989   0.820   0.523
 5311WAT      O16174   4.035   8.775   7.411
 5311WAT     H116175   4.092   8.857   7.416
 5311WAT     H216176   3.947   8.792   7.456
 5312WAT      O16177   7.641   4.891   9.732
 5312WAT     H116178   7.614   4.815   9.672
 5312WAT     H216179   7.701   4.953   9.683
 5313WAT      O16180   8.427   8.718   5.307
 5313WAT     H116181   8.422   8.776   5.226
 5313WAT     H216182   8.409   8.773   5.389
 5314WAT      O16183   7.634   5.817   5.591
 5314WAT     H116184   7.546   5.772   5.575
 5314WAT     H216185   7.643   5.840   5.688
 5315WAT      O16186   6.566   6.615   4.000
 5315WAT     H116187   6.572   6.663   4.088
 5315WAT     H216188   6.477   6.570   3.993
 5316WAT      O16189   0.691   8.086   0.060
 5316WAT     H116190   0.671   8.044   0.149
 5316WAT     H216191   0.605   8.106   0.013
 5317WAT      O16192   4.473   1.003   5.709
 5317WAT     H116193   4.478   1.008   5.609
 5317WAT     H216194   4.557   1.040   5.748
 5318WAT      O16195   3.187   4.294   7.428
 5318WAT     H116196   3.237   4.213   7.397
 5318WAT     H216197   3.169   4.353   7.349
 5319WAT      O16198   6.349   0.050   3.981
 5319WAT     H116199   6.291   0.011   4.052
 5319WAT     H216200   6.435   0.082   4.022
 5320WAT      O16201   0.934   4.632   2.950
 5320WAT     H116202   0.883   4.684   3.018
 5320WAT     H216203   1.016   4.594   2.992
 5321WAT      O16204   7.627   3.426   3.049
 5321WAT     H116205   7.646   3.333   3.016
 5321WAT     H216206   7.579   3.477   2.978
 5322WAT      O16207   4.487   2.679   6.923
 5322WAT     H116208   4.586   2.680   6.926
 5322WAT     H216209   4.450   2.732   7.000
 5323WAT      O16210   2.414   1.429   0.889
 5323WAT     H116211   2.470   1.478   0.822
 5323WAT     H216212   2.459   1.431   0.978
 5324WAT      O16213   0.014   9.566   3.177
 5324WAT     H116214   0.005   9.611   3.266
 5324WAT     H216215   0.110   9.546   3.160
 5325WAT      O16216   3.869   3.448   2.641
 5325WAT     H116217   3.819   3.498   2.570
 5325WAT     H216218   3.809   3.379   2.682
 5326WAT      O16219   5.638   6.157   0.052
 5326WAT     H116220   5.622   6.235  -0.008
 5326WAT     H216221   5.571   6.159   0.127
 5327WAT      O16222   2.801   6.805   1.511
 5327WAT     H116223   2.715   6.856   1.514
 5327WAT     H216224   2.837   6.806   1.418
 5328WAT      O16225   5.938   1.575   0.523
 5328WAT     H116226   5.882   1.618   0.594
 5328WAT     H216227   5.945   1.636   0.444
 5329WAT      O16228   5.660   1.023   2.553
 5329WAT     H116229   5.568   0.988   2.570
 5329WAT     H216230   5.674   1.036   2.455
 5330WAT      O16231   1.843   6.766   3.741
 5330WAT     H116232   1.892   6.688   3.703
 5330WAT     H216233   1.874   6.850   3.697
 5331WAT      O16234   5.215   3.341   5.156
 5331WAT     H116235   5.152   3.285   5.103
 5331WAT     H216236   5.197   3.328   5.254
 5332WAT      O16237   2.239   4.783   6.175
 5332WAT     H116238   2.304   4.816   6.106
 5332WAT     H216239   2.146   4.807   6.147
 5333WAT      O16240   5.972   8.865   7.844
 5333WAT     H116241   5.945   8.855   7.748
 5333WAT     H216242   6.059   8.819   7.859
 5334WAT      O16243   7.397   1.053   4.283
 5334WAT     H116244   7.335   0.979   4.308
 5334WAT     H216245   7.488   1.015   4.265
 5335WAT      O16246   7.158   0.883   8.575
 5335WAT     H116247   7.252   0.878   8.607
 5335WAT     H216248   7.152   0.946   8.497
 5336WAT      O16249   7.162   1.223   7.213
 5336WAT     H116250   7.199   1.204   7.122
 5336WAT     H216251   7.155   1.138   7.265
 5337WAT      O16252   0.523   1.994   4.815
 5337WAT     H116253   0.461   2.064   4.779
 5337WAT     H216254   0.617   2.021   4.799
 5338WAT      O16255   0.638   9.422   6.921
 5338WAT     H116256   0.556   9.372   6.892
 5338WAT     H216257   0.720   9.373   6.891
 5339WAT      O16258   4.954   3.700   8.275
 5339WAT     H116259   4.914   3.612   8.247
 5339WAT     H216260   4.893   3.744   8.341
 5340WAT      O16261   3.218   2.520   2.703
 5340WAT     H116262   3.199   2.422   2.710
 5340WAT     H216263   3.310   2.533   2.664
 5341WAT      O16264   1.954   8.477   5.931
 5341WAT     H116265   2.049   8.508   5.936
 5341WAT     H216266   1.932   8.422   6.011
 5342WAT      O16267   5.018   5.844   7.350
 5342WAT     H116268   4.981   5.903   7.278
 5342WAT     H216269   4.972   5.755   7.346
 5343WAT      O16270   6.387   1.013   6.275
 5343WAT     H116271   6.332   0.935   6.304
 5343WAT     H216272   6.482   0.983   6.260
 5344WAT      O16273   4.976   7.800   4.642
 5344WAT     H116274   5.037   7.827   4.567
 5344WAT     H216275   5.024   7.737   4.703
 5345WAT      O16276   6.662   0.613   2.959
 5345WAT     H116277   6.695   0.703   2.988
 5345WAT     H216278   6.725   0.573   2.894
 5346WAT      O16279   4.971   5.680   6.363
 5346WAT     H116280   4.967   5.775   6.331
 5346WAT     H216281   5.065   5.648   6.361
 5347WAT      O16282   0.647   8.156   8.092
 5347WAT     H116283   0.601   8.111   8.015
 5347WAT     H216284   0.579   8.193   8.155
 5348WAT      O16285   9.480   2.244   1.659
 5348WAT     H116286   9.387   2.244   1.623
 5348WAT     H216287   9.545   2.254   1.584
 5349WAT      O16288   1.140   8.794   7.015
 5349WAT     H116289   1.067   8.789   6.947
 5349WAT     H216290   1.176   8.702   7.032
 5350WAT      O16291   1.015   4.056   5.725
 5350WAT     H116292   1.007   4.009   5.638
 5350WAT     H216293   0.951   4.133   5.727
 5351WAT      O16294   4.073   9.371   8.893
 5351WAT     H116295   4.087   9.468   8.874
 5351WAT     H216296   4.159   9.321   8.876
 5352WAT      O16297   8.871   5.805   0.532
 5352WAT     H116298   8.872   5.808   0.432
 5352WAT     H216299   8.856   5.711   0.563
 5353WAT      O16300   2.013   8.748   5.695
 5353WAT     H116301   1.967   8.775   5.780
 5353WAT     H216302   1.945   8.722   5.627
 5354WAT      O16303   3.207   7.356   3.224
 5354WAT     H116304   3.158   7.443   3.234
 5354WAT     H216305   3.154   7.282   3.266
 5355WAT      O16306   9.310   3.644   0.554
 5355WAT     H116307   9.380   3.714   0.568
 5355WAT     H216308   9.354   3.554   0.545
 5356WAT      O16309   1.743   0.669   8.818
 5356WAT     H116310   1.647   0.656   8.794
 5356WAT     H216311   1.769   0.601   8.887
 5357WAT      O16312   7.474   3.432   1.464
 5357WAT     H116313   7.540   3.361   1.439
 5357WAT     H216314   7.448   3.484   1.383
 5358WAT      O16315   3.844   0.763   8.241
 5358WAT     H116316   3.745   0.755   8.252
 5358WAT     H216317   3.883   0.806   8.322
 5359WAT      O16318   4.479   0.375   8.466
 5359WAT     H116319   4.540   0.379   8.545
 5359WAT     H216320   4.386   0.355   8.498
 5360WAT      O16321   1.741   6.867   2.731
 5360WAT     H116322   1.648   6.868   2.695
 5360WAT     H216323   1.754   6.784   2.786
 5361WAT      O16324   5.538   0.992   3.165
 5361WAT     H116325   5.628   0.948   3.166
 5361WAT     H216326   5.510   1.012   3.259
 5362WAT      O16327   3.479   5.711   8.953
 5362WAT     H116328   3.422   5.633   8.927
 5362WAT     H216329   3.435   5.761   9.027
 5363WAT      O16330   9.218   2.228   1.561
 5363WAT     H116331   9.167   2.150   1.597
 5363WAT     H216332   9.169   2.266   1.482
 5364WAT      O16333   0.333   6.794   8.074
 5364WAT     H116334   0.248   6.814   8.025
 5364WAT     H216335   0.411   6.808   8.013
 5365WAT      O16336   3.404   8.864   7.332
 5365WAT     H116337   3.487   8.813   7.308
 5365WAT     H216338   3.355   8.816   7.404
 5366WAT      O16339   5.612   5.701   5.035
 5366WAT     H116340   5.648   5.653   4.955
 5366WAT     H216341   5.660   5.788   5.046
 5367WAT      O16342   1.070   7.764   6.610
 5367WAT     H116343   1.089   7.671   6.643
 5367WAT     H216344   1.020   7.815   6.680
 5368WAT      O16345   1.019   4.848   3.497
 5368WAT     H116346   1.081   4.773   3.519
 5368WAT     H216347   0.973   4.879   3.580
 5369WAT      O16348   1.696   1.012   6.381
 5369WAT     H116349   1.609   0.987   6.339
 5369WAT     H216350   1.768   1.014   6.312
 5370WAT      O16351   3.091   2.998   0.166
 5370WAT     H116352   3.016   2.936   0.142
 5370WAT     H216353   3.075   3.035   0.257
 5371WAT      O16354   0.884   8.246   8.619
 5371WAT     H116355   0.830   8.285   8.545
 5371WAT     H216356   0.826   8.189   8.677
 5372WAT      O16357   8.206   4.146   6.337
 5372WAT     H116358   8.261   4.095   6.271
 5372WAT     H216359   8.122   4.095   6.356
 5373WAT      O16360   5.532   2.244   2.051
 5373WAT     H116361   5.469   2.182   2.098
 5373WAT     H216362   5.483   2.290   1.977
 5374WAT      O16363   2.493   8.687   1.417
 5374WAT     H116364   2.433   8.685   1.337
 5374WAT     H216365   2.473   8.769   1.472
 5375WAT      O16366   4.247   8.259   7.210
 5375WAT     H116367   4.192   8.268   7.126
 5375WAT     H216368   4.213   8.182   7.263
 5376WAT      O16369   8.528   2.266   8.608
 5376WAT     H116370   8.480   2.353   8.611
 5376WAT     H216371   8.626   2.283   8.595
 5377WAT      O16372   4.004   6.701   9.547
 5377WAT     H116373   3.953   6.765   9.605
 5377WAT     H216374   3.992   6.608   9.582
 5378WAT      O16375   2.547   5.713   4.736
 5378WAT     H116376   2.623   5.707   4.801
 5378WAT     H216377   2.527   5.810   4.717
 5379WAT      O16378   2.689   9.669   3.185
 5379WAT     H116379   2.616   9.677   3.117
 5379WAT     H216380   2.649   9.644   3.273
 5380WAT      O16381   9.807   3.198   3.699
 5380WAT     H116382   9.726   3.226   3.750
 5380WAT     H216383   9.781   3.135   3.626
 5381WAT      O16384   5.317   3.736   2.431
 5381WAT     H116385   5.254   3.751   2.354
 5381WAT     H216386   5.360   3.823   2.456
 5382WAT      O16387   4.303   2.425   1.066
 5382WAT     H116388   4.264   2.475   0.988
 5382WAT     H216389   4.310   2.486   1.145
 5383WAT      O16390   1.610   0.881   8.985
 5383WAT     H116391   1.607   0.805   8.921
 5383WAT     H216392   1.617   0.967   8.935
 5384WAT      O16393   9.349   6.010   1.871
 5384WAT     H116394   9.442   6.018   1.835
 5384WAT     H216395   9.331   5.915   1.897
 5385WAT      O16396   8.524   6.212   5.629
 5385WAT     H116397   8.477   6.255   5.552
 5385WAT     H216398   8.460   6.205   5.706
 5386WAT      O16399   0.850   2.603   8.847
 5386WAT     H116400   0.823   2.564   8.935
 5386WAT     H216401   0.813   2.547   8.773
 5387WAT      O16402   5.709   8.358   1.237
 5387WAT     H116403   5.782   8.315   1.184
 5387WAT     H216404   5.624   8.308   1.223
 5388WAT      O16405   6.912   8.579   1.311
 5388WAT     H116406   6.877   8.514   1.244
 5388WAT     H216407   6.839   8.607   1.372
 5389WAT      O16408   8.661   5.079   6.214
 5389WAT     H116409   8.739   5.017   6.221
 5389WAT     H216410   8.581   5.038   6.258
 5390WAT      O16411   3.003   5.207   9.010
 5390WAT     H116412   3.015   5.145   8.932
 5390WAT     H216413   2.924   5.177   9.064
 5391WAT      O16414   3.262   2.518   9.511
 5391WAT     H116415   3.267   2.552   9.605
 5391WAT     H216416   3.355   2.507   9.475
 5392WAT      O16417   6.824   5.498   9.456
 5392WAT     H116418   6.807   5.469   9.362
 5392WAT     H216419   6.755   5.458   9.516
 5393WAT      O16420   4.692   6.956   0.510
 5393WAT     H116421   4.768   7.020   0.519
 5393WAT     H216422   4.665   6.923   0.600
 5394WAT      O16423   4.205   4.577   4.539
 5394WAT     H116424   4.219   4.638   4.461
 5394WAT     H216425   4.173   4.629   4.618
 5395WAT      O16426   7.011   0.633   1.596
 5395WAT     H116427   6.932   0.681   1.559
 5395WAT     H216428   7.015   0.647   1.695
 5396WAT      O16429   0.173   8.502   7.326
 5396WAT     H116430   0.249   8.438   7.340
 5396WAT     H216431   0.111   8.466   7.258
 5397WAT      O16432   4.136   6.980   3.777
 5397WAT     H116433   4.102   6.973   3.870
 5397WAT     H216434   4.120   7.072   3.742
 5398WAT      O16435   9.673   3.995   8.360
 5398WAT     H116436   9.772   3.987   8.350
 5398WAT     H216437   9.634   3.904   8.378
 5399WAT      O16438   5.955   8.474   9.709
 5399WAT     H116439   6.053   8.479   9.686
 5399WAT     H216440   5.908   8.555   9.672
 5400WAT      O16441   3.328   2.494   5.951
 5400WAT     H116442   3.298   2.430   5.880
 5400WAT     H216443   3.355   2.442   6.033
 5401WAT      O16444   2.537   8.244   6.053
 5401WAT     H116445   2.631   8.236   6.021
 5401WAT     H216446   2.474   8.210   5.983
 5402WAT      O16447   8.378   1.691   6.452
 5402WAT     H116448   8.339   1.774   6.411
 5402WAT     H216449   8.419   1.635   6.381
 5403WAT      O16450   6.305   8.478   9.862
 5403WAT     H116451   6.300   8.567   9.818
 5403WAT     H216452   6.282   8.487   9.959
 5404WAT      O16453   5.348   3.269   6.533
 5404WAT     H116454   5.421   3.219   6.579
 5404WAT     H216455   5.260   3.227   6.556
 5405WAT      O16456   0.521   1.397   6.091
 5405WAT     H116457   0.555   1.491   6.090
 5405WAT     H216458   0.530   1.360   6.184
 5406WAT      O16459   2.975   3.384   3.842
 5406WAT     H116460   3.015   3.439   3.769
 5406WAT     H216461   2.947   3.295   3.805
 5407WAT      O16462   0.848   6.929   8.700
 5407WAT     H116463   0.859   6.855   8.633
 5407WAT     H216464   0.826   6.889   8.789
 5408WAT      O16465   3.904   3.660   3.450
 5408WAT     H116466   3.867   3.701   3.533
 5408WAT     H216467   3.976   3.719   3.413
 5409WAT      O16468   0.046   6.875   5.362
 5409WAT     H116469  -0.022   6.886   5.435
 5409WAT     H216470   0.005   6.824   5.286
 5410WAT      O16471   3.948   5.827   4.154
 5410WAT     H116472   4.045   5.851   4.159
 5410WAT     H216473   3.896   5.905   4.119
 5411WAT      O16474   8.159   7.969   6.611
 5411WAT     H116475   8.249   7.961   6.569
 5411WAT     H216476   8.088   7.961   6.542
 5412WAT      O16477   8.375   0.589   4.570
 5412WAT     H116478   8.286   0.592   4.524
 5412WAT     H216479   8.443   0.551   4.507
 5413WAT      O16480   7.886   8.485   8.529
 5413WAT     H116481   7.800   8.434   8.526
 5413WAT     H216482   7.891   8.536   8.615
 5414WAT      O16483   9.197   9.283   6.841
 5414WAT     H116484   9.256   9.306   6.764
 5414WAT     H216485   9.187   9.184   6.848
 5415WAT      O16486   8.578   7.001   4.164
 5415WAT     H116487   8.625   6.993   4.076
 5415WAT     H216488   8.603   6.923   4.222
 5416WAT      O16489   3.319   7.970   1.040
 5416WAT     H116490   3.345   7.880   1.075
 5416WAT     H216491   3.269   8.020   1.110
 5417WAT      O16492   3.304   5.531   7.716
 5417WAT     H116493   3.302   5.466   7.640
 5417WAT     H216494   3.371   5.603   7.696
 5418WAT      O16495   0.021   3.914   9.238
 5418WAT     H116496   0.072   3.974   9.176
 5418WAT     H216497  -0.068   3.892   9.197
 5419WAT      O16498   1.053   1.619   7.352
 5419WAT     H116499   0.953   1.624   7.351
 5419WAT     H216500   1.082   1.524   7.343
 5420WAT      O16501   9.254   2.547   5.745
 5420WAT     H116502   9.319   2.623   5.745
 5420WAT     H216503   9.303   2.460   5.751
 5421WAT      O16504   3.497   2.635   1.786
 5421WAT     H116505   3.474   2.724   1.826
 5421WAT     H216506   3.462   2.631   1.693
 5422WAT      O16507   0.690   4.740   7.367
 5422WAT     H116508   0.639   4.763   7.284
 5422WAT     H216509   0.747   4.818   7.393
 5423WAT      O16510   6.189   1.673   0.199
 5423WAT     H116511   6.219   1.743   0.135
 5423WAT     H216512   6.090   1.682   0.214
 5424WAT      O16513   0.833   7.490   3.263
 5424WAT     H116514   0.735   7.510   3.261
 5424WAT     H216515   0.876   7.527   3.180
 5425WAT      O16516   8.256   0.926   2.268
 5425WAT     H116517   8.240   0.941   2.366
 5425WAT     H216518   8.218   1.003   2.217
 5426WAT      O16519   5.360   3.854   3.624
 5426WAT     H116520   5.390   3.950   3.623
 5426WAT     H216521   5.267   3.848   3.586
 5427WAT      O16522   7.870   6.706   3.669
 5427WAT     H116523   7.948   6.768   3.678
 5427WAT     H216524   7.793   6.753   3.628
 5428WAT      O16525   6.888   9.542   6.481
 5428WAT     H116526   6.850   9.628   6.447
 5428WAT     H216527   6.976   9.559   6.525
 5429WAT      O16528   3.374   0.526   8.960
 5429WAT     H116529   3.311   0.567   8.894
 5429WAT     H216530   3.409   0.597   9.021
 5430WAT      O16531   3.660   1.226   4.829
 5430WAT     H116532   3.561   1.214   4.818
 5430WAT     H216533   3.708   1.161   4.769
 5431WAT      O16534   5.206   0.874   8.925
 5431WAT     H116535   5.294   0.894   8.881
 5431WAT     H216536   5.219   0.867   9.024
 5432WAT      O16537   6.972   2.079   0.067
 5432WAT     H116538   6.926   2.150   0.015
 5432WAT     H216539   7.018   2.016   0.005
 5433WAT      O16540   4.052   3.610   0.768
 5433WAT     H116541   4.095   3.658   0.844
 5433WAT     H216542   4.047   3.512   0.788
 5434WAT      O16543   0.275   5.695   7.621
 5434WAT     H116544   0.215   5.739   7.555
 5434WAT     H216545   0.330   5.625   7.576
 5435WAT      O16546   2.353   5.124   7.148
 5435WAT     H116547   2.425   5.066   7.186
 5435WAT     H216548   2.365   5.217   7.183
 5436WAT      O16549   7.339   1.507   6.999
 5436WAT     H116550   7.265   1.566   6.967
 5436WAT     H216551   7.401   1.487   6.923
 5437WAT      O16552   4.217   1.409   5.340
 5437WAT     H116553   4.131   1.450   5.310
 5437WAT     H216554   4.283   1.411   5.265
 5438WAT      O16555   7.351   7.301   3.588
 5438WAT     H116556   7.253   7.283   3.581
 5438WAT     H216557   7.367   7.364   3.664
 5439WAT      O16558   2.476   1.793   4.451
 5439WAT     H116559   2.496   1.721   4.385
 5439WAT     H216560   2.450   1.876   4.402
 5440WAT      O16561   5.939   0.018   2.796
 5440WAT     H116562   5.986   0.106   2.803
 5440WAT     H216563   5.840   0.033   2.800
 5441WAT      O16564   1.055   6.051   3.970
 5441WAT     H116565   1.029   6.033   3.875
 5441WAT     H216566   1.104   5.973   4.007
 5442WAT      O16567   8.487   3.350   6.653
 5442WAT     H116568   8.445   3.260   6.663
 5442WAT     H216569   8.572   3.341   6.600
 5443WAT      O16570   9.012   5.896   9.743
 5443WAT     H116571   9.071   5.837   9.798
 5443WAT     H216572   8.990   5.850   9.657
 5444WAT      O16573   5.783   4.030   9.218
 5444WAT     H116574   5.776   4.128   9.238
 5444WAT     H216575   5.763   3.978   9.300
 5445WAT      O16576   5.479   5.781   6.518
 5445WAT     H116577   5.485   5.738   6.428
 5445WAT     H216578   5.392   5.757   6.560
 5446WAT      O16579   6.064   8.515   4.060
 5446WAT     H116580   6.120   8.559   4.130
 5446WAT     H216581   6.108   8.431   4.030
 5447WAT      O16582   5.433   4.225   7.079
 5447WAT     H116583   5.355   4.287   7.089
 5447WAT     H216584   5.400   4.131   7.072
 5448WAT      O16585   8.893   2.782   5.814
 5448WAT     H116586   8.968   2.832   5.770
 5448WAT     H216587   8.915   2.685   5.817
 5449WAT      O16588   9.119   9.233   6.442
 5449WAT     H116589   9.040   9.291   6.464
 5449WAT     H216590   9.203   9.287   6.451
 5450WAT      O16591   7.937   8.493   1.400
 5450WAT     H116592   7.947   8.469   1.304
 5450WAT     H216593   7.843   8.480   1.429
 5451WAT      O16594   0.354   0.106   1.042
 5451WAT     H116595   0.377   0.113   0.945
 5451WAT     H216596   0.345   0.009   1.067
 5452WAT      O16597   8.827   8.423   4.458
 5452WAT     H116598   8.758   8.496   4.458
 5452WAT     H216599   8.881   8.429   4.542
 5453WAT      O16600   8.542   0.843   9.550
 5453WAT     H116601   8.588   0.756   9.533
 5453WAT     H216602   8.450   0.841   9.511
 5454WAT      O16603   4.834   5.330   9.367
 5454WAT     H116604   4.844   5.330   9.466
 5454WAT     H216605   4.894   5.400   9.327
 5455WAT      O16606   4.428   1.964   7.659
 5455WAT     H116607   4.391   1.941   7.569
 5455WAT     H216608   4.427   2.063   7.671
 5456WAT      O16609   9.158   5.364   0.440
 5456WAT     H116610   9.175   5.266   0.433
 5456WAT     H216611   9.161   5.392   0.536
 5457WAT      O16612   2.652   5.293   7.034
 5457WAT     H116613   2.713   5.278   7.112
 5457WAT     H216614   2.633   5.206   6.990
 5458WAT      O16615   7.421   9.083   4.663
 5458WAT     H116616   7.472   8.999   4.679
 5458WAT     H216617   7.484   9.161   4.661
 5459WAT      O16618   8.587   5.800   9.770
 5459WAT     H116619   8.519   5.810   9.843
 5459WAT     H216620   8.638   5.715   9.783
 5460WAT      O16621   2.664   8.602   0.439
 5460WAT     H116622   2.716   8.622   0.356
 5460WAT     H216623   2.569   8.583   0.416
 5461WAT      O16624   8.659   8.834   7.570
 5461WAT     H116625   8.640   8.924   7.609
 5461WAT     H216626   8.707   8.778   7.638
 5462WAT      O16627   2.051   0.474   2.423
 5462WAT     H116628   1.994   0.544   2.466
 5462WAT     H216629   2.142   0.511   2.406
 5463WAT      O16630   7.900   1.548   6.262
 5463WAT     H116631   7.892   1.506   6.352
 5463WAT     H216632   7.952   1.633   6.269
 5464WAT      O16633   6.824   3.803   7.043
 5464WAT     H116634   6.778   3.843   6.963
 5464WAT     H216635   6.913   3.846   7.056
 5465WAT      O16636   4.107   7.916   6.542
 5465WAT     H116637   4.046   7.935   6.465
 5465WAT     H216638   4.175   7.989   6.550
 5466WAT      O16639   6.673   1.055   4.339
 5466WAT     H116640   6.742   0.988   4.311
 5466WAT     H216641   6.584   1.010   4.348
 5467WAT      O16642   8.108   8.802   8.038
 5467WAT     H116643   8.046   8.778   7.964
 5467WAT     H216644   8.058   8.803   8.124
 5468WAT      O16645   3.563   1.800   6.284
 5468WAT     H116646   3.655   1.771   6.260
 5468WAT     H216647   3.496   1.753   6.226
 5469WAT      O16648   1.152   0.760   4.425
 5469WAT     H116649   1.232   0.709   4.392
 5469WAT     H216650   1.180   0.850   4.457
 5470WAT      O16651   7.967   2.281   3.397
 5470WAT     H116652   7.901   2.233   3.340
 5470WAT     H216653   7.985   2.371   3.359
 5471WAT      O16654   4.331   2.478   3.731
 5471WAT     H116655   4.335   2.577   3.739
 5471WAT     H216656   4.264   2.453   3.661
 5472WAT      O16657   0.217   3.796   2.251
 5472WAT     H116658   0.171   3.872   2.295
 5472WAT     H216659   0.231   3.816   2.154
 5473WAT      O16660   2.344   9.242   1.253
 5473WAT     H116661   2.386   9.246   1.162
 5473WAT     H216662   2.301   9.152   1.266
 5474WAT      O16663   4.632   9.005   8.713
 5474WAT     H116664   4.556   8.951   8.750
 5474WAT     H216665   4.711   8.997   8.773
 5475WAT      O16666   4.399   6.369   9.625
 5475WAT     H116667   4.311   6.363   9.673
 5475WAT     H216668   4.383   6.380   9.527
 5476WAT      O16669   6.013   1.863   3.635
 5476WAT     H116670   5.924   1.901   3.660
 5476WAT     H216671   6.051   1.914   3.558
 5477WAT      O16672   1.812   0.801   0.059
 5477WAT     H116673   1.897   0.852   0.063
 5477WAT     H216674   1.825   0.719   0.002
 5478WAT      O16675   7.327   6.001   9.352
 5478WAT     H116676   7.422   5.975   9.369
 5478WAT     H216677   7.313   6.014   9.254
 5479WAT      O16678   6.314   7.208   9.124
 5479WAT     H116679   6.237   7.149   9.146
 5479WAT     H216680   6.343   7.192   9.030
 5480WAT      O16681   2.818   3.429   2.448
 5480WAT     H116682   2.917   3.434   2.435
 5480WAT     H216683   2.786   3.337   2.426
 5481WAT      O16684   8.582   2.514   3.904
 5481WAT     H116685   8.496   2.498   3.952
 5481WAT     H216686   8.607   2.611   3.913
 5482WAT      O16687   5.828   5.237   4.875
 5482WAT     H116688   5.827   5.246   4.775
 5482WAT     H216689   5.870   5.149   4.900
 5483WAT      O16690   1.592   1.401   0.716
 5483WAT     H116691   1.610   1.482   0.772
 5483WAT     H216692   1.556   1.429   0.627
 5484WAT      O16693   6.134   8.554   7.012
 5484WAT     H116694   6.123   8.460   7.043
 5484WAT     H216695   6.213   8.561   6.952
 5485WAT      O16696   1.516   6.714   3.988
 5485WAT     H116697   1.580   6.771   4.039
 5485WAT     H216698   1.521   6.620   4.023
 5486WAT      O16699   0.567   9.318   0.038
 5486WAT     H116700   0.588   9.403   0.086
 5486WAT     H216701   0.639   9.300  -0.029
 5487WAT      O16702   5.234   4.117   3.318
 5487WAT     H116703   5.245   4.037   3.378
 5487WAT     H216704   5.141   4.119   3.281
 5488WAT      O16705   3.617   3.410   5.840
 5488WAT     H116706   3.558   3.450   5.910
 5488WAT     H216707   3.564   3.347   5.785
 5489WAT      O16708   4.198   1.950   3.215
 5489WAT     H116709   4.179   1.855   3.238
 5489WAT     H216710   4.225   2.000   3.297
 5490WAT      O16711   6.067   2.223   5.709
 5490WAT     H116712   6.138   2.162   5.673
 5490WAT     H216713   6.004   2.248   5.635
 5491WAT      O16714   7.292   5.823   0.579
 5491WAT     H116715   7.326   5.842   0.671
 5491WAT     H216716   7.365   5.837   0.513
 5492WAT      O16717   8.881   2.930   9.237
 5492WAT     H116718   8.941   2.856   9.266
 5492WAT     H216719   8.893   3.008   9.299
 5493WAT      O16720   1.310   2.269   8.422
 5493WAT     H116721   1.335   2.360   8.388
 5493WAT     H216722   1.213   2.254   8.407
 5494WAT      O16723   4.658   8.916   4.772
 5494WAT     H116724   4.699   8.835   4.813
 5494WAT     H216725   4.558   8.907   4.772
 5495WAT      O16726   2.192   9.011   6.098
 5495WAT     H116727   2.233   9.094   6.137
 5495WAT     H216728   2.093   9.019   6.099
 5496WAT      O16729   2.736   5.972   8.955
 5496WAT     H116730   2.759   5.879   8.983
 5496WAT     H216731   2.795   5.999   8.878
 5497WAT      O16732   1.092   8.772   8.829
 5497WAT     H116733   1.020   8.715   8.868
 5497WAT     H216734   1.110   8.743   8.735
 5498WAT      O16735   9.568   4.391   3.003
 5498WAT     H116736   9.536   4.344   3.086
 5498WAT     H216737   9.493   4.445   2.965
 5499WAT      O16738   4.582   8.737   1.892
 5499WAT     H116739   4.657   8.740   1.827
 5499WAT     H216740   4.618   8.742   1.985
 5500WAT      O16741   9.172   9.039   3.901
 5500WAT     H116742   9.266   9.050   3.932
 5500WAT     H216743   9.141   8.946   3.921
 5501WAT      O16744   3.259   0.115   9.210
 5501WAT     H116745   3.326   0.072   9.271
 5501WAT     H216746   3.216   0.192   9.257
 5502WAT      O16747   5.519   0.516   9.051
 5502WAT     H116748   5.512   0.594   9.113
 5502WAT     H216749   5.605   0.468   9.068
 5503WAT      O16750   6.551   3.017   2.935
 5503WAT     H116751   6.634   2.963   2.944
 5503WAT     H216752   6.471   2.957   2.945
 5504WAT      O16753   2.116   3.537   4.900
 5504WAT     H116754   2.105   3.446   4.939
 5504WAT     H216755   2.211   3.566   4.911
 5505WAT      O16756   0.714   5.683   5.119
 5505WAT     H116757   0.627   5.635   5.115
 5505WAT     H216758   0.719   5.736   5.203
 5506WAT      O16759   5.200   6.538   3.311
 5506WAT     H116760   5.234   6.508   3.222
 5506WAT     H216761   5.109   6.578   3.301
 5507WAT      O16762   8.314   2.705   2.962
 5507WAT     H116763   8.383   2.672   3.026
 5507WAT     H216764   8.262   2.780   3.003
 5508WAT      O16765   5.056   9.514   7.324
 5508WAT     H116766   5.064   9.431   7.270
 5508WAT     H216767   5.029   9.491   7.418
 5509WAT      O16768   6.914   4.011   2.358
 5509WAT     H116769   6.881   4.104   2.375
 5509WAT     H216770   6.986   3.989   2.423
 5510WAT      O16771   9.627   4.393   2.194
 5510WAT     H116772   9.534   4.420   2.221
 5510WAT     H216773   9.686   4.474   2.195
 5511WAT      O16774   2.770   3.684   5.477
 5511WAT     H116775   2.855   3.651   5.436
 5511WAT     H216776   2.741   3.767   5.430
 5512WAT      O16777   3.569   8.041   9.821
 5512WAT     H116778   3.506   7.985   9.767
 5512WAT     H216779   3.539   8.041   9.917
 5513WAT      O16780   5.526   1.945   1.620
 5513WAT     H116781   5.553   1.988   1.534
 5513WAT     H216782   5.574   1.858   1.630
 5514WAT      O16783   5.922   0.696   5.193
 5514WAT     H116784   6.020   0.685   5.179
 5514WAT     H216785   5.882   0.742   5.114
 5515WAT      O16786   3.000   9.181   1.919
 5515WAT     H116787   2.902   9.179   1.936
 5515WAT     H216788   3.018   9.190   1.821
 5516WAT      O16789   2.083   1.679   9.379
 5516WAT     H116790   2.158   1.613   9.382
 5516WAT     H216791   1.998   1.631   9.359
 5517WAT      O16792   4.698   3.742   6.477
 5517WAT     H116793   4.784   3.741   6.528
 5517WAT     H216794   4.688   3.656   6.427
 5518WAT      O16795   0.081   6.503   8.703
 5518WAT     H116796   0.137   6.585   8.713
 5518WAT     H216797   0.140   6.426   8.675
 5519WAT      O16798   0.831   5.599   2.205
 5519WAT     H116799   0.835   5.604   2.105
 5519WAT     H216800   0.918   5.565   2.241
 5520WAT      O16801   2.904   6.043   8.752
 5520WAT     H116802   2.955   6.112   8.804
 5520WAT     H216803   2.958   5.960   8.744
 5521WAT      O16804   1.758   5.521   1.701
 5521WAT     H116805   1.842   5.536   1.752
 5521WAT     H216806   1.704   5.606   1.700
 5522WAT      O16807   8.967   5.665   1.873
 5522WAT     H116808   8.965   5.754   1.919
 5522WAT     H216809   8.879   5.620   1.884
 5523WAT      O16810   6.062   6.833   3.935
 5523WAT     H116811   6.078   6.931   3.940
 5523WAT     H216812   5.964   6.816   3.924
 5524WAT      O16813   0.247   6.193   1.260
 5524WAT     H116814   0.289   6.279   1.232
 5524WAT     H216815   0.295   6.156   1.340
 5525WAT      O16816   8.250   3.615   5.792
 5525WAT     H116817   8.307   3.688   5.830
 5525WAT     H216818   8.269   3.606   5.694
 5526WAT      O16819   7.372   7.371   6.954
 5526WAT     H116820   7.436   7.434   6.909
 5526WAT     H216821   7.334   7.309   6.886
 5527WAT      O16822   8.774   2.107   8.814
 5527WAT     H116823   8.812   2.189   8.856
 5527WAT     H216824   8.790   2.110   8.715
 5528WAT      O16825   4.108   3.449   6.678
 5528WAT     H116826   4.158   3.488   6.755
 5528WAT     H216827   4.162   3.459   6.595
 5529WAT      O16828   6.177   9.319   9.333
 5529WAT     H116829   6.112   9.247   9.355
 5529WAT     H216830   6.153   9.402   9.383
 5530WAT      O16831   1.994   9.622   4.784
 5530WAT     H116832   2.056   9.571   4.724
 5530WAT     H216833   1.954   9.560   4.851
 5531WAT      O16834   7.096   0.042   3.273
 5531WAT     H116835   7.164  -0.021   3.310
 5531WAT     H216836   7.020  -0.010   3.234
 5532WAT      O16837   0.729   1.103   0.976
 5532WAT     H116838   0.768   1.123   1.066
 5532WAT     H216839   0.793   1.046   0.924
 5533WAT      O16840   5.272   8.667   2.675
 5533WAT     H116841   5.329   8.587   2.692
 5533WAT     H216842   5.323   8.750   2.700
 5534WAT      O16843   8.183   7.824   4.729
 5534WAT     H116844   8.155   7.728   4.731
 5534WAT     H216845   8.281   7.829   4.708
 5535WAT      O16846   9.502   2.348   2.853
 5535WAT     H116847   9.447   2.269   2.823
 5535WAT     H216848   9.443   2.412   2.902
 5536WAT      O16849   1.416   8.936   4.377
 5536WAT     H116850   1.515   8.932   4.388
 5536WAT     H216851   1.393   9.005   4.309
 5537WAT      O16852   6.328   6.126   1.366
 5537WAT     H116853   6.379   6.162   1.288
 5537WAT     H216854   6.389   6.071   1.423
 5538WAT      O16855   9.483   1.782   1.488
 5538WAT     H116856   9.464   1.732   1.572
 5538WAT     H216857   9.564   1.840   1.501
 5539WAT      O16858   8.782   2.329   1.948
 5539WAT     H116859   8.854   2.394   1.924
 5539WAT     H216860   8.738   2.295   1.865
 5540WAT      O16861   1.852   1.793   2.386
 5540WAT     H116862   1.759   1.817   2.411
 5540WAT     H216863   1.855   1.696   2.360
 5541WAT      O16864   7.652   8.307   8.502
 5541WAT     H116865   7.624   8.396   8.467
 5541WAT     H216866   7.639   8.238   8.431
 5542WAT      O16867   9.224   5.284   1.343
 5542WAT     H116868   9.174   5.346   1.282
 5542WAT     H216869   9.292   5.336   1.394
 5543WAT      O16870   6.889   9.150   7.326
 5543WAT     H116871   6.858   9.222   7.264
 5543WAT     H216872   6.983   9.125   7.305
 5544WAT      O16873   2.938   4.560   0.821
 5544WAT     H116874   2.845   4.598   0.832
 5544WAT     H216875   2.933   4.471   0.776
 5545WAT      O16876   7.029   4.621   6.894
 5545WAT     H116877   6.972   4.582   6.967
 5545WAT     H216878   7.004   4.717   6.880
 5546WAT      O16879   1.333   2.995   5.809
 5546WAT     H116880   1.253   2.953   5.851
 5546WAT     H216881   1.311   3.088   5.779
 5547WAT      O16882   6.500   7.541   8.578
 5547WAT     H116883   6.595   7.534   8.548
 5547WAT     H216884   6.474   7.457   8.626
 5548WAT      O16885   2.843   6.607   8.508
 5548WAT     H116886   2.934   6.568   8.521
 5548WAT     H216887   2.836   6.694   8.557
 5549WAT      O16888   3.143   3.859   5.997
 5549WAT     H116889   3.092   3.795   6.055
 5549WAT     H216890   3.117   3.845   5.901
 5550WAT      O16891   2.535   1.408   4.618
 5550WAT     H116892   2.630   1.377   4.626
 5550WAT     H216893   2.473   1.334   4.646
 5551WAT      O16894   4.570   8.553   8.009
 5551WAT     H116895   4.557   8.648   7.981
 5551WAT     H216896   4.551   8.545   8.107
 5552WAT      O16897   8.383   2.031   1.101
 5552WAT     H116898   8.431   2.090   1.036
 5552WAT     H216899   8.440   1.952   1.122
 5553WAT      O16900   8.247   1.823   4.448
 5553WAT     H116901   8.329   1.880   4.455
 5553WAT     H216902   8.270   1.730   4.476
 5554WAT      O16903   6.702   3.511   3.857
 5554WAT     H116904   6.727   3.418   3.829
 5554WAT     H216905   6.749   3.577   3.799
 5555WAT      O16906   6.207   6.213   1.695
 5555WAT     H116907   6.141   6.185   1.626
 5555WAT     H216908   6.159   6.242   1.778
 5556WAT      O16909   4.080   7.607   2.225
 5556WAT     H116910   4.018   7.639   2.152
 5556WAT     H216911   4.041   7.631   2.314
 5557WAT      O16912   0.282   9.134   1.793
 5557WAT     H116913   0.308   9.136   1.696
 5557WAT     H216914   0.262   9.227   1.824
 5558WAT      O16915   7.662   6.105   1.827
 5558WAT     H116916   7.624   6.138   1.913
 5558WAT     H216917   7.741   6.046   1.846
 5559WAT      O16918   6.314   7.863   3.059
 5559WAT     H116919   6.389   7.904   3.113
 5559WAT     H216920   6.301   7.916   2.976
 5560WAT      O16921   7.707   3.243   3.985
 5560WAT     H116922   7.662   3.162   3.948
 5560WAT     H216923   7.731   3.305   3.910
 5561WAT      O16924   5.339   3.541   1.445
 5561WAT     H116925   5.315   3.444   1.437
 5561WAT     H216926   5.257   3.597   1.435
 5562WAT      O16927   1.356   3.839   5.116
 5562WAT     H116928   1.371   3.870   5.209
 5562WAT     H216929   1.439   3.854   5.062
 5563WAT      O16930   4.078   7.188   8.889
 5563WAT     H116931   4.074   7.101   8.937
 5563WAT     H216932   3.988   7.231   8.891
 5564WAT      O16933   3.846   2.891   6.688
 5564WAT     H116934   3.773   2.825   6.669
 5564WAT     H216935   3.883   2.874   6.779
 5565WAT      O16936   4.684   3.325   5.773
 5565WAT     H116937   4.603   3.381   5.790
 5565WAT     H216938   4.746   3.331   5.852
 5566WAT      O16939   3.359   3.139   4.286
 5566WAT     H116940   3.445   3.181   4.315
 5566WAT     H216941   3.378   3.063   4.224
 5567WAT      O16942   2.849   8.013   3.391
 5567WAT     H116943   2.781   8.086   3.400
 5567WAT     H216944   2.911   8.034   3.316
 5568WAT      O16945   4.944   8.125   4.302
 5568WAT     H116946   4.876   8.069   4.254
 5568WAT     H216947   5.036   8.097   4.272
 5569WAT      O16948   0.889   3.862   0.963
 5569WAT     H116949   0.839   3.781   0.996
 5569WAT     H216950   0.823   3.934   0.941
 5570WAT      O16951   1.438   5.689   2.138
 5570WAT     H116952   1.401   5.761   2.080
 5570WAT     H216953   1.386   5.686   2.224
 5571WAT      O16954   7.435   1.436   2.578
 5571WAT     H116955   7.420   1.499   2.653
 5571WAT     H216956   7.362   1.446   2.510
 5572WAT      O16957   0.820   7.359   1.793
 5572WAT     H116958   0.824   7.363   1.693
 5572WAT     H216959   0.907   7.390   1.831
 5573WAT      O16960   1.706   9.656   4.256
 5573WAT     H116961   1.651   9.585   4.300
 5573WAT     H216962   1.724   9.730   4.322
 5574WAT      O16963   4.407   8.851   1.115
 5574WAT     H116964   4.459   8.910   1.177
 5574WAT     H216965   4.319   8.893   1.094
 5575WAT      O16966   8.237   4.994   9.550
 5575WAT     H116967   8.155   5.044   9.522
 5575WAT     H216968   8.264   5.023   9.642
 5576WAT      O16969   2.175   6.012   3.274
 5576WAT     H116970   2.154   6.043   3.366
 5576WAT     H216971   2.218   6.086   3.222
 5577WAT      O16972   3.898   4.897   8.970
 5577WAT     H116973   3.837   4.976   8.965
 5577WAT     H216974   3.985   4.924   9.011
 5578WAT      O16975   6.611   0.279   2.404
 5578WAT     H116976   6.615   0.309   2.309
 5578WAT     H216977   6.698   0.236   2.429
 5579WAT      O16978   4.203   3.025   5.883
 5579WAT     H116979   4.282   3.067   5.838
 5579WAT     H216980   4.205   2.926   5.869
 5580WAT      O16981   8.509   8.375   7.339
 5580WAT     H116982   8.430   8.436   7.338
 5580WAT     H216983   8.592   8.428   7.357
 5581WAT      O16984   2.595   2.343   3.408
 5581WAT     H116985   2.530   2.277   3.445
 5581WAT     H216986   2.613   2.322   3.312
 5582WAT      O16987   3.137   9.387   0.928
 5582WAT     H116988   3.150   9.315   0.996
 5582WAT     H216989   3.045   9.424   0.935
 5583WAT      O16990   3.183   9.690   1.663
 5583WAT     H116991   3.168   9.789   1.664
 5583WAT     H216992   3.147   9.650   1.747
 5584WAT      O16993   9.038   0.724   3.814
 5584WAT     H116994   8.959   0.786   3.815
 5584WAT     H216995   9.023   0.649   3.878
 5585WAT      O16996   1.454   2.172   4.092
 5585WAT     H116997   1.386   2.157   4.020
 5585WAT     H216998   1.409   2.173   4.181
 5586WAT      O16999   4.420   4.319   2.239
 5586WAT     H117000   4.385   4.250   2.175
 5586WAT     H217001   4.460   4.273   2.318
 5587WAT      O17002   6.379   2.935   3.608
 5587WAT     H117003   6.444   2.861   3.587
 5587WAT     H217004   6.287   2.897   3.614
 5588WAT      O17005   5.761   3.395   0.841
 5588WAT     H117006   5.860   3.410   0.837
 5588WAT     H217007   5.732   3.391   0.937
 5589WAT      O17008   8.925   0.407   1.864
 5589WAT     H117009   8.892   0.415   1.958
 5589WAT     H217010   8.938   0.499   1.826
 5590WAT      O17011   3.191   7.250   1.863
 5590WAT     H117012   3.257   7.298   1.805
 5590WAT     H217013   3.102   7.249   1.817
 5591WAT      O17014   3.679   8.984   1.069
 5591WAT     H117015   3.668   8.964   0.972
 5591WAT     H217016   3.637   9.073   1.090
 5592WAT      O17017   4.693   5.623   5.611
 5592WAT     H117018   4.726   5.684   5.683
 5592WAT     H217019   4.625   5.672   5.555
 5593WAT      O17020   1.988   9.122   0.169
 5593WAT     H117021   1.961   9.163   0.255
 5593WAT     H217022   2.085   9.141   0.151
 5594WAT      O17023   1.712   8.328   5.439
 5594WAT     H117024   1.722   8.378   5.525
 5594WAT     H217025   1.789   8.351   5.379
 5595WAT      O17026   8.355   9.778   6.719
 5595WAT     H117027   8.417   9.853   6.744
 5595WAT     H217028   8.265   9.816   6.697
 5596WAT      O17029   9.219   4.711   3.988
 5596WAT     H117030   9.290   4.655   3.945
 5596WAT     H217031   9.159   4.652   4.042
 5597WAT      O17032   4.884   6.454   5.723
 5597WAT     H117033   4.967   6.402   5.701
 5597WAT     H217034   4.804   6.396   5.712
 5598WAT      O17035   4.133   3.409   2.599
 5598WAT     H117036   4.161   3.313   2.593
 5598WAT     H217037   4.036   3.413   2.625
 5599WAT      O17038   6.393   7.905   6.172
 5599WAT     H117039   6.306   7.907   6.221
 5599WAT     H217040   6.462   7.953   6.225
 5600WAT      O17041   9.372   3.441   6.109
 5600WAT     H117042   9.278   3.407   6.103
 5600WAT     H217043   9.386   3.486   6.197
 5601WAT      O17044   4.565   9.569   1.981
 5601WAT     H117045   4.572   9.515   2.065
 5601WAT     H217046   4.656   9.600   1.954
 5602WAT      O17047   3.510   8.553   7.031
 5602WAT     H117048   3.503   8.591   6.939
 5602WAT     H217049   3.510   8.453   7.026
 5603WAT      O17050   4.873   1.020   1.030
 5603WAT     H117051   4.872   1.090   0.959
 5603WAT     H217052   4.940   1.044   1.100
 5604WAT      O17053   9.260   0.610   1.186
 5604WAT     H117054   9.340   0.564   1.224
 5604WAT     H217055   9.177   0.580   1.233
 5605WAT      O17056   4.398   0.263   5.967
 5605WAT     H117057   4.437   0.229   5.881
 5605WAT     H217058   4.395   0.189   6.034
 5606WAT      O17059   3.462   3.146   8.328
 5606WAT     H117060   3.528   3.085   8.284
 5606WAT     H217061   3.394   3.093   8.378
 5607WAT      O17062   7.992   8.214   0.092
 5607WAT     H117063   7.962   8.119   0.085
 5607WAT     H217064   7.978   8.260   0.003
 5608WAT      O17065   0.811   8.381   1.195
 5608WAT     H117066   0.784   8.308   1.133
 5608WAT     H217067   0.859   8.453   1.144
 5609WAT      O17068   1.816   9.774   7.510
 5609WAT     H117069   1.864   9.811   7.590
 5609WAT     H217070   1.768   9.690   7.536
 5610WAT      O17071   1.247   8.481   5.325
 5610WAT     H117072   1.209   8.399   5.370
 5610WAT     H217073   1.235   8.560   5.385
 5611WAT      O17074   1.545   9.535   3.197
 5611WAT     H117075   1.472   9.468   3.194
 5611WAT     H217076   1.585   9.544   3.105
 5612WAT      O17077   9.585   0.453   3.959
 5612WAT     H117078   9.506   0.397   3.931
 5612WAT     H217079   9.567   0.549   3.936
 5613WAT      O17080   7.311   6.222   2.121
 5613WAT     H117081   7.268   6.198   2.034
 5613WAT     H217082   7.267   6.172   2.195
 5614WAT      O17083   1.152   0.423   1.377
 5614WAT     H117084   1.154   0.383   1.469
 5614WAT     H217085   1.219   0.376   1.319
 5615WAT      O17086   8.916   8.091   7.161
 5615WAT     H117087   8.846   8.127   7.099
 5615WAT     H217088   8.958   8.167   7.211
 5616WAT      O17089   4.062   0.460   4.560
 5616WAT     H117090   4.003   0.529   4.602
 5616WAT     H217091   4.055   0.465   4.461
 5617WAT      O17092   6.966   0.809   4.118
 5617WAT     H117093   6.905   0.765   4.185
 5617WAT     H217094   7.055   0.764   4.118
 5618WAT      O17095   8.082   6.464   2.407
 5618WAT     H117096   8.051   6.558   2.390
 5618WAT     H217097   8.088   6.448   2.506
 5619WAT      O17098   7.852   3.396   1.939
 5619WAT     H117099   7.867   3.384   1.841
 5619WAT     H217100   7.853   3.494   1.961
 5620WAT      O17101   3.499   1.803   7.284
 5620WAT     H117102   3.472   1.710   7.259
 5620WAT     H217103   3.469   1.821   7.378
 5621WAT      O17104   9.461   4.599   0.163
 5621WAT     H117105   9.390   4.669   0.167
 5621WAT     H217106   9.536   4.632   0.105
 5622WAT      O17107   3.548   1.537   2.884
 5622WAT     H117108   3.496   1.548   2.799
 5622WAT     H217109   3.486   1.545   2.962
 5623WAT      O17110   0.745   7.025   3.626
 5623WAT     H117111   0.701   7.115   3.627
 5623WAT     H217112   0.719   6.974   3.709
 5624WAT      O17113   2.725   3.916   4.923
 5624WAT     H117114   2.778   3.946   4.844
 5624WAT     H217115   2.713   3.994   4.986
 5625WAT      O17116   0.024   8.514   5.737
 5625WAT     H117117  -0.012   8.564   5.815
 5625WAT     H217118   0.009   8.567   5.653
 5626WAT      O17119   8.968   4.889   9.161
 5626WAT     H117120   8.989   4.800   9.201
 5626WAT     H217121   9.045   4.918   9.103
 5627WAT      O17122   5.441   0.989   6.633
 5627WAT     H117123   5.536   1.010   6.656
 5627WAT     H217124   5.382   1.063   6.667
 5628WAT      O17125   4.374   3.552   1.359
 5628WAT     H117126   4.274   3.552   1.350
 5628WAT     H217127   4.399   3.599   1.444
 5629WAT      O17128   4.532   3.362   8.971
 5629WAT     H117129   4.619   3.313   8.964
 5629WAT     H217130   4.543   3.439   9.034
 5630WAT      O17131   9.294   0.329   4.867
 5630WAT     H117132   9.388   0.297   4.884
 5630WAT     H217133   9.231   0.281   4.928
 5631WAT      O17134   0.397   3.698   4.498
 5631WAT     H117135   0.325   3.712   4.431
 5631WAT     H217136   0.378   3.752   4.580
 5632WAT      O17137   7.547   1.195   7.426
 5632WAT     H117138   7.510   1.115   7.472
 5632WAT     H217139   7.495   1.276   7.452
 5633WAT      O17140   0.542   6.045   9.809
 5633WAT     H117141   0.540   5.957   9.762
 5633WAT     H217142   0.537   6.119   9.742
 5634WAT      O17143   2.083   0.908   0.701
 5634WAT     H117144   2.070   0.935   0.797
 5634WAT     H217145   2.167   0.948   0.666
 5635WAT      O17146   1.260   1.504   5.212
 5635WAT     H117147   1.311   1.576   5.259
 5635WAT     H217148   1.168   1.538   5.191
 5636WAT      O17149   0.283   5.447   2.226
 5636WAT     H117150   0.208   5.472   2.165
 5636WAT     H217151   0.316   5.529   2.273
 5637WAT      O17152   2.868   9.534   4.092
 5637WAT     H117153   2.857   9.444   4.050
 5637WAT     H217154   2.928   9.526   4.172
 5638WAT      O17155   2.678   6.438   8.698
 5638WAT     H117156   2.730   6.504   8.643
 5638WAT     H217157   2.703   6.345   8.672
 5639WAT      O17158   4.411   3.704   3.324
 5639WAT     H117159   4.412   3.669   3.230
 5639WAT     H217160   4.405   3.804   3.322
 5640WAT      O17161   3.744   0.570   2.291
 5640WAT     H117162   3.762   0.587   2.194
 5640WAT     H217163   3.659   0.518   2.300
 5641WAT      O17164   6.393   4.423   1.481
 5641WAT     H117165   6.410   4.336   1.527
 5641WAT     H217166   6.445   4.495   1.526
 5642WAT      O17167   3.704   6.646   6.482
 5642WAT     H117168   3.619   6.644   6.429
 5642WAT     H217169   3.684   6.672   6.576
 5643WAT      O17170   0.106   0.483   1.566
 5643WAT     H117171   0.076   0.548   1.636
 5643WAT     H217172   0.034   0.415   1.550
 5644WAT      O17173   8.948   5.821   4.343
 5644WAT     H117174   8.995   5.884   4.406
 5644WAT     H217175   8.983   5.729   4.358
 5645WAT      O17176   0.612   8.545   3.372
 5645WAT     H117177   0.556   8.626   3.361
 5645WAT     H217178   0.574   8.470   3.317
 5646WAT      O17179   9.426   7.970   2.165
 5646WAT     H117180   9.378   8.051   2.197
 5646WAT     H217181   9.446   7.910   2.243
 5647WAT      O17182   4.473   0.468   0.212
 5647WAT     H117183   4.545   0.504   0.271
 5647WAT     H217184   4.509   0.391   0.159
 5648WAT      O17185   9.390   0.893   3.518
 5648WAT     H117186   9.482   0.874   3.551
 5648WAT     H217187   9.336   0.808   3.518
 5649WAT      O17188   0.950   6.163   4.222
 5649WAT     H117189   0.976   6.095   4.154
 5649WAT     H217190   1.007   6.152   4.303
 5650WAT      O17191   2.530   2.597   6.725
 5650WAT     H117192   2.502   2.575   6.631
 5650WAT     H217193   2.465   2.557   6.789
 5651WAT      O17194   7.381   9.313   9.755
 5651WAT     H117195   7.315   9.317   9.679
 5651WAT     H217196   7.353   9.376   9.827
 5652WAT      O17197   8.243   1.879   5.449
 5652WAT     H117198   8.239   1.919   5.358
 5652WAT     H217199   8.312   1.927   5.504
 5653WAT      O17200   6.866   8.663   2.448
 5653WAT     H117201   6.891   8.568   2.434
 5653WAT     H217202   6.767   8.674   2.439
 5654WAT      O17203   7.904   3.782   7.667
 5654WAT     H117204   7.826   3.723   7.649
 5654WAT     H217205   7.891   3.870   7.622
 5655WAT      O17206   8.886   4.794   0.485
 5655WAT     H117207   8.936   4.783   0.572
 5655WAT     H217208   8.799   4.745   0.490
 5656WAT      O17209   8.722   4.449   7.949
 5656WAT     H117210   8.669   4.373   7.912
 5656WAT     H217211   8.793   4.414   8.010
 5657WAT      O17212   7.689   6.978   7.849
 5657WAT     H117213   7.607   6.931   7.879
 5657WAT     H217214   7.689   6.984   7.749
 5658WAT      O17215   6.398   7.861   8.900
 5658WAT     H117216   6.301   7.879   8.915
 5658WAT     H217217   6.413   7.835   8.805
 5659WAT      O17218   0.479   5.085   2.977
 5659WAT     H117219   0.380   5.098   2.966
 5659WAT     H217220   0.528   5.158   2.930
 5660WAT      O17221   0.057   5.048   0.331
 5660WAT     H117222   0.011   5.111   0.269
 5660WAT     H217223   0.079   4.964   0.282
 5661WAT      O17224   7.870   5.950   1.896
 5661WAT     H117225   7.831   5.938   1.987
 5661WAT     H217226   7.882   5.861   1.853
 5662WAT      O17227   6.209   7.765   1.794
 5662WAT     H117228   6.187   7.830   1.722
 5662WAT     H217229   6.252   7.813   1.870
 5663WAT      O17230   3.780   7.745   0.462
 5663WAT     H117231   3.787   7.657   0.416
 5663WAT     H217232   3.857   7.803   0.437
 5664WAT      O17233   0.177   7.111   8.097
 5664WAT     H117234   0.167   7.053   8.016
 5664WAT     H217235   0.151   7.204   8.074
 5665WAT      O17236   8.631   8.124   6.324
 5665WAT     H117237   8.649   8.155   6.231
 5665WAT     H217238   8.647   8.199   6.388
 5666WAT      O17239   4.836   0.686   1.423
 5666WAT     H117240   4.759   0.673   1.360
 5666WAT     H217241   4.827   0.775   1.468
 5667WAT      O17242   7.603   5.480   7.630
 5667WAT     H117243   7.519   5.490   7.576
 5667WAT     H217244   7.660   5.408   7.589
 5668WAT      O17245   0.346   6.540   6.457
 5668WAT     H117246   0.263   6.539   6.513
 5668WAT     H217247   0.402   6.619   6.482
 5669WAT      O17248   4.907   2.890   5.347
 5669WAT     H117249   4.850   2.873   5.266
 5669WAT     H217250   4.850   2.893   5.429
 5670WAT      O17251   7.142   7.671   3.590
 5670WAT     H117252   7.234   7.709   3.579
 5670WAT     H217253   7.143   7.602   3.662
 5671WAT      O17254   9.714   7.681   3.966
 5671WAT     H117255   9.650   7.606   3.976
 5671WAT     H217256   9.755   7.679   3.875
 5672WAT      O17257   8.330   4.969   9.280
 5672WAT     H117258   8.280   4.944   9.363
 5672WAT     H217259   8.285   4.930   9.200
 5673WAT      O17260   4.291   6.565   5.987
 5673WAT     H117261   4.287   6.469   6.013
 5673WAT     H217262   4.387   6.595   5.983
 5674WAT      O17263   1.293   1.878   7.289
 5674WAT     H117264   1.287   1.827   7.375
 5674WAT     H217265   1.373   1.847   7.237
 5675WAT      O17266   3.765   2.262   6.392
 5675WAT     H117267   3.826   2.218   6.327
 5675WAT     H217268   3.757   2.205   6.474
 5676WAT      O17269   8.858   1.518   9.798
 5676WAT     H117270   8.799   1.587   9.755
 5676WAT     H217271   8.802   1.441   9.829
 5677WAT      O17272   2.242   9.128   2.069
 5677WAT     H117273   2.261   9.096   2.162
 5677WAT     H217274   2.317   9.103   2.008
 5678WAT      O17275   0.648   8.205   0.802
 5678WAT     H117276   0.663   8.130   0.738
 5678WAT     H217277   0.673   8.292   0.758
 5679WAT      O17278   0.050   8.177   6.626
 5679WAT     H117279   0.010   8.089   6.601
 5679WAT     H217280   0.060   8.233   6.544
 5680WAT      O17281   3.397   8.335   5.864
 5680WAT     H117282   3.482   8.290   5.890
 5680WAT     H217283   3.327   8.318   5.934
 5681WAT      O17284   0.493   5.517   5.121
 5681WAT     H117285   0.523   5.422   5.119
 5681WAT     H217286   0.404   5.523   5.165
 5682WAT      O17287   2.489   0.538   5.437
 5682WAT     H117288   2.429   0.469   5.478
 5682WAT     H217289   2.457   0.557   5.344
 5683WAT      O17290   9.371   9.463   5.900
 5683WAT     H117291   9.431   9.412   5.840
 5683WAT     H217292   9.401   9.453   5.995
 5684WAT      O17293   0.670   4.130   7.895
 5684WAT     H117294   0.695   4.211   7.949
 5684WAT     H217295   0.640   4.159   7.804
 5685WAT      O17296   0.227   5.211   8.357
 5685WAT     H117297   0.134   5.186   8.331
 5685WAT     H217298   0.292   5.157   8.305
 5686WAT      O17299   7.494   7.442   7.930
 5686WAT     H117300   7.457   7.459   8.021
 5686WAT     H217301   7.457   7.356   7.894
 5687WAT      O17302   3.728   4.342   0.742
 5687WAT     H117303   3.816   4.352   0.787
 5687WAT     H217304   3.663   4.409   0.779
 5688WAT      O17305   4.696   5.295   7.420
 5688WAT     H117306   4.671   5.331   7.331
 5688WAT     H217307   4.778   5.342   7.453
 5689WAT      O17308   7.567   3.707   3.592
 5689WAT     H117309   7.627   3.780   3.626
 5689WAT     H217310   7.583   3.694   3.494
 5690WAT      O17311   1.423   3.602   6.107
 5690WAT     H117312   1.365   3.582   6.029
 5690WAT     H217313   1.513   3.633   6.076
 5691WAT      O17314   7.652   6.712   8.358
 5691WAT     H117315   7.565   6.683   8.397
 5691WAT     H217316   7.651   6.695   8.259
 5692WAT      O17317   5.710   8.042   8.595
 5692WAT     H117318   5.713   8.091   8.682
 5692WAT     H217319   5.759   7.956   8.603
 5693WAT      O17320   8.330   6.905   8.553
 5693WAT     H117321   8.341   7.003   8.566
 5693WAT     H217322   8.252   6.888   8.492
 5694WAT      O17323   4.310   1.871   6.306
 5694WAT     H117324   4.251   1.913   6.375
 5694WAT     H217325   4.275   1.780   6.283
 5695WAT      O17326   6.152   5.538   1.842
 5695WAT     H117327   6.238   5.491   1.822
 5695WAT     H217328   6.163   5.594   1.924
 5696WAT      O17329   8.104   1.431   2.927
 5696WAT     H117330   8.037   1.394   2.863
 5696WAT     H217331   8.195   1.430   2.884
 5697WAT      O17332   5.963   7.019   1.113
 5697WAT     H117333   5.991   7.086   1.182
 5697WAT     H217334   6.038   7.003   1.049
 5698WAT      O17335   5.585   9.225   5.872
 5698WAT     H117336   5.649   9.250   5.945
 5698WAT     H217337   5.616   9.266   5.786
 5699WAT      O17338   7.273   5.767   9.104
 5699WAT     H117339   7.183   5.756   9.060
 5699WAT     H217340   7.293   5.864   9.117
 5700WAT      O17341   0.595   6.094   5.177
 5700WAT     H117342   0.606   5.997   5.201
 5700WAT     H217343   0.618   6.151   5.255
 5701WAT      O17344   9.237   0.818   7.070
 5701WAT     H117345   9.223   0.726   7.033
 5701WAT     H217346   9.211   0.818   7.167
 5702WAT      O17347   1.254   0.775   6.004
 5702WAT     H117348   1.196   0.696   6.021
 5702WAT     H217349   1.344   0.760   6.044
 5703WAT      O17350   4.147   5.542   5.157
 5703WAT     H117351   4.164   5.640   5.167
 5703WAT     H217352   4.128   5.502   5.247
 5704WAT      O17353   3.720   0.753   7.042
 5704WAT     H117354   3.701   0.683   7.111
 5704WAT     H217355   3.636   0.803   7.022
 5705WAT      O17356   4.166   1.575   2.943
 5705WAT     H117357   4.078   1.530   2.925
 5705WAT     H217358   4.150   1.661   2.992
 5706WAT      O17359   5.785   8.392   1.987
 5706WAT     H117360   5.789   8.424   1.892
 5706WAT     H217361   5.767   8.470   2.047
 5707WAT      O17362   0.132   9.616   7.356
 5707WAT     H117363   0.116   9.698   7.300
 5707WAT     H217364   0.136   9.641   7.452
 5708WAT      O17365   1.728   8.138   4.108
 5708WAT     H117366   1.652   8.085   4.145
 5708WAT     H217367   1.814   8.097   4.139
 5709WAT      O17368   4.376   6.979   6.234
 5709WAT     H117369   4.448   6.923   6.275
 5709WAT     H217370   4.322   6.923   6.171
 5710WAT      O17371   5.902   9.469   1.886
 5710WAT     H117372   5.897   9.380   1.841
 5710WAT     H217373   5.955   9.532   1.829
 5711WAT      O17374   5.461   5.456   0.157
 5711WAT     H117375   5.366   5.474   0.181
 5711WAT     H217376   5.518   5.462   0.238
 5712WAT      O17377   0.440   4.294   3.251
 5712WAT     H117378   0.397   4.230   3.314
 5712WAT     H217379   0.453   4.382   3.296
 5713WAT      O17380   2.920   0.383   7.235
 5713WAT     H117381   2.914   0.481   7.216
 5713WAT     H217382   2.918   0.333   7.148
 5714WAT      O17383   5.324   5.136   2.210
 5714WAT     H117384   5.362   5.210   2.265
 5714WAT     H217385   5.341   5.049   2.256
 5715WAT      O17386   9.052   4.376   8.511
 5715WAT     H117387   9.139   4.328   8.520
 5715WAT     H217388   9.042   4.412   8.419
 5716WAT      O17389   5.217   4.019   7.843
 5716WAT     H117390   5.146   4.076   7.801
 5716WAT     H217391   5.201   3.923   7.820
 5717WAT      O17392   0.102   6.737   4.839
 5717WAT     H117393   0.138   6.776   4.924
 5717WAT     H217394   0.009   6.705   4.854
 5718WAT      O17395   5.966   5.569   8.832
 5718WAT     H117396   5.971   5.470   8.817
 5718WAT     H217397   6.055   5.603   8.862
 5719WAT      O17398   7.540   9.121   1.351
 5719WAT     H117399   7.609   9.110   1.280
 5719WAT     H217400   7.522   9.218   1.365
 5720WAT      O17401   1.074   1.297   1.047
 5720WAT     H117402   1.031   1.361   1.111
 5720WAT     H217403   1.060   1.328   0.953
 5721WAT      O17404   9.849   2.260   0.651
 5721WAT     H117405   9.916   2.251   0.578
 5721WAT     H217406   9.896   2.277   0.738
 5722WAT      O17407   1.959   5.435   8.092
 5722WAT     H117408   2.035   5.398   8.037
 5722WAT     H217409   1.991   5.516   8.142
 5723WAT      O17410   6.322   1.688   1.028
 5723WAT     H117411   6.364   1.762   0.975
 5723WAT     H217412   6.347   1.600   0.989
 5724WAT      O17413   1.920   0.271   8.808
 5724WAT     H117414   2.005   0.226   8.780
 5724WAT     H217415   1.856   0.271   8.731
 5725WAT      O17416   7.427   4.830   6.944
 5725WAT     H117417   7.401   4.733   6.935
 5725WAT     H217418   7.526   4.839   6.936
 5726WAT      O17419   5.651   0.593   4.414
 5726WAT     H117420   5.699   0.679   4.398
 5726WAT     H217421   5.598   0.569   4.332
 5727WAT      O17422   4.960   5.737   1.352
 5727WAT     H117423   4.984   5.663   1.415
 5727WAT     H217424   4.917   5.811   1.402
 5728WAT      O17425   2.705   8.978   7.504
 5728WAT     H117426   2.782   8.932   7.461
 5728WAT     H217427   2.697   9.071   7.468
 5729WAT      O17428   3.247   1.198   1.320
 5729WAT     H117429   3.262   1.116   1.266
 5729WAT     H217430   3.152   1.227   1.310
 5730WAT      O17431   4.500   1.005   5.429
 5730WAT     H117432   4.556   0.923   5.417
 5730WAT     H217433   4.483   1.048   5.340
 5731WAT      O17434   0.922   7.910   0.652
 5731WAT     H117435   0.947   7.814   0.666
 5731WAT     H217436   0.825   7.922   0.673
 5732WAT      O17437   2.958   7.073   8.310
 5732WAT     H117438   2.864   7.057   8.339
 5732WAT     H217439   2.997   7.148   8.363
 5733WAT      O17440   9.250   4.103   4.943
 5733WAT     H117441   9.179   4.033   4.951
 5733WAT     H217442   9.338   4.058   4.926
 5734WAT      O17443   7.877   3.357   3.326
 5734WAT     H117444   7.958   3.335   3.380
 5734WAT     H217445   7.904   3.417   3.250
 5735WAT      O17446   6.001   3.652   3.825
 5735WAT     H117447   5.946   3.596   3.763
 5735WAT     H217448   6.027   3.598   3.905
 5736WAT      O17449   7.287   0.007   6.306
 5736WAT     H117450   7.221  -0.069   6.304
 5736WAT     H217451   7.303   0.034   6.400
 5737WAT      O17452   8.210   6.532   3.361
 5737WAT     H117453   8.178   6.516   3.267
 5737WAT     H217454   8.170   6.617   3.396
 5738WAT      O17455   9.399   6.907   6.063
 5738WAT     H117456   9.360   6.817   6.082
 5738WAT     H217457   9.348   6.977   6.113
 5739WAT      O17458   1.513   9.458   5.071
 5739WAT     H117459   1.507   9.377   5.013
 5739WAT     H217460   1.459   9.532   5.031
 5740WAT      O17461   6.114   3.398   7.207
 5740WAT     H117462   6.115   3.298   7.198
 5740WAT     H217463   6.188   3.437   7.153
 5741WAT      O17464   8.789   6.361   9.361
 5741WAT     H117465   8.768   6.459   9.361
 5741WAT     H217466   8.857   6.342   9.290
 5742WAT      O17467   8.951   7.961   1.436
 5742WAT     H117468   8.991   7.936   1.524
 5742WAT     H217469   8.868   8.016   1.451
 5743WAT      O17470   1.731   9.400   1.834
 5743WAT     H117471   1.725   9.353   1.746
 5743WAT     H217472   1.747   9.497   1.818
 5744WAT      O17473   8.689   9.475   3.623
 5744WAT     H117474   8.760   9.447   3.688
 5744WAT     H217475   8.623   9.401   3.612
 5745WAT      O17476   5.585   0.209   0.029
 5745WAT     H117477   5.545   0.164  -0.051
 5745WAT     H217478   5.520   0.206   0.105
 5746WAT      O17479   7.711   3.992   8.940
 5746WAT     H117480   7.627   4.027   8.981
 5746WAT     H217481   7.779   3.977   9.012
 5747WAT      O17482   2.070   5.848   6.515
 5747WAT     H117483   2.066   5.885   6.608
 5747WAT     H217484   2.028   5.757   6.514
 5748WAT      O17485   3.388   3.760   0.546
 5748WAT     H117486   3.400   3.802   0.636
 5748WAT     H217487   3.471   3.711   0.521
 5749WAT      O17488   5.905   1.306   6.045
 5749WAT     H117489   5.967   1.370   6.001
 5749WAT     H217490   5.957   1.243   6.102
 5750WAT      O17491   8.187   5.340   4.660
 5750WAT     H117492   8.181   5.440   4.655
 5750WAT     H217493   8.281   5.311   4.644
 5751WAT      O17494   0.197   6.258   8.262
 5751WAT     H117495   0.178   6.233   8.167
 5751WAT     H217496   0.150   6.193   8.323
 5752WAT      O17497   6.934   4.156   4.486
 5752WAT     H117498   6.847   4.125   4.448
 5752WAT     H217499   6.995   4.184   4.412
 5753WAT      O17500   8.042   0.948   4.356
 5753WAT     H117501   7.995   1.032   4.327
 5753WAT     H217502   8.093   0.911   4.278
 5754WAT      O17503   9.733   6.398   4.941
 5754WAT     H117504   9.719   6.306   4.979
 5754WAT     H217505   9.761   6.389   4.845
 5755WAT      O17506   1.335   9.770   6.760
 5755WAT     H117507   1.431   9.743   6.768
 5755WAT     H217508   1.286   9.704   6.704
 5756WAT      O17509   5.175   8.162   0.741
 5756WAT     H117510   5.171   8.257   0.770
 5756WAT     H217511   5.246   8.151   0.672
 5757WAT      O17512   7.332   4.701   4.060
 5757WAT     H117513   7.432   4.696   4.068
 5757WAT     H217514   7.300   4.785   4.105
 5758WAT      O17515   0.365   0.209   4.134
 5758WAT     H117516   0.353   0.233   4.230
 5758WAT     H217517   0.452   0.245   4.101
 5759WAT      O17518   3.068   8.108   3.251
 5759WAT     H117519   3.100   8.200   3.276
 5759WAT     H217520   3.135   8.040   3.280
 5760WAT      O17521   8.995   6.961   9.559
 5760WAT     H117522   9.088   6.932   9.534
 5760WAT     H217523   8.953   6.892   9.617
 5761WAT      O17524   0.586   2.553   8.197
 5761WAT     H117525   0.665   2.494   8.215
 5761WAT     H217526   0.610   2.647   8.221
 5762WAT      O17527   3.609   1.904   3.198
 5762WAT     H117528   3.617   1.975   3.267
 5762WAT     H217529   3.519   1.860   3.205
 5763WAT      O17530   0.358   9.521   1.775
 5763WAT     H117531   0.285   9.580   1.742
 5763WAT     H217532   0.340   9.496   1.870
 5764WAT      O17533   1.538   8.318   4.518
 5764WAT     H117534   1.574   8.367   4.598
 5764WAT     H217535   1.465   8.257   4.547
 5765WAT      O17536   2.337   4.210   5.588
 5765WAT     H117537   2.372   4.220   5.681
 5765WAT     H217538   2.361   4.120   5.552
 5766WAT      O17539   7.619   6.456   5.153
 5766WAT     H117540   7.670   6.530   5.197
 5766WAT     H217541   7.593   6.388   5.222
 5767WAT      O17542   3.774   8.641   6.728
 5767WAT     H117543   3.793   8.637   6.826
 5767WAT     H217544   3.842   8.699   6.682
 5768WAT      O17545   4.368   2.400   9.729
 5768WAT     H117546   4.286   2.350   9.699
 5768WAT     H217547   4.364   2.493   9.693
 5769WAT      O17548   8.009   8.209   2.491
 5769WAT     H117549   7.957   8.235   2.410
 5769WAT     H217550   7.987   8.271   2.566
 5770WAT      O17551   6.722   7.783   6.401
 5770WAT     H117552   6.726   7.829   6.312
 5770WAT     H217553   6.737   7.685   6.389
 5771WAT      O17554   7.607   5.503   4.191
 5771WAT     H117555   7.672   5.429   4.177
 5771WAT     H217556   7.531   5.493   4.127
 5772WAT      O17557   0.771   4.678   0.375
 5772WAT     H117558   0.732   4.712   0.290
 5772WAT     H217559   0.755   4.745   0.448
 5773WAT      O17560   6.794   4.580   7.117
 5773WAT     H117561   6.778   4.670   7.076
 5773WAT     H217562   6.722   4.517   7.089
 5774WAT      O17563   1.678   0.484   4.545
 5774WAT     H117564   1.601   0.421   4.559
 5774WAT     H217565   1.698   0.531   4.630
 5775WAT      O17566   9.285   4.584   7.164
 5775WAT     H117567   9.273   4.563   7.067
 5775WAT     H217568   9.204   4.552   7.214
 5776WAT      O17569   1.797   7.244   5.744
 5776WAT     H117570   1.712   7.264   5.792
 5776WAT     H217571   1.813   7.146   5.742
 5777WAT      O17572   2.909   6.536   6.734
 5777WAT     H117573   2.948   6.589   6.810
 5777WAT     H217574   2.811   6.557   6.727
 5778WAT      O17575   6.474   4.866   6.343
 5778WAT     H117576   6.513   4.941   6.396
 5778WAT     H217577   6.541   4.793   6.335
 5779WAT      O17578   5.963   5.085   8.885
 5779WAT     H117579   6.037   5.076   8.952
 5779WAT     H217580   5.875   5.087   8.933
 5780WAT      O17581   1.237   1.868   6.481
 5780WAT     H117582   1.254   1.955   6.435
 5780WAT     H217583   1.139   1.861   6.504
 5781WAT      O17584   3.124   5.848   8.832
 5781WAT     H117585   3.137   5.819   8.927
 5781WAT     H217586   3.212   5.876   8.794
 5782WAT      O17587   8.631   5.642   4.418
 5782WAT     H117588   8.615   5.655   4.320
 5782WAT     H217589   8.729   5.625   4.433
 5783WAT      O17590   5.447   6.727   4.319
 5783WAT     H117591   5.486   6.772   4.238
 5783WAT     H217592   5.443   6.793   4.394
 5784WAT      O17593   0.544   5.717   3.846
 5784WAT     H117594   0.642   5.715   3.867
 5784WAT     H217595   0.496   5.769   3.916
 5785WAT      O17596   6.071   6.404   2.122
 5785WAT     H117597   6.164   6.373   2.143
 5785WAT     H217598   6.009   6.374   2.194
 5786WAT      O17599   7.771   2.549   1.406
 5786WAT     H117600   7.797   2.496   1.325
 5786WAT     H217601   7.674   2.573   1.400
 5787WAT      O17602   6.365   2.461   5.117
 5787WAT     H117603   6.428   2.530   5.154
 5787WAT     H217604   6.415   2.376   5.100
 5788WAT      O17605   7.529   3.797   5.523
 5788WAT     H117606   7.486   3.830   5.440
 5788WAT     H217607   7.588   3.868   5.562
 5789WAT      O17608   1.600   6.760   8.266
 5789WAT     H117609   1.607   6.858   8.246
 5789WAT     H217610   1.562   6.747   8.357
 5790WAT      O17611   5.847   7.776   0.087
 5790WAT     H117612   5.901   7.771   0.172
 5790WAT     H217613   5.847   7.870   0.054
 5791WAT      O17614   6.915   4.022   1.693
 5791WAT     H117615   6.871   3.957   1.755
 5791WAT     H217616   6.938   4.105   1.743
 5792WAT      O17617   7.958   0.054   9.343
 5792WAT     H117618   7.938   0.008   9.257
 5792WAT     H217619   8.044   0.104   9.336
 5793WAT      O17620   1.728   5.365   0.007
 5793WAT     H117621   1.668   5.422   0.063
 5793WAT     H217622   1.687   5.275  -0.004
 5794WAT      O17623   8.486   0.116   4.830
 5794WAT     H117624   8.408   0.053   4.824
 5794WAT     H217625   8.568   0.070   4.796
 5795WAT      O17626   3.649   9.566   2.963
 5795WAT     H117627   3.667   9.662   2.981
 5795WAT     H217628   3.709   9.533   2.890
 5796WAT      O17629   7.766   6.432   4.197
 5796WAT     H117630   7.863   6.423   4.178
 5796WAT     H217631   7.713   6.382   4.129
 5797WAT      O17632   9.846   6.769   6.704
 5797WAT     H117633   9.758   6.811   6.683
 5797WAT     H217634   9.874   6.795   6.797
 5798WAT      O17635   1.499   9.096   3.230
 5798WAT     H117636   1.456   9.173   3.182
 5798WAT     H217637   1.505   9.018   3.168
 5799WAT      O17638   3.881   0.939   2.259
 5799WAT     H117639   3.888   0.980   2.168
 5799WAT     H217640   3.970   0.902   2.285
 5800WAT      O17641   1.080   8.905   3.461
 5800WAT     H117642   1.099   8.972   3.533
 5800WAT     H217643   1.140   8.923   3.382
 5801WAT      O17644   5.923   0.237   6.197
 5801WAT     H117645   5.960   0.150   6.230
 5801WAT     H217646   5.827   0.245   6.222
 5802WAT      O17647   9.358   5.565   8.899
 5802WAT     H117648   9.399   5.618   8.974
 5802WAT     H217649   9.303   5.491   8.937
 5803WAT      O17650   4.282   4.577   1.525
 5803WAT     H117651   4.277   4.552   1.428
 5803WAT     H217652   4.323   4.668   1.533
 5804WAT      O17653   5.219   5.441   5.215
 5804WAT     H117654   5.160   5.364   5.239
 5804WAT     H217655   5.310   5.407   5.192
 5805WAT      O17656   7.151   7.501   3.849
 5805WAT     H117657   7.095   7.418   3.848
 5805WAT     H217658   7.246   7.476   3.871
 5806WAT      O17659   1.280   4.599   6.009
 5806WAT     H117660   1.277   4.652   6.093
 5806WAT     H217661   1.361   4.540   6.009
 5807WAT      O17662   6.735   6.696   4.622
 5807WAT     H117663   6.645   6.655   4.622
 5807WAT     H217664   6.803   6.628   4.649
 5808WAT      O17665   0.294   7.304   7.755
 5808WAT     H117666   0.280   7.387   7.807
 5808WAT     H217667   0.213   7.246   7.761
 5809WAT      O17668   5.266   7.497   3.548
 5809WAT     H117669   5.279   7.405   3.585
 5809WAT     H217670   5.192   7.543   3.598
 5810WAT      O17671   4.239   1.637   1.248
 5810WAT     H117672   4.259   1.683   1.161
 5810WAT     H217673   4.325   1.623   1.298
 5811WAT      O17674   8.935   2.582   0.327
 5811WAT     H117675   8.899   2.503   0.279
 5811WAT     H217676   9.023   2.608   0.288
 5812WAT      O17677   6.871   9.611   4.243
 5812WAT     H117678   6.891   9.691   4.299
 5812WAT     H217679   6.862   9.530   4.301
 5813WAT      O17680   2.905   8.174   0.101
 5813WAT     H117681   2.911   8.215   0.192
 5813WAT     H217682   2.961   8.227   0.037
 5814WAT      O17683   3.648   0.067   4.157
 5814WAT     H117684   3.616   0.161   4.157
 5814WAT     H217685   3.655   0.034   4.063
 5815WAT      O17686   0.935   2.924   3.715
 5815WAT     H117687   1.021   2.878   3.696
 5815WAT     H217688   0.864   2.856   3.734
 5816WAT      O17689   0.050   6.989   8.608
 5816WAT     H117690   0.122   6.939   8.656
 5816WAT     H217691   0.069   6.990   8.510
 5817WAT      O17692   6.892   2.000   9.527
 5817WAT     H117693   6.811   1.942   9.522
 5817WAT     H217694   6.869   2.093   9.498
 5818WAT      O17695   0.211   8.002   7.548
 5818WAT     H117696   0.219   8.095   7.582
 5818WAT     H217697   0.283   7.945   7.587
 5819WAT      O17698   1.383   2.467   1.256
 5819WAT     H117699   1.381   2.418   1.344
 5819WAT     H217700   1.355   2.405   1.183
 5820WAT      O17701   4.394   4.262   5.293
 5820WAT     H117702   4.455   4.340   5.290
 5820WAT     H217703   4.362   4.248   5.387
 5821WAT      O17704   7.663   5.661   8.061
 5821WAT     H117705   7.651   5.566   8.089
 5821WAT     H217706   7.642   5.722   8.137
 5822WAT      O17707   4.003   6.974   6.292
 5822WAT     H117708   4.001   6.884   6.336
 5822WAT     H217709   4.076   7.028   6.331
 5823WAT      O17710   3.664   9.029   9.802
 5823WAT     H117711   3.699   8.936   9.789
 5823WAT     H217712   3.612   9.034   9.888
 5824WAT      O17713   0.425   6.171   4.968
 5824WAT     H117714   0.434   6.111   4.889
 5824WAT     H217715   0.493   6.146   5.037
 5825WAT      O17716   4.207   2.591   6.363
 5825WAT     H117717   4.263   2.559   6.439
 5825WAT     H217718   4.138   2.655   6.397
 5826WAT      O17719   6.623   2.728   9.446
 5826WAT     H117720   6.589   2.636   9.425
 5826WAT     H217721   6.606   2.749   9.542
 5827WAT      O17722   7.905   9.226   5.033
 5827WAT     H117723   7.988   9.281   5.036
 5827WAT     H217724   7.838   9.270   4.974
 5828WAT      O17725   8.273   0.120   6.123
 5828WAT     H117726   8.244   0.206   6.166
 5828WAT     H217727   8.363   0.094   6.158
 5829WAT      O17728   8.417   9.593   2.869
 5829WAT     H117729   8.459   9.684   2.873
 5829WAT     H217730   8.339   9.589   2.932
 5830WAT      O17731   6.539   6.548   0.339
 5830WAT     H117732   6.476   6.533   0.263
 5830WAT     H217733   6.627   6.580   0.304
 5831WAT      O17734   1.259   0.411   3.156
 5831WAT     H117735   1.297   0.498   3.126
 5831WAT     H217736   1.268   0.344   3.082
 5832WAT      O17737   5.180   3.029   3.756
 5832WAT     H117738   5.175   2.946   3.700
 5832WAT     H217739   5.151   3.007   3.849
 5833WAT      O17740   0.876   2.930   8.215
 5833WAT     H117741   0.878   3.029   8.200
 5833WAT     H217742   0.943   2.905   8.285
 5834WAT      O17743   5.301   7.047   6.148
 5834WAT     H117744   5.353   7.116   6.099
 5834WAT     H217745   5.300   7.067   6.245
 5835WAT      O17746   0.011   1.044   5.446
 5835WAT     H117747  -0.062   0.977   5.430
 5835WAT     H217748   0.090   0.998   5.485
 5836WAT      O17749   3.947   4.719   2.412
 5836WAT     H117750   3.979   4.791   2.472
 5836WAT     H217751   3.908   4.759   2.329
 5837WAT      O17752   3.795   7.654   8.824
 5837WAT     H117753   3.890   7.685   8.819
 5837WAT     H217754   3.758   7.674   8.915
 5838WAT      O17755   5.900   9.248   5.478
 5838WAT     H117756   5.894   9.190   5.396
 5838WAT     H217757   5.808   9.267   5.512
 5839WAT      O17758   7.186   2.359   0.063
 5839WAT     H117759   7.152   2.433   0.005
 5839WAT     H217760   7.124   2.346   0.140
 5840WAT      O17761   1.964   2.544   4.251
 5840WAT     H117762   2.052   2.501   4.231
 5840WAT     H217763   1.951   2.552   4.350
 5841WAT      O17764   4.282   1.748   2.541
 5841WAT     H117765   4.362   1.711   2.588
 5841WAT     H217766   4.303   1.839   2.506
 5842WAT      O17767   4.020   6.439   4.702
 5842WAT     H117768   4.077   6.489   4.638
 5842WAT     H217769   4.036   6.472   4.795
 5843WAT      O17770   5.214   5.540   8.377
 5843WAT     H117771   5.183   5.597   8.452
 5843WAT     H217772   5.179   5.447   8.388
 5844WAT      O17773   9.227   5.692   4.369
 5844WAT     H117774   9.269   5.700   4.278
 5844WAT     H217775   9.286   5.737   4.437
 5845WAT      O17776   6.135   8.412   2.099
 5845WAT     H117777   6.217   8.464   2.124
 5845WAT     H217778   6.117   8.343   2.169
 5846WAT      O17779   1.201   5.811   9.565
 5846WAT     H117780   1.235   5.904   9.549
 5846WAT     H217781   1.140   5.785   9.490
 5847WAT      O17782   5.055   0.120   4.510
 5847WAT     H117783   5.099   0.209   4.501
 5847WAT     H217784   5.124   0.049   4.521
 5848WAT      O17785   1.854   6.112   3.385
 5848WAT     H117786   1.805   6.100   3.471
 5848WAT     H217787   1.936   6.167   3.400
 5849WAT      O17788   6.525   1.802   7.029
 5849WAT     H117789   6.519   1.830   7.125
 5849WAT     H217790   6.616   1.825   6.994
 5850WAT      O17791   5.852   0.901   5.362
 5850WAT     H117792   5.779   0.859   5.415
 5850WAT     H217793   5.905   0.830   5.316
 5851WAT      O17794   1.692   1.106   2.522
 5851WAT     H117795   1.613   1.074   2.470
 5851WAT     H217796   1.743   1.027   2.556
 5852WAT      O17797   0.556   0.105   0.203
 5852WAT     H117798   0.513   0.097   0.294
 5852WAT     H217799   0.618   0.028   0.189
 5853WAT      O17800   4.090   1.234   7.904
 5853WAT     H117801   3.990   1.229   7.914
 5853WAT     H217802   4.113   1.308   7.841
 5854WAT      O17803   4.170   2.515   8.738
 5854WAT     H117804   4.207   2.582   8.673
 5854WAT     H217805   4.244   2.479   8.794
 5855WAT      O17806   1.528   0.288   2.554
 5855WAT     H117807   1.511   0.193   2.531
 5855WAT     H217808   1.448   0.327   2.599
 5856WAT      O17809   0.335   4.234   9.598
 5856WAT     H117810   0.286   4.266   9.517
 5856WAT     H217811   0.421   4.284   9.607
 5857WAT      O17812   8.068   7.650   5.958
 5857WAT     H117813   8.142   7.599   6.001
 5857WAT     H217814   8.005   7.587   5.913
 5858WAT      O17815   5.052   0.810   0.923
 5858WAT     H117816   5.037   0.724   0.972
 5858WAT     H217817   4.988   0.879   0.956
 5859WAT      O17818   8.728   6.445   3.621
 5859WAT     H117819   8.793   6.389   3.671
 5859WAT     H217820   8.638   6.402   3.622
 5860WAT      O17821   5.182   9.557   8.697
 5860WAT     H117822   5.199   9.649   8.663
 5860WAT     H217823   5.175   9.559   8.797
 5861WAT      O17824   2.088   8.219   0.076
 5861WAT     H117825   2.119   8.286   0.009
 5861WAT     H217826   2.143   8.227   0.159
 5862WAT      O17827   9.277   0.697   8.483
 5862WAT     H117828   9.275   0.783   8.432
 5862WAT     H217829   9.372   0.669   8.498
 5863WAT      O17830   1.265   0.705   4.875
 5863WAT     H117831   1.204   0.770   4.828
 5863WAT     H217832   1.356   0.709   4.832
 5864WAT      O17833   6.285   0.787   0.245
 5864WAT     H117834   6.328   0.698   0.227
 5864WAT     H217835   6.293   0.845   0.165
 5865WAT      O17836   9.032   8.607   9.148
 5865WAT     H117837   9.060   8.524   9.196
 5865WAT     H217838   9.113   8.662   9.127
 5866WAT      O17839   2.024   3.977   3.873
 5866WAT     H117840   2.055   3.885   3.898
 5866WAT     H217841   2.061   4.002   3.784
 5867WAT      O17842   0.885   4.306   4.696
 5867WAT     H117843   0.834   4.228   4.733
 5867WAT     H217844   0.972   4.274   4.658
 5868WAT      O17845   9.013   1.521   0.307
 5868WAT     H117846   9.094   1.557   0.354
 5868WAT     H217847   9.039   1.491   0.215
 5869WAT      O17848   6.945   8.702   9.541
 5869WAT     H117849   6.867   8.641   9.558
 5869WAT     H217850   6.912   8.787   9.500
 5870WAT      O17851   3.139   8.372   3.277
 5870WAT     H117852   3.238   8.385   3.283
 5870WAT     H217853   3.101   8.362   3.368
 5871WAT      O17854   2.106   3.296   9.607
 5871WAT     H117855   2.193   3.257   9.576
 5871WAT     H217856   2.119   3.392   9.633
 5872WAT      O17857   3.666   0.150   8.012
 5872WAT     H117858   3.609   0.229   7.991
 5872WAT     H217859   3.706   0.162   8.103
 5873WAT      O17860   7.510   3.861   3.270
 5873WAT     H117861   7.556   3.778   3.300
 5873WAT     H217862   7.484   3.916   3.350
 5874WAT      O17863   2.607   2.138   0.192
 5874WAT     H117864   2.650   2.178   0.273
 5874WAT     H217865   2.515   2.106   0.215
 5875WAT      O17866   1.096   4.680   7.409
 5875WAT     H117867   1.187   4.697   7.371
 5875WAT     H217868   1.031   4.747   7.372
 5876WAT      O17869   7.516   7.938   8.756
 5876WAT     H117870   7.447   7.891   8.810
 5876WAT     H217871   7.606   7.900   8.777
 5877WAT      O17872   7.854   9.442   6.588
 5877WAT     H117873   7.944   9.413   6.617
 5877WAT     H217874   7.788   9.427   6.661
 5878WAT      O17875   8.067   4.577   1.018
 5878WAT     H117876   8.130   4.543   1.088
 5878WAT     H217877   8.094   4.540   0.929
 5879WAT      O17878   0.556   3.449   0.290
 5879WAT     H117879   0.545   3.485   0.382
 5879WAT     H217880   0.522   3.356   0.285
 5880WAT      O17881   5.317   9.554   7.319
 5880WAT     H117882   5.349   9.642   7.282
 5880WAT     H217883   5.219   9.559   7.336
 5881WAT      O17884   3.887   7.938   7.780
 5881WAT     H117885   3.890   7.845   7.743
 5881WAT     H217886   3.894   7.934   7.880
 5882WAT      O17887   8.698   3.642   5.883
 5882WAT     H117888   8.741   3.597   5.804
 5882WAT     H217889   8.765   3.702   5.927
 5883WAT      O17890   6.055   2.539   5.768
 5883WAT     H117891   6.010   2.550   5.679
 5883WAT     H217892   6.110   2.620   5.787
 5884WAT      O17893   8.793   1.046   2.239
 5884WAT     H117894   8.723   1.110   2.210
 5884WAT     H217895   8.751   0.959   2.264
 5885WAT      O17896   8.643   4.644   0.490
 5885WAT     H117897   8.555   4.668   0.449
 5885WAT     H217898   8.677   4.559   0.449
 5886WAT      O17899   2.129   7.334   5.535
 5886WAT     H117900   2.159   7.423   5.500
 5886WAT     H217901   2.031   7.338   5.555
 5887WAT      O17902   2.697   8.370   2.481
 5887WAT     H117903   2.679   8.302   2.410
 5887WAT     H217904   2.764   8.436   2.447
 5888WAT      O17905   3.618   3.362   6.327
 5888WAT     H117906   3.652   3.436   6.385
 5888WAT     H217907   3.525   3.382   6.297
 5889WAT      O17908   0.728   3.902   8.571
 5889WAT     H117909   0.672   3.966   8.519
 5889WAT     H217910   0.820   3.941   8.583
 5890WAT      O17911   5.695   3.985   7.389
 5890WAT     H117912   5.721   3.892   7.415
 5890WAT     H217913   5.596   3.991   7.381
 5891WAT      O17914   5.407   7.254   0.119
 5891WAT     H117915   5.448   7.339   0.151
 5891WAT     H217916   5.318   7.273   0.077
 5892WAT      O17917   0.255   4.741   3.845
 5892WAT     H117918   0.226   4.836   3.856
 5892WAT     H217919   0.251   4.716   3.748
 5893WAT      O17920   9.689   0.719   2.527
 5893WAT     H117921   9.594   0.749   2.519
 5893WAT     H217922   9.700   0.665   2.611
 5894WAT      O17923   7.349   3.269   8.111
 5894WAT     H117924   7.369   3.229   8.201
 5894WAT     H217925   7.402   3.221   8.041
 5895WAT      O17926   1.662   8.431   4.721
 5895WAT     H117927   1.726   8.358   4.695
 5895WAT     H217928   1.697   8.519   4.689
 5896WAT      O17929   5.651   4.779   7.261
 5896WAT     H117930   5.686   4.856   7.207
 5896WAT     H217931   5.607   4.713   7.200
 5897WAT      O17932   6.554   0.960   2.835
 5897WAT     H117933   6.554   0.884   2.770
 5897WAT     H217934   6.518   0.928   2.923
 5898WAT      O17935   0.174   9.612   2.095
 5898WAT     H117936   0.157   9.640   2.189
 5898WAT     H217937   0.194   9.514   2.092
 5899WAT      O17938   0.367   0.781   4.934
 5899WAT     H117939   0.411   0.866   4.905
 5899WAT     H217940   0.324   0.737   4.855
 5900WAT      O17941   8.544   8.904   4.241
 5900WAT     H117942   8.465   8.888   4.182
 5900WAT     H217943   8.608   8.967   4.196
 5901WAT      O17944   3.527   5.039   5.257
 5901WAT     H117945   3.521   5.090   5.171
 5901WAT     H217946   3.449   4.976   5.263
 5902WAT      O17947   1.250   4.135   4.097
 5902WAT     H117948   1.254   4.111   4.194
 5902WAT     H217949   1.182   4.077   4.051
 5903WAT      O17950   5.582   3.951   8.788
 5903WAT     H117951   5.626   3.865   8.816
 5903WAT     H217952   5.644   4.002   8.728
 5904WAT      O17953   8.396   9.036   2.891
 5904WAT     H117954   8.357   9.066   2.978
 5904WAT     H217955   8.376   8.939   2.877
 5905WAT      O17956   4.625   8.762   2.616
 5905WAT     H117957   4.617   8.746   2.518
 5905WAT     H217958   4.709   8.720   2.650
 5906WAT      O17959   5.649   4.974   9.611
 5906WAT     H117960   5.700   5.021   9.539
 5906WAT     H217961   5.701   4.894   9.641
 5907WAT      O17962   1.400   6.096   5.751
 5907WAT     H117963   1.345   6.176   5.727
 5907WAT     H217964   1.463   6.119   5.825
 5908WAT      O17965   7.869   5.614   5.098
 5908WAT     H117966   7.774   5.584   5.090
 5908WAT     H217967   7.925   5.568   5.029
 5909WAT      O17968   4.756   5.147   3.938
 5909WAT     H117969   4.797   5.120   3.851
 5909WAT     H217970   4.730   5.065   3.989
 5910WAT      O17971   7.594   7.296   2.635
 5910WAT     H117972   7.603   7.395   2.620
 5910WAT     H217973   7.522   7.279   2.703
 5911WAT      O17974   2.272   2.015   2.639
 5911WAT     H117975   2.344   2.041   2.703
 5911WAT     H217976   2.310   1.953   2.570
 5912WAT      O17977   2.714   8.310   7.146
 5912WAT     H117978   2.683   8.341   7.236
 5912WAT     H217979   2.814   8.301   7.146
 5913WAT      O17980   3.646   7.172   3.191
 5913WAT     H117981   3.698   7.130   3.116
 5913WAT     H217982   3.708   7.218   3.254
 5914WAT      O17983   8.490   4.624   3.365
 5914WAT     H117984   8.420   4.681   3.322
 5914WAT     H217985   8.461   4.602   3.459
 5915WAT      O17986   2.491   8.445   1.534
 5915WAT     H117987   2.491   8.530   1.482
 5915WAT     H217988   2.404   8.434   1.581
 5916WAT      O17989   2.535   2.585   5.477
 5916WAT     H117990   2.576   2.632   5.555
 5916WAT     H217991   2.600   2.519   5.440
 5917WAT      O17992   4.150   6.157   8.610
 5917WAT     H117993   4.239   6.139   8.568
 5917WAT     H217994   4.150   6.125   8.705
 5918WAT      O17995   9.712   7.940   1.597
 5918WAT     H117996   9.624   7.897   1.613
 5918WAT     H217997   9.748   7.910   1.509
 5919WAT      O17998   9.398   1.868   2.566
 5919WAT     H117999   9.344   1.790   2.599
 5919WAT     H218000   9.491   1.861   2.602
 5920WAT      O18001   0.806   4.974   6.336
 5920WAT     H118002   0.832   4.945   6.429
 5920WAT     H218003   0.777   5.069   6.338
 5921WAT      O18004   9.149   2.661   0.193
 5921WAT     H118005   9.144   2.686   0.096
 5921WAT     H218006   9.238   2.620   0.212
 5922WAT      O18007   4.667   7.654   2.610
 5922WAT     H118008   4.714   7.696   2.532
 5922WAT     H218009   4.634   7.727   2.670
 5923WAT      O18010   2.682   8.556   5.778
 5923WAT     H118011   2.765   8.520   5.819
 5923WAT     H218012   2.680   8.655   5.786
 5924WAT      O18013   0.564   5.790   7.430
 5924WAT     H118014   0.661   5.814   7.434
 5924WAT     H218015   0.508   5.868   7.458
 5925WAT      O18016   4.315   2.554   9.302
 5925WAT     H118017   4.319   2.616   9.381
 5925WAT     H218018   4.402   2.506   9.292
 5926WAT      O18019   0.917   4.058   7.670
 5926WAT     H118020   0.907   4.084   7.574
 5926WAT     H218021   0.836   4.007   7.699
 5927WAT      O18022   3.172   8.684   8.700
 5927WAT     H118023   3.235   8.709   8.626
 5927WAT     H218024   3.170   8.758   8.768
 5928WAT      O18025   8.230   9.791   4.833
 5928WAT     H118026   8.218   9.746   4.921
 5928WAT     H218027   8.155   9.856   4.818
 5929WAT      O18028   8.318   4.398   3.217
 5929WAT     H118029   8.377   4.449   3.280
 5929WAT     H218030   8.325   4.300   3.237
 5930WAT      O18031   0.649   3.996   0.988
 5930WAT     H118032   0.596   3.932   0.932
 5930WAT     H218033   0.646   3.967   1.084
 5931WAT      O18034   6.074   4.158   3.369
 5931WAT     H118035   6.080   4.246   3.323
 5931WAT     H218036   6.153   4.147   3.430
 5932WAT      O18037   5.590   0.305   6.227
 5932WAT     H118038   5.563   0.401   6.231
 5932WAT     H218039   5.607   0.280   6.131
 5933WAT      O18040   4.279   8.773   9.221
 5933WAT     H118041   4.338   8.810   9.292
 5933WAT     H218042   4.239   8.849   9.169
 5934WAT      O18043   0.682   9.701   6.845
 5934WAT     H118044   0.681   9.753   6.930
 5934WAT     H218045   0.633   9.615   6.857
 5935WAT      O18046   9.421   1.616   1.707
 5935WAT     H118047   9.334   1.567   1.698
 5935WAT     H218048   9.496   1.551   1.704
 5936WAT      O18049   9.243   4.209   2.781
 5936WAT     H118050   9.327   4.248   2.743
 5936WAT     H218051   9.209   4.267   2.855
 5937WAT      O18052   6.197   5.137   9.273
 5937WAT     H118053   6.126   5.161   9.339
 5937WAT     H218054   6.263   5.212   9.268
 5938WAT      O18055   1.167   4.985   8.909
 5938WAT     H118056   1.128   4.898   8.940
 5938WAT     H218057   1.228   4.969   8.832
 5939WAT      O18058   0.290   5.888   0.052
 5939WAT     H118059   0.206   5.942   0.057
 5939WAT     H218060   0.327   5.876   0.144
 5940WAT      O18061   1.954   0.394   1.762
 5940WAT     H118062   1.972   0.418   1.858
 5940WAT     H218063   2.039   0.400   1.709
 5941WAT      O18064   5.030   7.403   4.484
 5941WAT     H118065   5.089   7.328   4.453
 5941WAT     H218066   5.033   7.409   4.583
 5942WAT      O18067   2.145   4.992   1.779
 5942WAT     H118068   2.082   5.046   1.835
 5942WAT     H218069   2.225   4.969   1.834
 5943WAT      O18070   6.052   8.994   7.399
 5943WAT     H118071   6.080   9.009   7.304
 5943WAT     H218072   6.133   8.971   7.454
 5944WAT      O18073   4.928   8.028   0.702
 5944WAT     H118074   5.017   8.073   0.707
 5944WAT     H218075   4.937   7.933   0.732
 5945WAT      O18076   6.275   8.580   3.367
 5945WAT     H118077   6.322   8.631   3.295
 5945WAT     H218078   6.290   8.482   3.354
 5946WAT      O18079   3.199   5.811   6.750
 5946WAT     H118080   3.250   5.765   6.677
 5946WAT     H218081   3.228   5.775   6.838
 5947WAT      O18082   0.038   0.744   9.771
 5947WAT     H118083   0.054   0.648   9.747
 5947WAT     H218084   0.122   0.797   9.757
 5948WAT      O18085   1.601   0.674   9.602
 5948WAT     H118086   1.529   0.648   9.537
 5948WAT     H218087   1.654   0.750   9.564
 5949WAT      O18088   2.286   0.256   6.727
 5949WAT     H118089   2.263   0.263   6.630
 5949WAT     H218090   2.383   0.232   6.736
 5950WAT      O18091   7.777   5.985   7.217
 5950WAT     H118092   7.868   6.026   7.203
 5950WAT     H218093   7.746   5.943   7.132
 5951WAT      O18094   0.610   8.651   0.027
 5951WAT     H118095   0.614   8.751   0.015
 5951WAT     H218096   0.565   8.629   0.113
 5952WAT      O18097   2.182   2.714   0.553
 5952WAT     H118098   2.219   2.804   0.572
 5952WAT     H218099   2.235   2.645   0.602
 5953WAT      O18100   7.384   6.094   1.774
 5953WAT     H118101   7.349   6.031   1.705
 5953WAT     H218102   7.481   6.110   1.759
 5954WAT      O18103   4.064   3.271   4.234
 5954WAT     H118104   3.975   3.315   4.223
 5954WAT     H218105   4.064   3.213   4.315
 5955WAT      O18106   5.274   8.488   9.722
 5955WAT     H118107   5.183   8.463   9.688
 5955WAT     H218108   5.339   8.490   9.646
 5956WAT      O18109   1.559   7.154   7.710
 5956WAT     H118110   1.659   7.153   7.698
 5956WAT     H218111   1.533   7.090   7.782
 5957WAT      O18112   2.265   8.579   4.731
 5957WAT     H118113   2.304   8.619   4.648
 5957WAT     H218114   2.269   8.479   4.725
 5958WAT      O18115   5.294   5.507   0.513
 5958WAT     H118116   5.209   5.474   0.473
 5958WAT     H218117   5.302   5.476   0.607
 5959WAT      O18118   1.183   7.370   3.239
 5959WAT     H118119   1.185   7.468   3.219
 5959WAT     H218120   1.134   7.354   3.325
 5960WAT      O18121   3.288   0.177   6.093
 5960WAT     H118122   3.256   0.205   6.002
 5960WAT     H218123   3.218   0.122   6.138
 5961WAT      O18124   5.320   9.761   4.301
 5961WAT     H118125   5.342   9.809   4.386
 5961WAT     H218126   5.291   9.667   4.322
 5962WAT      O18127   3.306   6.813   8.987
 5962WAT     H118128   3.274   6.796   9.080
 5962WAT     H218129   3.404   6.795   8.982
 5963WAT      O18130   3.487   6.973   5.112
 5963WAT     H118131   3.480   6.911   5.191
 5963WAT     H218132   3.570   6.951   5.061
 5964WAT      O18133   9.452   1.004   0.199
 5964WAT     H118134   9.433   1.097   0.230
 5964WAT     H218135   9.404   0.939   0.258
 5965WAT      O18136   0.143   6.482   2.078
 5965WAT     H118137   0.108   6.486   1.984
 5965WAT     H218138   0.226   6.427   2.081
 5966WAT      O18139   5.733   0.398   2.104
 5966WAT     H118140   5.755   0.314   2.154
 5966WAT     H218141   5.791   0.405   2.023
 5967WAT      O18142   0.202   6.901   9.446
 5967WAT     H118143   0.176   6.817   9.399
 5967WAT     H218144   0.256   6.958   9.384
 5968WAT      O18145   0.941   4.935   4.489
 5968WAT     H118146   1.001   4.904   4.415
 5968WAT     H218147   0.988   4.926   4.576
 5969WAT      O18148   3.324   0.076   4.273
 5969WAT     H118149   3.240   0.028   4.300
 5969WAT     H218150   3.302   0.170   4.245
 5970WAT      O18151   3.786   0.811   3.776
 5970WAT     H118152   3.884   0.797   3.760
 5970WAT     H218153   3.764   0.788   3.871
 5971WAT      O18154   6.703   4.432   8.261
 5971WAT     H118155   6.740   4.489   8.189
 5971WAT     H218156   6.620   4.386   8.229
 5972WAT      O18157   5.738   4.062   8.593
 5972WAT     H118158   5.718   4.159   8.579
 5972WAT     H218159   5.712   4.010   8.512
 5973WAT      O18160   9.115   3.183   2.478
 5973WAT     H118161   9.144   3.212   2.387
 5973WAT     H218162   9.188   3.128   2.519
 5974WAT      O18163   0.393   8.444   7.938
 5974WAT     H118164   0.481   8.488   7.957
 5974WAT     H218165   0.325   8.475   8.005
 5975WAT      O18166   2.353   0.034   3.951
 5975WAT     H118167   2.280  -0.025   3.916
 5975WAT     H218168   2.439  -0.017   3.954
 5976WAT      O18169   2.635   6.827   5.320
 5976WAT     H118170   2.546   6.809   5.363
 5976WAT     H218171   2.705   6.771   5.364
 5977WAT      O18172   5.837   9.749   8.014
 5977WAT     H118173   5.839   9.841   7.977
 5977WAT     H218174   5.931   9.716   8.028
 5978WAT      O18175   0.737   0.107   2.401
 5978WAT     H118176   0.714   0.202   2.379
 5978WAT     H218177   0.663   0.047   2.373
 5979WAT      O18178   2.547   5.602   1.411
 5979WAT     H118179   2.616   5.636   1.475
 5979WAT     H218180   2.459   5.642   1.433
 5980WAT      O18181   4.380   3.753   6.626
 5980WAT     H118182   4.400   3.659   6.656
 5980WAT     H218183   4.395   3.760   6.527
 5981WAT      O18184   8.524   2.997   3.338
 5981WAT     H118185   8.477   3.019   3.252
 5981WAT     H218186   8.473   2.925   3.385
 5982WAT      O18187   6.679   6.398   9.211
 5982WAT     H118188   6.656   6.361   9.121
 5982WAT     H218189   6.757   6.460   9.202
 5983WAT      O18190   7.448   6.582   6.066
 5983WAT     H118191   7.414   6.488   6.075
 5983WAT     H218192   7.383   6.637   6.014
 5984WAT      O18193   2.140   1.970   0.031
 5984WAT     H118194   2.234   1.961  -0.002
 5984WAT     H218195   2.139   1.967   0.131
 5985WAT      O18196   3.638   6.376   2.543
 5985WAT     H118197   3.596   6.419   2.623
 5985WAT     H218198   3.705   6.438   2.503
 5986WAT      O18199   3.485   2.431   5.201
 5986WAT     H118200   3.487   2.403   5.297
 5986WAT     H218201   3.456   2.527   5.195
 5987WAT      O18202   9.462   6.729   6.887
 5987WAT     H118203   9.479   6.781   6.803
 5987WAT     H218204   9.446   6.791   6.963
 5988WAT      O18205   2.745   6.127   3.047
 5988WAT     H118206   2.755   6.213   3.098
 5988WAT     H218207   2.767   6.143   2.950
 5989WAT      O18208   6.352   8.223   6.505
 5989WAT     H118209   6.444   8.187   6.520
 5989WAT     H218210   6.334   8.230   6.407
 5990WAT      O18211   0.892   5.169   5.961
 5990WAT     H118212   0.907   5.170   5.862
 5990WAT     H218213   0.972   5.207   6.008
 5991WAT      O18214   2.141   3.727   1.330
 5991WAT     H118215   2.048   3.752   1.359
 5991WAT     H218216   2.147   3.730   1.230
 5992WAT      O18217   5.433   8.086   3.665
 5992WAT     H118218   5.423   8.118   3.571
 5992WAT     H218219   5.412   8.161   3.728
 5993WAT      O18220   0.381   7.744   3.454
 5993WAT     H118221   0.457   7.682   3.475
 5993WAT     H218222   0.349   7.787   3.539
 5994WAT      O18223   6.799   3.099   4.863
 5994WAT     H118224   6.778   3.194   4.841
 5994WAT     H218225   6.816   3.048   4.778
 5995WAT      O18226   4.241   5.961   4.520
 5995WAT     H118227   4.213   5.866   4.513
 5995WAT     H218228   4.182   6.017   4.462
 5996WAT      O18229   6.809   5.289   7.686
 5996WAT     H118230   6.762   5.344   7.754
 5996WAT     H218231   6.765   5.300   7.597
 5997WAT      O18232   4.237   9.832   6.542
 5997WAT     H118233   4.232   9.856   6.445
 5997WAT     H218234   4.273   9.740   6.552
 5998WAT      O18235   3.640   4.118   2.904
 5998WAT     H118236   3.600   4.160   2.985
 5998WAT     H218237   3.730   4.081   2.926
 5999WAT      O18238   5.777   2.665   5.710
 5999WAT     H118239   5.855   2.663   5.648
 5999WAT     H218240   5.706   2.725   5.672
 6000WAT      O18241   7.366   1.978   7.183
 6000WAT     H118242   7.347   1.884   7.153
 6000WAT     H218243   7.280   2.022   7.209
 6001WAT      O18244   4.820   3.814   9.399
 6001WAT     H118245   4.892   3.860   9.450
 6001WAT     H218246   4.753   3.776   9.463
 6002WAT      O18247   5.723   8.409   8.539
 6002WAT     H118248   5.736   8.354   8.622
 6002WAT     H218249   5.656   8.481   8.556
 6003WAT      O18250   1.858   0.401   7.010
 6003WAT     H118251   1.905   0.423   6.925
 6003WAT     H218252   1.761   0.386   6.991
 6004WAT      O18253   8.621   8.832   4.493
 6004WAT     H118254   8.556   8.761   4.519
 6004WAT     H218255   8.611   8.851   4.395
 6005WAT      O18256   1.350   2.555   6.268
 6005WAT     H118257   1.435   2.580   6.222
 6005WAT     H218258   1.336   2.613   6.348
 6006WAT      O18259   2.811   6.920   8.630
 6006WAT     H118260   2.889   6.966   8.673
 6006WAT     H218261   2.793   6.962   8.541
 6007WAT      O18262   9.841   6.896   4.423
 6007WAT     H118263   9.751   6.870   4.457
 6007WAT     H218264   9.861   6.846   4.339
 6008WAT      O18265   2.397   9.046   9.601
 6008WAT     H118266   2.465   9.112   9.633
 6008WAT     H218267   2.444   8.965   9.564
 6009WAT      O18268   3.661   3.110   3.202
 6009WAT     H118269   3.692   3.199   3.167
 6009WAT     H218270   3.673   3.107   3.301
 6010WAT      O18271   8.045   3.729   1.474
 6010WAT     H118272   8.108   3.686   1.409
 6010WAT     H218273   8.016   3.818   1.437
 6011WAT      O18274   1.855   9.305   5.549
 6011WAT     H118275   1.837   9.332   5.455
 6011WAT     H218276   1.856   9.205   5.556
 6012WAT      O18277   9.885   5.036   5.658
 6012WAT     H118278   9.940   5.093   5.719
 6012WAT     H218279   9.812   4.992   5.710
 6013WAT      O18280   5.813   1.487   5.397
 6013WAT     H118281   5.853   1.410   5.446
 6013WAT     H218282   5.887   1.539   5.353
 6014WAT      O18283   1.286   2.310   9.583
 6014WAT     H118284   1.349   2.250   9.533
 6014WAT     H218285   1.297   2.404   9.552
 6015WAT      O18286   6.504   2.008   6.325
 6015WAT     H118287   6.501   1.921   6.374
 6015WAT     H218288   6.585   2.059   6.353
 6016WAT      O18289   8.728   6.197   8.497
 6016WAT     H118290   8.825   6.174   8.488
 6016WAT     H218291   8.695   6.236   8.411
 6017WAT      O18292   1.543   8.328   8.811
 6017WAT     H118293   1.517   8.413   8.855
 6017WAT     H218294   1.536   8.338   8.712
 6018WAT      O18295   9.192   0.659   7.827
 6018WAT     H118296   9.282   0.637   7.789
 6018WAT     H218297   9.200   0.673   7.926
 6019WAT      O18298   9.309   3.962   9.371
 6019WAT     H118299   9.269   3.875   9.342
 6019WAT     H218300   9.235   4.024   9.398
 6020WAT      O18301   9.367   0.199   2.983
 6020WAT     H118302   9.296   0.237   3.043
 6020WAT     H218303   9.337   0.205   2.888
 6021WAT      O18304   7.929   3.756   4.400
 6021WAT     H118305   7.928   3.656   4.405
 6021WAT     H218306   7.965   3.792   4.486
 6022WAT      O18307   8.175   7.377   7.145
 6022WAT     H118308   8.263   7.425   7.146
 6022WAT     H218309   8.158   7.338   7.236
 6023WAT      O18310   5.971   8.737   7.475
 6023WAT     H118311   5.972   8.824   7.426
 6023WAT     H218312   5.944   8.664   7.412
 6024WAT      O18313   3.868   2.953   8.897
 6024WAT     H118314   3.782   2.950   8.947
 6024WAT     H218315   3.860   3.018   8.821
 6025WAT      O18316   2.472   2.501   7.965
 6025WAT     H118317   2.461   2.406   7.938
 6025WAT     H218318   2.525   2.550   7.896
 6026WAT      O18319   2.996   0.507   3.753
 6026WAT     H118320   2.946   0.452   3.686
 6026WAT     H218321   2.931   0.563   3.805
 6027WAT      O18322   2.104   0.686   8.187
 6027WAT     H118323   2.139   0.622   8.255
 6027WAT     H218324   2.158   0.770   8.188
 6028WAT      O18325   0.805   1.660   7.939
 6028WAT     H118326   0.760   1.609   8.011
 6028WAT     H218327   0.740   1.680   7.866
 6029WAT      O18328   8.490   1.968   4.693
 6029WAT     H118329   8.518   2.014   4.608
 6029WAT     H218330   8.530   1.876   4.695
 6030WAT      O18331   6.069   3.913   4.955
 6030WAT     H118332   6.123   3.885   4.876
 6030WAT     H218333   6.107   3.997   4.994
 6031WAT      O18334   8.765   7.446   1.384
 6031WAT     H118335   8.865   7.450   1.395
 6031WAT     H218336   8.727   7.537   1.397
 6032WAT      O18337   9.687   3.658   8.649
 6032WAT     H118338   9.611   3.617   8.599
 6032WAT     H218339   9.728   3.731   8.594
 6033WAT      O18340   4.877   4.189   9.207
 6033WAT     H118341   4.901   4.275   9.252
 6033WAT     H218342   4.959   4.149   9.166
 6034WAT      O18343   5.078   5.634   4.059
 6034WAT     H118344   4.986   5.656   4.091
 6034WAT     H218345   5.086   5.535   4.044
 6035WAT      O18346   6.214   3.739   2.771
 6035WAT     H118347   6.255   3.656   2.808
 6035WAT     H218348   6.286   3.798   2.734
 6036WAT      O18349   6.211   1.656   1.367
 6036WAT     H118350   6.291   1.607   1.332
 6036WAT     H218351   6.180   1.612   1.452
 6037WAT      O18352   8.941   7.526   5.708
 6037WAT     H118353   8.939   7.549   5.611
 6037WAT     H218354   8.893   7.598   5.760
 6038WAT      O18355   5.805   2.060   3.511
 6038WAT     H118356   5.832   1.984   3.451
 6038WAT     H218357   5.708   2.053   3.532
 6039WAT      O18358   1.182   0.487   6.874
 6039WAT     H118359   1.191   0.576   6.918
 6039WAT     H218360   1.237   0.485   6.790
 6040WAT      O18361   0.902   9.561   2.503
 6040WAT     H118362   0.813   9.564   2.458
 6040WAT     H218363   0.969   9.519   2.442
 6041WAT      O18364   7.842   7.052   1.574
 6041WAT     H118365   7.906   7.128   1.589
 6041WAT     H218366   7.836   6.997   1.658
 6042WAT      O18367   0.970   9.620   4.621
 6042WAT     H118368   0.917   9.557   4.564
 6042WAT     H218369   1.064   9.588   4.628
 6043WAT      O18370   4.125   5.758   6.578
 6043WAT     H118371   4.196   5.774   6.510
 6043WAT     H218372   4.118   5.838   6.638
 6044WAT      O18373   3.174   1.860   6.032
 6044WAT     H118374   3.163   1.872   6.131
 6044WAT     H218375   3.107   1.916   5.984
 6045WAT      O18376   5.400   0.870   4.847
 6045WAT     H118377   5.444   0.924   4.919
 6045WAT     H218378   5.425   0.908   4.758
 6046WAT      O18379   7.032   3.615   2.661
 6046WAT     H118380   7.004   3.648   2.570
 6046WAT     H218381   6.980   3.533   2.684
 6047WAT      O18382   7.754   2.766   3.374
 6047WAT     H118383   7.769   2.676   3.415
 6047WAT     H218384   7.796   2.836   3.432
 6048WAT      O18385   4.784   2.970   1.859
 6048WAT     H118386   4.706   3.033   1.858
 6048WAT     H218387   4.805   2.942   1.765
 6049WAT      O18388   6.786   6.021   6.641
 6049WAT     H118389   6.826   6.109   6.616
 6049WAT     H218390   6.720   5.992   6.572
 6050WAT      O18391   0.580   7.921   4.991
 6050WAT     H118392   0.633   7.864   4.929
 6050WAT     H218393   0.607   8.017   4.981
 6051WAT      O18394   9.829   6.867   8.251
 6051WAT     H118395   9.853   6.807   8.175
 6051WAT     H218396   9.823   6.814   8.335
 6052WAT      O18397   3.881   7.254   3.833
 6052WAT     H118398   3.866   7.309   3.916
 6052WAT     H218399   3.962   7.288   3.786
 6053WAT      O18400   2.319   2.454   3.203
 6053WAT     H118401   2.397   2.401   3.171
 6053WAT     H218402   2.247   2.453   3.133
 6054WAT      O18403   1.188   3.573   2.215
 6054WAT     H118404   1.210   3.671   2.209
 6054WAT     H218405   1.238   3.523   2.145
 6055WAT      O18406   8.735   3.600   2.435
 6055WAT     H118407   8.787   3.610   2.520
 6055WAT     H218408   8.687   3.685   2.414
 6056WAT      O18409   8.607   6.636   6.402
 6056WAT     H118410   8.549   6.674   6.474
 6056WAT     H218411   8.617   6.704   6.329
 6057WAT      O18412   9.432   7.681   8.757
 6057WAT     H118413   9.403   7.768   8.798
 6057WAT     H218414   9.526   7.661   8.786
 6058WAT      O18415   2.541   1.799   4.925
 6058WAT     H118416   2.629   1.761   4.953
 6058WAT     H218417   2.551   1.843   4.836
 6059WAT      O18418   9.872   3.024   7.466
 6059WAT     H118419   9.929   2.983   7.395
 6059WAT     H218420   9.845   3.116   7.437
 6060WAT      O18421   3.085   2.756   2.640
 6060WAT     H118422   3.171   2.805   2.628
 6060WAT     H218423   3.103   2.660   2.657
 6061WAT      O18424   9.095   3.011   4.308
 6061WAT     H118425   9.072   2.974   4.398
 6061WAT     H218426   9.147   3.095   4.318
 6062WAT      O18427   7.442   0.033   4.211
 6062WAT     H118428   7.429   0.057   4.307
 6062WAT     H218429   7.481   0.110   4.162
 6063WAT      O18430   3.040   3.633   6.131
 6063WAT     H118431   3.078   3.575   6.059
 6063WAT     H218432   2.946   3.605   6.150
 6064WAT      O18433   8.240   9.157   9.453
 6064WAT     H118434   8.311   9.121   9.513
 6064WAT     H218435   8.234   9.100   9.371
 6065WAT      O18436   8.117   4.153   2.159
 6065WAT     H118437   8.215   4.162   2.177
 6065WAT     H218438   8.103   4.111   2.069
 6066WAT      O18439   6.514   6.390   0.559
 6066WAT     H118440   6.500   6.461   0.491
 6066WAT     H218441   6.431   6.382   0.616
 6067WAT      O18442   1.528   9.265   4.849
 6067WAT     H118443   1.439   9.230   4.820
 6067WAT     H218444   1.587   9.189   4.874
 6068WAT      O18445   5.776   4.191   7.053
 6068WAT     H118446   5.759   4.134   6.972
 6068WAT     H218447   5.695   4.190   7.111
 6069WAT      O18448   5.997   3.982   2.475
 6069WAT     H118449   6.074   3.972   2.411
 6069WAT     H218450   5.934   4.051   2.440
 6070WAT      O18451   4.264   1.037   1.403
 6070WAT     H118452   4.284   1.016   1.499
 6070WAT     H218453   4.297   0.963   1.345
 6071WAT      O18454   5.676   6.553   8.657
 6071WAT     H118455   5.766   6.525   8.623
 6071WAT     H218456   5.663   6.650   8.640
 6072WAT      O18457   1.376   6.142   6.137
 6072WAT     H118458   1.358   6.046   6.160
 6072WAT     H218459   1.451   6.147   6.072
 6073WAT      O18460   5.564   4.314   1.854
 6073WAT     H118461   5.583   4.341   1.759
 6073WAT     H218462   5.522   4.223   1.854
 6074WAT      O18463   4.944   6.670   2.167
 6074WAT     H118464   4.996   6.639   2.086
 6074WAT     H218465   5.007   6.684   2.243
 6075WAT      O18466   1.544   1.665   6.767
 6075WAT     H118467   1.566   1.657   6.864
 6075WAT     H218468   1.584   1.588   6.717
 6076WAT      O18469   5.038   8.744   1.410
 6076WAT     H118470   5.120   8.758   1.464
 6076WAT     H218471   4.966   8.806   1.440
 6077WAT      O18472   7.556   6.489   3.834
 6077WAT     H118473   7.649   6.514   3.805
 6077WAT     H218474   7.507   6.571   3.863
 6078WAT      O18475   2.368   3.539   8.992
 6078WAT     H118476   2.301   3.465   8.997
 6078WAT     H218477   2.438   3.525   9.062
 6079WAT      O18478   2.380   5.884   6.664
 6079WAT     H118479   2.352   5.910   6.572
 6079WAT     H218480   2.355   5.789   6.681
 6080WAT      O18481   6.070   1.735   8.912
 6080WAT     H118482   6.037   1.750   8.819
 6080WAT     H218483   6.014   1.665   8.956
 6081WAT      O18484   5.519   1.975   4.195
 6081WAT     H118485   5.586   1.906   4.167
 6081WAT     H218486   5.566   2.062   4.209
 6082WAT      O18487   8.046   0.129   8.943
 6082WAT     H118488   8.131   0.178   8.962
 6082WAT     H218489   7.991   0.182   8.879
 6083WAT      O18490   7.878   4.199   9.529
 6083WAT     H118491   7.902   4.267   9.598
 6083WAT     H218492   7.808   4.138   9.566
 6084WAT      O18493   4.035   7.277   1.079
 6084WAT     H118494   4.095   7.220   1.136
 6084WAT     H218495   3.940   7.247   1.090
 6085WAT      O18496   2.712   4.771   7.856
 6085WAT     H118497   2.702   4.735   7.949
 6085WAT     H218498   2.799   4.819   7.848
 6086WAT      O18499   7.609   1.817   3.504
 6086WAT     H118500   7.575   1.729   3.537
 6086WAT     H218501   7.553   1.847   3.427
 6087WAT      O18502   6.400   2.092   8.587
 6087WAT     H118503   6.434   2.025   8.653
 6087WAT     H218504   6.300   2.088   8.584
 6088WAT      O18505   7.130   5.292   7.257
 6088WAT     H118506   7.070   5.350   7.313
 6088WAT     H218507   7.152   5.339   7.172
 6089WAT      O18508   8.325   0.931   8.494
 6089WAT     H118509   8.364   0.997   8.431
 6089WAT     H218510   8.258   0.874   8.445
 6090WAT      O18511   4.420   5.030   4.517
 6090WAT     H118512   4.446   4.949   4.569
 6090WAT     H218513   4.429   5.012   4.419
 6091WAT      O18514   8.146   3.739   3.157
 6091WAT     H118515   8.112   3.830   3.184
 6091WAT     H218516   8.174   3.742   3.062
 6092WAT      O18517   8.190   5.725   5.876
 6092WAT     H118518   8.274   5.751   5.924
 6092WAT     H218519   8.111   5.741   5.936
 6093WAT      O18520   7.861   2.697   0.620
 6093WAT     H118521   7.874   2.755   0.540
 6093WAT     H218522   7.924   2.725   0.692
 6094WAT      O18523   3.626   8.459   6.617
 6094WAT     H118524   3.684   8.521   6.670
 6094WAT     H218525   3.672   8.436   6.531
 6095WAT      O18526   0.202   2.102   0.118
 6095WAT     H118527   0.197   2.136   0.024
 6095WAT     H218528   0.218   2.179   0.180
 6096WAT      O18529   6.854   7.609   2.445
 6096WAT     H118530   6.876   7.693   2.396
 6096WAT     H218531   6.911   7.601   2.526
 6097WAT      O18532   6.840   2.024   2.327
 6097WAT     H118533   6.767   2.090   2.309
 6097WAT     H218534   6.924   2.055   2.282
 6098WAT      O18535   9.553   9.644   3.019
 6098WAT     H118536   9.476   9.699   3.053
 6098WAT     H218537   9.639   9.681   3.055
 6099WAT      O18538   8.319   1.375   2.775
 6099WAT     H118539   8.386   1.419   2.835
 6099WAT     H218540   8.355   1.369   2.682
 6100WAT      O18541   0.550   1.669   6.109
 6100WAT     H118542   0.520   1.718   6.191
 6100WAT     H218543   0.532   1.724   6.028
 6101WAT      O18544   6.713   7.117   8.133
 6101WAT     H118545   6.627   7.161   8.159
 6101WAT     H218546   6.718   7.109   8.033
 6102WAT      O18547   8.496   0.607   4.801
 6102WAT     H118548   8.461   0.592   4.708
 6102WAT     H218549   8.546   0.694   4.804
 6103WAT      O18550   1.398   1.007   7.106
 6103WAT     H118551   1.428   1.102   7.110
 6103WAT     H218552   1.431   0.958   7.187
 6104WAT      O18553   2.234   3.576   5.787
 6104WAT     H118554   2.170   3.615   5.853
 6104WAT     H218555   2.184   3.532   5.713
 6105WAT      O18556   5.592   8.619   1.834
 6105WAT     H118557   5.665   8.562   1.795
 6105WAT     H218558   5.611   8.637   1.930
 6106WAT      O18559   0.525   3.689   8.351
 6106WAT     H118560   0.624   3.696   8.357
 6106WAT     H218561   0.487   3.673   8.442
 6107WAT      O18562   1.439   1.142   3.404
 6107WAT     H118563   1.474   1.078   3.472
 6107WAT     H218564   1.480   1.123   3.315
 6108WAT      O18565   2.736   6.426   8.090
 6108WAT     H118566   2.772   6.336   8.064
 6108WAT     H218567   2.739   6.435   8.189
 6109WAT      O18568   3.491   0.266   5.002
 6109WAT     H118569   3.414   0.281   4.941
 6109WAT     H218570   3.491   0.337   5.074
 6110WAT      O18571   7.281   3.495   6.797
 6110WAT     H118572   7.253   3.557   6.725
 6110WAT     H218573   7.202   3.446   6.833
 6111WAT      O18574   3.213   1.385   1.078
 6111WAT     H118575   3.198   1.411   0.983
 6111WAT     H218576   3.126   1.358   1.120
 6112WAT      O18577   7.982   2.881   5.128
 6112WAT     H118578   8.049   2.945   5.165
 6112WAT     H218579   7.911   2.932   5.078
 6113WAT      O18580   6.540   0.422   4.080
 6113WAT     H118581   6.442   0.425   4.058
 6113WAT     H218582   6.577   0.332   4.056
 6114WAT      O18583   8.033   7.305   7.802
 6114WAT     H118584   7.943   7.270   7.776
 6114WAT     H218585   8.091   7.228   7.831
 6115WAT      O18586   1.483   0.682   7.971
 6115WAT     H118587   1.505   0.715   8.063
 6115WAT     H218588   1.557   0.622   7.939
 6116WAT      O18589   6.526   0.212   9.197
 6116WAT     H118590   6.427   0.206   9.209
 6116WAT     H218591   6.570   0.131   9.237
 6117WAT      O18592   2.200   6.268   5.032
 6117WAT     H118593   2.140   6.189   5.039
 6117WAT     H218594   2.162   6.344   5.086
 6118WAT      O18595   4.402   7.038   7.613
 6118WAT     H118596   4.360   7.097   7.682
 6118WAT     H218597   4.476   7.087   7.567
 6119WAT      O18598   9.251   7.135   6.210
 6119WAT     H118599   9.264   7.231   6.235
 6119WAT     H218600   9.227   7.129   6.113
 6120WAT      O18601   8.045   1.114   0.626
 6120WAT     H118602   8.082   1.166   0.702
 6120WAT     H218603   7.959   1.156   0.596
 6121WAT      O18604   2.049   0.929   2.768
 6121WAT     H118605   2.104   0.958   2.689
 6121WAT     H218606   1.988   1.003   2.796
 6122WAT      O18607   9.412   1.230   2.156
 6122WAT     H118608   9.430   1.296   2.229
 6122WAT     H218609   9.432   1.272   2.068
 6123WAT      O18610   3.978   8.844   2.716
 6123WAT     H118611   4.061   8.901   2.720
 6123WAT     H218612   3.983   8.773   2.785
 6124WAT      O18613   5.690   8.298   9.556
 6124WAT     H118614   5.615   8.245   9.596
 6124WAT     H218615   5.671   8.395   9.567
 6125WAT      O18616   0.262   5.265   5.241
 6125WAT     H118617   0.188   5.198   5.250
 6125WAT     H218618   0.331   5.248   5.312
 6126WAT      O18619   3.310   5.353   4.817
 6126WAT     H118620   3.296   5.299   4.735
 6126WAT     H218621   3.254   5.436   4.813
 6127WAT      O18622   4.706   1.625   9.224
 6127WAT     H118623   4.757   1.567   9.288
 6127WAT     H218624   4.758   1.709   9.209
 6128WAT      O18625   0.692   1.194   1.455
 6128WAT     H118626   0.629   1.117   1.464
 6128WAT     H218627   0.640   1.279   1.445
 6129WAT      O18628   7.841   3.700   8.143
 6129WAT     H118629   7.842   3.633   8.217
 6129WAT     H218630   7.916   3.681   8.080
 6130WAT      O18631   1.247   7.337   7.091
 6130WAT     H118632   1.289   7.344   7.181
 6130WAT     H218633   1.149   7.317   7.100
 6131WAT      O18634   5.816   2.762   6.740
 6131WAT     H118635   5.885   2.728   6.804
 6131WAT     H218636   5.788   2.688   6.679
 6132WAT      O18637   5.655   0.659   1.361
 6132WAT     H118638   5.618   0.570   1.334
 6132WAT     H218639   5.682   0.655   1.458
 6133WAT      O18640   6.531   2.650   5.249
 6133WAT     H118641   6.601   2.692   5.307
 6133WAT     H218642   6.446   2.701   5.256
 6134WAT      O18643   1.530   6.770   1.856
 6134WAT     H118644   1.493   6.737   1.770
 6134WAT     H218645   1.606   6.833   1.838
 6135WAT      O18646   3.453   9.093   7.668
 6135WAT     H118647   3.358   9.088   7.700
 6135WAT     H218648   3.506   9.020   7.711
 6136WAT      O18649   8.595   5.645   5.851
 6136WAT     H118650   8.681   5.622   5.806
 6136WAT     H218651   8.538   5.699   5.789
 6137WAT      O18652   7.269   5.447   4.126
 6137WAT     H118653   7.278   5.348   4.113
 6137WAT     H218654   7.242   5.465   4.221
 6138WAT      O18655   3.136   5.972   7.055
 6138WAT     H118656   3.181   6.043   7.002
 6138WAT     H218657   3.205   5.916   7.101
 6139WAT      O18658   1.977   3.398   6.432
 6139WAT     H118659   1.928   3.384   6.346
 6139WAT     H218660   2.074   3.380   6.419
 6140WAT      O18661   1.211   9.195   0.734
 6140WAT     H118662   1.200   9.294   0.732
 6140WAT     H218663   1.308   9.173   0.743
 6141WAT      O18664   9.581   8.670   9.580
 6141WAT     H118665   9.667   8.661   9.530
 6141WAT     H218666   9.555   8.582   9.618
 6142WAT      O18667   2.526   9.430   6.742
 6142WAT     H118668   2.470   9.441   6.660
 6142WAT     H218669   2.516   9.338   6.778
 6143WAT      O18670   1.912   9.784   0.053
 6143WAT     H118671   1.986   9.849   0.035
 6143WAT     H218672   1.891   9.734  -0.031
 6144WAT      O18673   3.713   0.387   1.184
 6144WAT     H118674   3.746   0.426   1.270
 6144WAT     H218675   3.780   0.406   1.112
 6145WAT      O18676   8.132   5.600   9.791
 6145WAT     H118677   8.222   5.641   9.802
 6145WAT     H218678   8.141   5.513   9.742
 6146WAT      O18679   6.492   0.440   6.739
 6146WAT     H118680   6.569   0.483   6.691
 6146WAT     H218681   6.406   0.479   6.706
 6147WAT      O18682   6.217   3.021   0.933
 6147WAT     H118683   6.247   2.936   0.978
 6147WAT     H218684   6.296   3.066   0.892
 6148WAT      O18685   6.516   9.438   3.396
 6148WAT     H118686   6.541   9.534   3.384
 6148WAT     H218687   6.569   9.382   3.333
 6149WAT      O18688   4.358   1.119   4.122
 6149WAT     H118689   4.449   1.078   4.121
 6149WAT     H218690   4.350   1.184   4.046
 6150WAT      O18691   9.498   1.812   1.974
 6150WAT     H118692   9.486   1.713   1.963
 6150WAT     H218693   9.475   1.859   1.889
 6151WAT      O18694   7.491   0.828   6.352
 6151WAT     H118695   7.441   0.743   6.369
 6151WAT     H218696   7.557   0.843   6.426
 6152WAT      O18697   7.268   9.618   8.777
 6152WAT     H118698   7.326   9.557   8.722
 6152WAT     H218699   7.281   9.712   8.747
 6153WAT      O18700   8.628   9.833   3.250
 6153WAT     H118701   8.616   9.896   3.327
 6153WAT     H218702   8.543   9.827   3.198
 6154WAT      O18703   5.454   7.373   6.779
 6154WAT     H118704   5.445   7.445   6.710
 6154WAT     H218705   5.499   7.410   6.860
 6155WAT      O18706   8.591   3.290   1.430
 6155WAT     H118707   8.517   3.226   1.412
 6155WAT     H218708   8.646   3.257   1.508
 6156WAT      O18709   5.968   2.032   4.138
 6156WAT     H118710   5.923   2.111   4.098
 6156WAT     H218711   5.922   2.005   4.223
 6157WAT      O18712   7.927   3.409   1.342
 6157WAT     H118713   8.020   3.392   1.375
 6157WAT     H218714   7.879   3.467   1.408
 6158WAT      O18715   4.910   5.152   8.157
 6158WAT     H118716   4.956   5.115   8.077
 6158WAT     H218717   4.816   5.117   8.161
 6159WAT      O18718   1.816   6.872   7.089
 6159WAT     H118719   1.764   6.845   7.170
 6159WAT     H218720   1.761   6.853   7.007
 6160WAT      O18721   9.507   8.673   2.911
 6160WAT     H118722   9.507   8.608   2.835
 6160WAT     H218723   9.413   8.685   2.944
 6161WAT      O18724   5.704   6.494   3.179
 6161WAT     H118725   5.775   6.557   3.212
 6161WAT     H218726   5.663   6.446   3.257
 6162WAT      O18727   2.255   4.090   4.011
 6162WAT     H118728   2.275   4.015   3.948
 6162WAT     H218729   2.232   4.052   4.101
 6163WAT      O18730   5.596   6.302   8.710
 6163WAT     H118731   5.609   6.399   8.689
 6163WAT     H218732   5.596   6.289   8.809
 6164WAT      O18733   9.041   5.591   6.087
 6164WAT     H118734   9.023   5.496   6.115
 6164WAT     H218735   9.122   5.625   6.135
 6165WAT      O18736   7.213   2.759   1.596
 6165WAT     H118737   7.181   2.664   1.586
 6165WAT     H218738   7.235   2.776   1.692
 6166WAT      O18739   4.017   5.555   5.655
 6166WAT     H118740   3.984   5.499   5.579
 6166WAT     H218741   4.117   5.555   5.655
 6167WAT      O18742   4.032   1.179   7.296
 6167WAT     H118743   3.945   1.170   7.345
 6167WAT     H218744   4.042   1.103   7.232
 6168WAT      O18745   9.018   3.510   6.694
 6168WAT     H118746   8.981   3.574   6.760
 6168WAT     H218747   8.952   3.437   6.677
 6169WAT      O18748   4.098   2.269   4.339
 6169WAT     H118749   4.113   2.211   4.259
 6169WAT     H218750   4.041   2.221   4.405
 6170WAT      O18751   3.604   0.402   3.242
 6170WAT     H118752   3.670   0.439   3.177
 6170WAT     H218753   3.521   0.458   3.241
 6171WAT      O18754   4.441   2.147   7.342
 6171WAT     H118755   4.429   2.165   7.440
 6171WAT     H218756   4.421   2.051   7.323
 6172WAT      O18757   6.741   9.363   2.561
 6172WAT     H118758   6.703   9.361   2.469
 6172WAT     H218759   6.715   9.448   2.606
 6173WAT      O18760   6.228   0.143   4.683
 6173WAT     H118761   6.186   0.122   4.772
 6173WAT     H218762   6.182   0.091   4.611
 6174WAT      O18763   3.179   1.182   0.798
 6174WAT     H118764   3.195   1.128   0.880
 6174WAT     H218765   3.265   1.224   0.768
 6175WAT      O18766   1.112   1.439   3.577
 6175WAT     H118767   1.134   1.374   3.505
 6175WAT     H218768   1.052   1.396   3.644
 6176WAT      O18769   9.020   6.906   1.503
 6176WAT     H118770   9.115   6.882   1.524
 6176WAT     H218771   9.004   7.002   1.527
 6177WAT      O18772   8.378   5.014   5.916
 6177WAT     H118773   8.476   5.034   5.916
 6177WAT     H218774   8.357   4.949   5.843
 6178WAT      O18775   3.671   8.234   3.444
 6178WAT     H118776   3.656   8.137   3.467
 6178WAT     H218777   3.674   8.288   3.528
 6179WAT      O18778   2.412   1.705   2.184
 6179WAT     H118779   2.325   1.729   2.142
 6179WAT     H218780   2.487   1.749   2.133
 6180WAT      O18781   6.076   1.558   5.580
 6180WAT     H118782   6.038   1.466   5.567
 6180WAT     H218783   6.141   1.577   5.507
 6181WAT      O18784   8.659   9.452   4.060
 6181WAT     H118785   8.577   9.395   4.067
 6181WAT     H218786   8.704   9.436   3.973
 6182WAT      O18787   3.038   0.197   3.309
 6182WAT     H118788   3.118   0.230   3.259
 6182WAT     H218789   2.957   0.205   3.251
 6183WAT      O18790   1.910   4.007   6.055
 6183WAT     H118791   1.893   4.036   5.961
 6183WAT     H218792   1.908   4.087   6.115
 6184WAT      O18793   2.043   5.017   8.084
 6184WAT     H118794   1.999   4.986   8.000
 6184WAT     H218795   2.130   5.060   8.062
 6185WAT      O18796   9.301   4.645   5.906
 6185WAT     H118797   9.284   4.565   5.848
 6185WAT     H218798   9.375   4.624   5.970
 6186WAT      O18799   9.753   4.848   7.871
 6186WAT     H118800   9.673   4.793   7.850
 6186WAT     H218801   9.789   4.821   7.961
 6187WAT      O18802   6.376   2.604   8.324
 6187WAT     H118803   6.454   2.597   8.263
 6187WAT     H218804   6.312   2.673   8.290
 6188WAT      O18805   1.610   7.188   4.012
 6188WAT     H118806   1.535   7.252   4.023
 6188WAT     H218807   1.610   7.152   3.919
 6189WAT      O18808   8.659   5.514   2.516
 6189WAT     H118809   8.628   5.420   2.502
 6189WAT     H218810   8.621   5.549   2.602
 6190WAT      O18811   7.794   2.176   9.080
 6190WAT     H118812   7.752   2.120   9.009
 6190WAT     H218813   7.726   2.200   9.149
 6191WAT      O18814   1.675   2.748   5.464
 6191WAT     H118815   1.633   2.658   5.450
 6191WAT     H218816   1.676   2.798   5.378
 6192WAT      O18817   9.863   7.714   2.594
 6192WAT     H118818   9.940   7.758   2.642
 6192WAT     H218819   9.897   7.668   2.512
 6193WAT      O18820   6.653   6.234   2.870
 6193WAT     H118821   6.633   6.252   2.773
 6193WAT     H218822   6.678   6.137   2.881
 6194WAT      O18823   9.581   3.883   2.190
 6194WAT     H118824   9.593   3.796   2.238
 6194WAT     H218825   9.670   3.920   2.165
 6195WAT      O18826   1.548   3.259   4.475
 6195WAT     H118827   1.515   3.337   4.423
 6195WAT     H218828   1.597   3.196   4.415
 6196WAT      O18829   0.787   8.600   6.757
 6196WAT     H118830   0.866   8.592   6.696
 6196WAT     H218831   0.756   8.509   6.785
 6197WAT      O18832   6.549   7.070   2.468
 6197WAT     H118833   6.531   7.091   2.372
 6197WAT     H218834   6.527   6.974   2.486
 6198WAT      O18835   9.201   1.186   6.620
 6198WAT     H118836   9.169   1.168   6.527
 6198WAT     H218837   9.126   1.169   6.685
 6199WAT      O18838   3.549   3.624   8.354
 6199WAT     H118839   3.564   3.529   8.327
 6199WAT     H218840   3.626   3.680   8.323
 6200WAT      O18841   6.560   0.774   2.621
 6200WAT     H118842   6.623   0.777   2.544
 6200WAT     H218843   6.502   0.693   2.614
 6201WAT      O18844   6.357   9.336   4.987
 6201WAT     H118845   6.442   9.300   4.950
 6201WAT     H218846   6.320   9.272   5.055
 6202WAT      O18847   7.474   8.389   4.187
 6202WAT     H118848   7.402   8.370   4.254
 6202WAT     H218849   7.443   8.362   4.096
 6203WAT      O18850   6.384   1.018   7.322
 6203WAT     H118851   6.322   1.026   7.244
 6203WAT     H218852   6.478   1.030   7.290
 6204WAT      O18853   5.685   7.924   3.065
 6204WAT     H118854   5.752   7.950   3.135
 6204WAT     H218855   5.679   7.824   3.061
 6205WAT      O18856   5.828   2.286   4.020
 6205WAT     H118857   5.800   2.230   3.942
 6205WAT     H218858   5.757   2.354   4.039
 6206WAT      O18859   5.086   0.702   5.371
 6206WAT     H118860   5.081   0.647   5.288
 6206WAT     H218861   5.147   0.779   5.357
 6207WAT      O18862   1.679   4.443   0.687
 6207WAT     H118863   1.702   4.370   0.624
 6207WAT     H218864   1.590   4.481   0.662
 6208WAT      O18865   1.798   9.113   8.783
 6208WAT     H118866   1.852   9.082   8.861
 6208WAT     H218867   1.771   9.034   8.728
 6209WAT      O18868   2.403   1.640   5.309
 6209WAT     H118869   2.341   1.688   5.371
 6209WAT     H218870   2.433   1.702   5.236
 6210WAT      O18871   4.698   0.176   1.132
 6210WAT     H118872   4.712   0.204   1.227
 6210WAT     H218873   4.695   0.076   1.126
 6211WAT      O18874   9.597   8.228   0.117
 6211WAT     H118875   9.567   8.234   0.022
 6211WAT     H218876   9.548   8.295   0.172
 6212WAT      O18877   9.632   3.251   5.530
 6212WAT     H118878   9.556   3.238   5.467
 6212WAT     H218879   9.664   3.162   5.563
 6213WAT      O18880   9.071   7.777   2.342
 6213WAT     H118881   9.109   7.796   2.433
 6213WAT     H218882   9.091   7.682   2.317
 6214WAT      O18883   2.037   8.323   6.654
 6214WAT     H118884   2.063   8.231   6.683
 6214WAT     H218885   2.026   8.382   6.734
 6215WAT      O18886   4.319   7.861   2.263
 6215WAT     H118887   4.345   7.945   2.311
 6215WAT     H218888   4.244   7.881   2.199
 6216WAT      O18889   8.800   9.841   9.711
 6216WAT     H118890   8.739   9.771   9.748
 6216WAT     H218891   8.857   9.802   9.639
 6217WAT      O18892   2.653   0.353   2.121
 6217WAT     H118893   2.577   0.417   2.134
 6217WAT     H218894   2.644   0.309   2.032
 6218WAT      O18895   8.899   0.503   4.533
 6218WAT     H118896   8.809   0.472   4.564
 6218WAT     H218897   8.969   0.441   4.569
 6219WAT      O18898   5.050   8.874   5.368
 6219WAT     H118899   5.118   8.800   5.363
 6219WAT     H218900   4.967   8.841   5.413
 6220WAT      O18901   5.366   9.647   2.459
 6220WAT     H118902   5.396   9.552   2.451
 6220WAT     H218903   5.431   9.706   2.411
 6221WAT      O18904   6.510   5.544   2.942
 6221WAT     H118905   6.468   5.635   2.948
 6221WAT     H218906   6.559   5.535   2.856
 6222WAT      O18907   3.316   7.759   4.567
 6222WAT     H118908   3.397   7.727   4.615
 6222WAT     H218909   3.250   7.684   4.557
 6223WAT      O18910   3.823   2.670   5.127
 6223WAT     H118911   3.830   2.719   5.040
 6223WAT     H218912   3.842   2.573   5.113
 6224WAT      O18913   7.975   1.931   4.792
 6224WAT     H118914   8.071   1.911   4.777
 6224WAT     H218915   7.919   1.886   4.722
 6225WAT      O18916   4.147   4.933   4.841
 6225WAT     H118917   4.230   4.878   4.852
 6225WAT     H218918   4.171   5.030   4.835
 6226WAT      O18919   9.693   1.911   0.830
 6226WAT     H118920   9.730   1.823   0.860
 6226WAT     H218921   9.750   1.947   0.756
 6227WAT      O18922   3.581   9.549   7.881
 6227WAT     H118923   3.589   9.490   7.800
 6227WAT     H218924   3.672   9.574   7.914
 6228WAT      O18925   3.128   7.242   3.783
 6228WAT     H118926   3.143   7.218   3.878
 6228WAT     H218927   3.197   7.198   3.726
 6229WAT      O18928   4.175   7.244   3.727
 6229WAT     H118929   4.198   7.228   3.631
 6229WAT     H218930   4.237   7.313   3.765
 6230WAT      O18931   0.935   0.255   4.011
 6230WAT     H118932   0.948   0.352   3.991
 6230WAT     H218933   0.893   0.209   3.933
 6231WAT      O18934   6.001   2.269   7.190
 6231WAT     H118935   5.943   2.310   7.119
 6231WAT     H218936   6.025   2.337   7.258
 6232WAT      O18937   5.858   0.856   3.630
 6232WAT     H118938   5.808   0.777   3.594
 6232WAT     H218939   5.940   0.824   3.677
 6233WAT      O18940   3.132   2.127   7.414
 6233WAT     H118941   3.037   2.098   7.421
 6233WAT     H218942   3.168   2.102   7.324
 6234WAT      O18943   1.681   1.547   2.531
 6234WAT     H118944   1.582   1.541   2.545
 6234WAT     H218945   1.715   1.457   2.502
 6235WAT      O18946   7.679   8.132   2.914
 6235WAT     H118947   7.665   8.061   2.844
 6235WAT     H218948   7.777   8.141   2.933
 6236WAT      O18949   3.742   7.002   9.494
 6236WAT     H118950   3.766   6.954   9.579
 6236WAT     H218951   3.653   7.046   9.505
 6237WAT      O18952   6.852   6.455   4.688
 6237WAT     H118953   6.802   6.427   4.771
 6237WAT     H218954   6.940   6.408   4.685
 6238WAT      O18955   3.791   8.310   1.152
 6238WAT     H118956   3.818   8.214   1.163
 6238WAT     H218957   3.697   8.322   1.184
 6239WAT      O18958   2.293   8.146   8.104
 6239WAT     H118959   2.379   8.165   8.151
 6239WAT     H218960   2.270   8.223   8.044
 6240WAT      O18961   4.456   0.433   7.938
 6240WAT     H118962   4.532   0.370   7.923
 6240WAT     H218963   4.409   0.410   8.023
 6241WAT      O18964   0.796   7.083   2.708
 6241WAT     H118965   0.895   7.097   2.698
 6241WAT     H218966   0.777   6.985   2.717
 6242WAT      O18967   3.200   1.865   4.909
 6242WAT     H118968   3.284   1.900   4.951
 6242WAT     H218969   3.211   1.769   4.885
 6243WAT      O18970   1.513   2.512   2.817
 6243WAT     H118971   1.602   2.527   2.775
 6243WAT     H218972   1.466   2.600   2.828
 6244WAT      O18973   6.847   7.505   0.599
 6244WAT     H118974   6.748   7.514   0.604
 6244WAT     H218975   6.878   7.532   0.508
 6245WAT      O18976   4.866   2.258   1.281
 6245WAT     H118977   4.783   2.202   1.280
 6245WAT     H218978   4.946   2.199   1.267
 6246WAT      O18979   7.997   9.421   3.561
 6246WAT     H118980   7.974   9.414   3.658
 6246WAT     H218981   8.079   9.478   3.551
 6247WAT      O18982   6.656   5.729   0.474
 6247WAT     H118983   6.575   5.697   0.523
 6247WAT     H218984   6.688   5.815   0.515
 6248WAT      O18985   4.339   7.579   7.181
 6248WAT     H118986   4.252   7.589   7.132
 6248WAT     H218987   4.391   7.504   7.141
 6249WAT      O18988   1.302   1.981   2.810
 6249WAT     H118989   1.383   1.949   2.861
 6249WAT     H218990   1.267   2.064   2.852
 6250WAT      O18991   0.535   4.070   6.298
 6250WAT     H118992   0.634   4.068   6.311
 6250WAT     H218993   0.490   4.029   6.378
 6251WAT      O18994   6.303   0.822   2.841
 6251WAT     H118995   6.329   0.917   2.825
 6251WAT     H218996   6.331   0.795   2.934
 6252WAT      O18997   3.528   4.187   7.697
 6252WAT     H118998   3.430   4.200   7.714
 6252WAT     H218999   3.569   4.138   7.774
 6253WAT      O19000   1.860   5.116   6.961
 6253WAT     H119001   1.779   5.057   6.969
 6253WAT     H219002   1.885   5.126   6.865
 6254WAT      O19003   5.898   0.530   9.808
 6254WAT     H119004   5.799   0.542   9.806
 6254WAT     H219005   5.921   0.434   9.793
 6255WAT      O19006   2.569   9.289   1.683
 6255WAT     H119007   2.500   9.287   1.610
 6255WAT     H219008   2.660   9.283   1.642
 6256WAT      O19009   6.951   1.795   7.888
 6256WAT     H119010   7.050   1.803   7.903
 6256WAT     H219011   6.913   1.728   7.952
 6257WAT      O19012   9.262   5.330   6.112
 6257WAT     H119013   9.233   5.391   6.038
 6257WAT     H219014   9.345   5.365   6.153
 6258WAT      O19015   9.202   2.166   5.272
 6258WAT     H119016   9.196   2.108   5.191
 6258WAT     H219017   9.139   2.243   5.261
 6259WAT      O19018   9.192   8.040   7.172
 6259WAT     H119019   9.099   8.004   7.163
 6259WAT     H219020   9.228   8.062   7.081
 6260WAT      O19021   3.293   7.113   3.603
 6260WAT     H119022   3.242   7.068   3.530
 6260WAT     H219023   3.390   7.094   3.593
 6261WAT      O19024   7.181   3.613   9.034
 6261WAT     H119025   7.281   3.619   9.032
 6261WAT     H219026   7.154   3.517   9.049
 6262WAT      O19027   3.371   4.837   5.491
 6262WAT     H119028   3.456   4.862   5.537
 6262WAT     H219029   3.340   4.748   5.524
 6263WAT      O19030   0.418   7.570   7.142
 6263WAT     H119031   0.385   7.584   7.049
 6263WAT     H219032   0.459   7.655   7.176
 6264WAT      O19033   7.094   3.719   4.680
 6264WAT     H119034   7.059   3.785   4.746
 6264WAT     H219035   7.139   3.767   4.605
 6265WAT      O19036   8.273   8.590   6.419
 6265WAT     H119037   8.238   8.514   6.364
 6265WAT     H219038   8.198   8.653   6.439
 6266WAT      O19039   9.095   3.933   1.324
 6266WAT     H119040   9.158   3.864   1.362
 6266WAT     H219041   9.025   3.887   1.270
 6267WAT      O19042   7.417   6.795   5.410
 6267WAT     H119043   7.406   6.697   5.427
 6267WAT     H219044   7.399   6.814   5.313
 6268WAT      O19045   1.951   5.664   2.071
 6268WAT     H119046   1.898   5.745   2.044
 6268WAT     H219047   2.048   5.688   2.078
 6269WAT      O19048   0.846   8.599   8.445
 6269WAT     H119049   0.930   8.645   8.474
 6269WAT     H219050   0.823   8.625   8.352
 6270WAT      O19051   7.370   1.427   0.496
 6270WAT     H119052   7.419   1.479   0.426
 6270WAT     H219053   7.352   1.487   0.575
 6271WAT      O19054   5.998   5.422   1.174
 6271WAT     H119055   5.913   5.370   1.177
 6271WAT     H219056   5.980   5.514   1.140
 6272WAT      O19057   9.346   6.278   9.770
 6272WAT     H119058   9.308   6.192   9.804
 6272WAT     H219059   9.443   6.265   9.750
 6273WAT      O19060   3.943   4.331   8.998
 6273WAT     H119061   3.894   4.316   9.083
 6273WAT     H219062   3.972   4.243   8.960
 6274WAT      O19063   0.149   4.658   4.882
 6274WAT     H119064   0.160   4.623   4.789
 6274WAT     H219065   0.052   4.671   4.902
 6275WAT      O19066   5.237   0.713   3.726
 6275WAT     H119067   5.177   0.640   3.696
 6275WAT     H219068   5.274   0.691   3.816
 6276WAT      O19069   5.032   5.849   1.121
 6276WAT     H119070   4.963   5.921   1.129
 6276WAT     H219071   5.038   5.799   1.207
 6277WAT      O19072   8.774   7.711   0.749
 6277WAT     H119073   8.846   7.752   0.805
 6277WAT     H219074   8.810   7.693   0.657
 6278WAT      O19075   9.629   0.633   5.555
 6278WAT     H119076   9.654   0.729   5.540
 6278WAT     H219077   9.553   0.608   5.495
 6279WAT      O19078   6.086   2.512   4.547
 6279WAT     H119079   6.107   2.535   4.642
 6279WAT     H219080   6.004   2.562   4.519
 6280WAT      O19081   4.252   5.295   5.935
 6280WAT     H119082   4.286   5.246   5.854
 6280WAT     H219083   4.152   5.297   5.933
 6281WAT      O19084   8.996   6.601   5.340
 6281WAT     H119085   8.976   6.624   5.436
 6281WAT     H219086   8.916   6.560   5.298
 6282WAT      O19087   9.090   0.264   5.063
 6282WAT     H119088   9.151   0.284   5.139
 6282WAT     H219089   9.019   0.200   5.093
 6283WAT      O19090   1.005   0.029   4.497
 6283WAT     H119091   0.961  -0.034   4.561
 6283WAT     H219092   1.099  -0.000   4.481
 6284WAT      O19093   2.041   3.763   5.381
 6284WAT     H119094   2.001   3.809   5.461
 6284WAT     H219095   1.984   3.686   5.355
 6285WAT      O19096   1.394   2.994   5.531
 6285WAT     H119097   1.385   2.970   5.628
 6285WAT     H219098   1.472   3.056   5.519
 6286WAT      O19099   2.653   7.457   0.530
 6286WAT     H119100   2.725   7.483   0.594
 6286WAT     H219101   2.684   7.377   0.477
 6287WAT      O19102   0.937   9.099   4.421
 6287WAT     H119103   0.937   9.094   4.321
 6287WAT     H219104   1.018   9.052   4.456
 6288WAT      O19105   3.367   5.103   5.868
 6288WAT     H119106   3.314   5.023   5.898
 6288WAT     H219107   3.315   5.186   5.889
 6289WAT      O19108   7.952   2.159   6.920
 6289WAT     H119109   8.031   2.220   6.906
 6289WAT     H219110   7.973   2.094   6.992
 6290WAT      O19111   3.473   6.402   6.953
 6290WAT     H119112   3.395   6.419   6.894
 6290WAT     H219113   3.558   6.418   6.902
 6291WAT      O19114   2.531   5.478   8.549
 6291WAT     H119115   2.437   5.492   8.518
 6291WAT     H219116   2.545   5.522   8.637
 6292WAT      O19117   2.431   5.264   9.638
 6292WAT     H119118   2.353   5.204   9.623
 6292WAT     H219119   2.471   5.245   9.727
 6293WAT      O19120   8.867   6.920   2.119
 6293WAT     H119121   8.878   6.828   2.156
 6293WAT     H219122   8.791   6.966   2.164
 6294WAT      O19123   3.267   5.192   9.068
 6294WAT     H119124   3.318   5.179   8.984
 6294WAT     H219125   3.169   5.185   9.050
 6295WAT      O19126   5.162   4.754   6.204
 6295WAT     H119127   5.203   4.665   6.185
 6295WAT     H219128   5.108   4.783   6.124
 6296WAT      O19129   2.927   2.578   2.866
 6296WAT     H119130   2.912   2.569   2.965
 6296WAT     H219131   3.018   2.615   2.849
 6297WAT      O19132   8.224   9.174   2.724
 6297WAT     H119133   8.265   9.092   2.762
 6297WAT     H219134   8.282   9.210   2.651
 6298WAT      O19135   0.855   9.488   4.007
 6298WAT     H119136   0.897   9.527   4.089
 6298WAT     H219137   0.760   9.521   4.000
 6299WAT      O19138   8.997   6.821   6.046
 6299WAT     H119139   9.018   6.772   6.130
 6299WAT     H219140   8.989   6.919   6.065
 6300WAT      O19141   3.084   2.932   1.557
 6300WAT     H119142   3.089   2.847   1.609
 6300WAT     H219143   3.150   2.998   1.596
 6301WAT      O19144   3.986   2.659   1.982
 6301WAT     H119145   4.014   2.591   1.914
 6301WAT     H219146   3.907   2.624   2.032
 6302WAT      O19147   0.654   0.583   5.471
 6302WAT     H119148   0.731   0.580   5.536
 6302WAT     H219149   0.630   0.490   5.443
 6303WAT      O19150   3.560   0.365   8.263
 6303WAT     H119151   3.658   0.349   8.251
 6303WAT     H219152   3.518   0.381   8.174
 6304WAT      O19153   9.353   5.319   7.081
 6304WAT     H119154   9.262   5.279   7.074
 6304WAT     H219155   9.384   5.316   7.176
 6305WAT      O19156   5.427   8.745   0.472
 6305WAT     H119157   5.424   8.654   0.430
 6305WAT     H219158   5.338   8.789   0.463
 6306WAT      O19159   3.537   3.838   8.814
 6306WAT     H119160   3.625   3.791   8.802
 6306WAT     H219161   3.468   3.795   8.755
 6307WAT      O19162   4.403   2.138   5.655
 6307WAT     H119163   4.426   2.235   5.653
 6307WAT     H219164   4.484   2.084   5.675
 6308WAT      O19165   7.565   9.612   9.029
 6308WAT     H119166   7.469   9.584   9.019
 6308WAT     H219167   7.579   9.652   9.119
 6309WAT      O19168   6.918   7.901   8.802
 6309WAT     H119169   6.885   7.807   8.811
 6309WAT     H219170   6.849   7.956   8.754
 6310WAT      O19171   1.328   7.437   2.894
 6310WAT     H119172   1.388   7.458   2.816
 6310WAT     H219173   1.380   7.445   2.979
 6311WAT      O19174   1.794   4.023   2.785
 6311WAT     H119175   1.873   4.022   2.846
 6311WAT     H219176   1.712   4.045   2.838
 6312WAT      O19177   8.418   3.316   7.124
 6312WAT     H119178   8.428   3.323   7.224
 6312WAT     H219179   8.436   3.222   7.095
 6313WAT      O19180   0.779   2.295   7.972
 6313WAT     H119181   0.823   2.290   7.882
 6313WAT     H219182   0.766   2.203   8.009
 6314WAT      O19183   4.349   9.229   5.679
 6314WAT     H119184   4.367   9.324   5.706
 6314WAT     H219185   4.258   9.223   5.639
 6315WAT      O19186   8.884   5.925   2.685
 6315WAT     H119187   8.984   5.923   2.688
 6315WAT     H219188   8.849   5.831   2.682
 6316WAT      O19189   0.621   1.126   8.782
 6316WAT     H119190   0.612   1.032   8.812
 6316WAT     H219191   0.535   1.175   8.798
 6317WAT      O19192   4.048   8.106   1.762
 6317WAT     H119193   3.961   8.111   1.712
 6317WAT     H219194   4.037   8.147   1.852
 6318WAT      O19195   8.627   6.255   0.171
 6318WAT     H119196   8.530   6.241   0.190
 6318WAT     H219197   8.638   6.330   0.106
 6319WAT      O19198   4.663   9.709   3.196
 6319WAT     H119199   4.581   9.662   3.228
 6319WAT     H219200   4.661   9.804   3.226
 6320WAT      O19201   8.573   9.077   7.642
 6320WAT     H119202   8.476   9.065   7.662
 6320WAT     H219203   8.618   9.120   7.720
 6321WAT      O19204   9.326   8.037   6.885
 6321WAT     H119205   9.230   8.043   6.858
 6321WAT     H219206   9.385   8.050   6.805
 6322WAT      O19207   5.681   2.861   3.491
 6322WAT     H119208   5.592   2.822   3.467
 6322WAT     H219209   5.722   2.904   3.410
 6323WAT      O19210   0.439   1.991   8.518
 6323WAT     H119211   0.386   1.956   8.595
 6323WAT     H219212   0.502   1.920   8.487
 6324WAT      O19213   6.552   3.197   3.641
 6324WAT     H119214   6.534   3.117   3.699
 6324WAT     H219215   6.466   3.227   3.599
 6325WAT      O19216   6.920   0.209   7.502
 6325WAT     H119217   6.843   0.266   7.471
 6325WAT     H219218   6.901   0.113   7.479
 6326WAT      O19219   1.682   3.677   8.263
 6326WAT     H119220   1.688   3.669   8.363
 6326WAT     H219221   1.654   3.770   8.239
 6327WAT      O19222   1.747   9.417   2.515
 6327WAT     H119223   1.764   9.514   2.495
 6327WAT     H219224   1.774   9.362   2.436
 6328WAT      O19225   5.533   4.960   0.615
 6328WAT     H119226   5.532   5.047   0.664
 6328WAT     H219227   5.522   4.885   0.680
 6329WAT      O19228   5.023   0.557   1.039
 6329WAT     H119229   4.938   0.509   1.061
 6329WAT     H219230   5.100   0.494   1.049
 6330WAT      O19231   6.472   8.236   0.615
 6330WAT     H119232   6.482   8.153   0.671
 6330WAT     H219233   6.428   8.307   0.668
 6331WAT      O19234   0.186   7.720   5.282
 6331WAT     H119235   0.148   7.807   5.249
 6331WAT     H219236   0.166   7.648   5.215
 6332WAT      O19237   5.289   0.152   3.182
 6332WAT     H119238   5.204   0.204   3.176
 6332WAT     H219239   5.308   0.130   3.278
 6333WAT      O19240   3.344   0.274   2.512
 6333WAT     H119241   3.319   0.326   2.430
 6333WAT     H219242   3.336   0.333   2.593
 6334WAT      O19243   8.317   9.511   6.375
 6334WAT     H119244   8.287   9.417   6.388
 6334WAT     H219245   8.409   9.523   6.413
 6335WAT      O19246   2.717   6.051   4.835
 6335WAT     H119247   2.711   6.149   4.819
 6335WAT     H219248   2.643   6.004   4.785
 6336WAT      O19249   2.618   3.614   0.203
 6336WAT     H119250   2.551   3.580   0.137
 6336WAT     H219251   2.670   3.537   0.241
 6337WAT      O19252   4.999   1.007   3.967
 6337WAT     H119253   4.977   0.998   3.870
 6337WAT     H219254   5.080   1.065   3.977
 6338WAT      O19255   8.116   8.698   0.252
 6338WAT     H119256   8.074   8.633   0.315
 6338WAT     H219257   8.211   8.712   0.277
 6339WAT      O19258   3.055   7.412   9.051
 6339WAT     H119259   3.031   7.445   8.960
 6339WAT     H219260   2.977   7.423   9.112
 6340WAT      O19261   8.327   2.844   2.641
 6340WAT     H119262   8.270   2.909   2.590
 6340WAT     H219263   8.328   2.757   2.593
 6341WAT      O19264   9.516   5.465   7.930
 6341WAT     H119265   9.535   5.492   7.835
 6341WAT     H219266   9.507   5.365   7.934
 6342WAT      O19267   1.120   3.959   2.064
 6342WAT     H119268   1.207   3.947   2.016
 6342WAT     H219269   1.053   3.998   2.001
 6343WAT      O19270   1.689   7.164   7.324
 6343WAT     H119271   1.613   7.111   7.363
 6343WAT     H219272   1.697   7.251   7.373
 6344WAT      O19273   9.228   2.296   5.964
 6344WAT     H119274   9.174   2.363   5.913
 6344WAT     H219275   9.323   2.300   5.933
 6345WAT      O19276   7.200   8.301   5.539
 6345WAT     H119277   7.214   8.254   5.452
 6345WAT     H219278   7.129   8.252   5.591
 6346WAT      O19279   5.800   7.970   8.288
 6346WAT     H119280   5.731   7.930   8.228
 6346WAT     H219281   5.811   7.913   8.369
 6347WAT      O19282   1.758   9.267   1.062
 6347WAT     H119283   1.810   9.280   0.977
 6347WAT     H219284   1.739   9.356   1.103
 6348WAT      O19285   6.212   4.430   8.203
 6348WAT     H119286   6.170   4.515   8.236
 6348WAT     H219287   6.156   4.392   8.130
 6349WAT      O19288   5.620   0.141   5.994
 6349WAT     H119289   5.692   0.077   6.020
 6349WAT     H219290   5.659   0.215   5.939
 6350WAT      O19291   5.213   6.559   9.729
 6350WAT     H119292   5.209   6.640   9.670
 6350WAT     H219293   5.189   6.584   9.822
 6351WAT      O19294   8.994   9.724   9.574
 6351WAT     H119295   9.047   9.770   9.503
 6351WAT     H219296   9.015   9.627   9.574
 6352WAT      O19297   6.327   8.222   8.909
 6352WAT     H119298   6.376   8.218   8.822
 6352WAT     H219299   6.260   8.297   8.906
 6353WAT      O19300   4.675   9.416   5.393
 6353WAT     H119301   4.604   9.347   5.377
 6353WAT     H219302   4.690   9.468   5.309
 6354WAT      O19303   0.677   3.282   2.555
 6354WAT     H119304   0.707   3.374   2.582
 6354WAT     H219305   0.723   3.214   2.612
 6355WAT      O19306   8.907   4.469   2.296
 6355WAT     H119307   8.972   4.491   2.368
 6355WAT     H219308   8.895   4.549   2.237
 6356WAT      O19309   0.685   1.028   5.013
 6356WAT     H119310   0.595   1.072   5.019
 6356WAT     H219311   0.673   0.932   4.986
 6357WAT      O19312   4.387   7.385   4.256
 6357WAT     H119313   4.323   7.360   4.328
 6357WAT     H219314   4.403   7.484   4.258
 6358WAT      O19315   8.041   0.562   7.482
 6358WAT     H119316   8.094   0.573   7.566
 6358WAT     H219317   8.065   0.476   7.438
 6359WAT      O19318   8.883   3.871   5.372
 6359WAT     H119319   8.893   3.934   5.449
 6359WAT     H219320   8.937   3.789   5.389
 6360WAT      O19321   4.355   9.616   7.998
 6360WAT     H119322   4.407   9.578   8.074
 6360WAT     H219323   4.315   9.704   8.027
 6361WAT      O19324   6.953   8.356   0.197
 6361WAT     H119325   6.895   8.362   0.279
 6361WAT     H219326   6.991   8.264   0.191
 6362WAT      O19327   1.845   0.474   0.488
 6362WAT     H119328   1.749   0.487   0.464
 6362WAT     H219329   1.853   0.468   0.588
 6363WAT      O19330   9.599   3.502   4.089
 6363WAT     H119331   9.631   3.524   3.997
 6363WAT     H219332   9.627   3.574   4.152
 6364WAT      O19333   3.950   4.431   4.815
 6364WAT     H119334   3.937   4.434   4.716
 6364WAT     H219335   3.987   4.342   4.841
 6365WAT      O19336   2.887   2.456   6.093
 6365WAT     H119337   2.964   2.510   6.060
 6365WAT     H219338   2.806   2.515   6.100
 6366WAT      O19339   0.082   0.063   5.309
 6366WAT     H119340   0.086   0.163   5.309
 6366WAT     H219341   0.050   0.032   5.219
 6367WAT      O19342   8.382   5.713   0.043
 6367WAT     H119343   8.405   5.684   0.136
 6367WAT     H219344   8.296   5.765   0.045
 6368WAT      O19345   8.780   9.455   6.673
 6368WAT     H119346   8.708   9.515   6.638
 6368WAT     H219347   8.837   9.504   6.739
 6369WAT      O19348   4.371   7.154   0.974
 6369WAT     H119349   4.365   7.163   0.875
 6369WAT     H219350   4.325   7.232   1.017
 6370WAT      O19351   6.167   6.014   3.995
 6370WAT     H119352   6.107   6.065   4.057
 6370WAT     H219353   6.111   5.963   3.930
 6371WAT      O19354   8.727   0.784   8.575
 6371WAT     H119355   8.703   0.858   8.638
 6371WAT     H219356   8.823   0.759   8.588
 6372WAT      O19357   8.835   1.932   6.143
 6372WAT     H119358   8.822   1.911   6.046
 6372WAT     H219359   8.917   1.988   6.154
 6373WAT      O19360   7.805   3.663   3.962
 6373WAT     H119361   7.856   3.665   3.876
 6373WAT     H219362   7.788   3.756   3.993
 6374WAT      O19363   7.229   4.659   4.579
 6374WAT     H119364   7.168   4.683   4.503
 6374WAT     H219365   7.239   4.737   4.640
 6375WAT      O19366   1.771   5.865   3.926
 6375WAT     H119367   1.831   5.786   3.913
 6375WAT     H219368   1.701   5.865   3.855
 6376WAT      O19369   0.401   3.408   0.783
 6376WAT     H119370   0.421   3.501   0.751
 6376WAT     H219371   0.444   3.394   0.873
 6377WAT      O19372   3.602   5.990   4.841
 6377WAT     H119373   3.695   5.992   4.803
 6377WAT     H219374   3.597   5.920   4.912
 6378WAT      O19375   1.393   6.023   5.206
 6378WAT     H119376   1.378   6.059   5.113
 6378WAT     H219377   1.488   6.038   5.233
 6379WAT      O19378   8.492   5.347   0.064
 6379WAT     H119379   8.488   5.395   0.151
 6379WAT     H219380   8.516   5.251   0.079
 6380WAT      O19381   2.723   2.061   9.721
 6380WAT     H119382   2.793   2.075   9.792
 6380WAT     H219383   2.702   2.148   9.677
 6381WAT      O19384   7.696   7.282   7.276
 6381WAT     H119385   7.745   7.250   7.195
 6381WAT     H219386   7.598   7.282   7.257
 6382WAT      O19387   7.845   8.429   6.442
 6382WAT     H119388   7.882   8.447   6.351
 6382WAT     H219389   7.747   8.410   6.435
 6383WAT      O19390   6.239   3.068   9.129
 6383WAT     H119391   6.329   3.036   9.100
 6383WAT     H219392   6.203   3.130   9.059
 6384WAT      O19393   1.142   1.829   9.074
 6384WAT     H119394   1.104   1.854   9.162
 6384WAT     H219395   1.078   1.852   9.001
 6385WAT      O19396   3.746   1.065   8.687
 6385WAT     H119397   3.814   1.137   8.694
 6385WAT     H219398   3.655   1.105   8.678
 6386WAT      O19399   2.591   0.024   1.895
 6386WAT     H119400   2.528  -0.001   1.968
 6386WAT     H219401   2.670  -0.037   1.897
 6387WAT      O19402   6.670   7.004   9.716
 6387WAT     H119403   6.705   6.956   9.635
 6387WAT     H219404   6.716   7.093   9.723
 6388WAT      O19405   6.332   6.276   3.340
 6388WAT     H119406   6.372   6.260   3.249
 6388WAT     H219407   6.402   6.256   3.410
 6389WAT      O19408   4.808   9.032   6.967
 6389WAT     H119409   4.797   9.114   7.022
 6389WAT     H219410   4.790   8.951   7.023
 6390WAT      O19411   2.310   3.288   5.663
 6390WAT     H119412   2.404   3.317   5.648
 6390WAT     H219413   2.247   3.358   5.628
 6391WAT      O19414   8.911   6.746   8.888
 6391WAT     H119415   8.926   6.799   8.971
 6391WAT     H219416   8.831   6.781   8.839
 6392WAT      O19417   2.419   2.773   3.167
 6392WAT     H119418   2.484   2.810   3.233
 6392WAT     H219419   2.452   2.685   3.134
 6393WAT      O19420   1.543   0.638   1.639
 6393WAT     H119421   1.582   0.549   1.659
 6393WAT     H219422   1.543   0.694   1.722
 6394WAT      O19423   9.676   9.723   0.206
 6394WAT     H119424   9.692   9.821   0.221
 6394WAT     H219425   9.736   9.691   0.132
 6395WAT      O19426   0.443   5.809   0.272
 6395WAT     H119427   0.372   5.783   0.338
 6395WAT     H219428   0.528   5.761   0.294
 6396WAT      O19429   4.930   5.382   7.486
 6396WAT     H119430   4.992   5.447   7.530
 6396WAT     H219431   4.970   5.290   7.488
 6397WAT      O19432   1.021   3.740   1.331
 6397WAT     H119433   1.034   3.814   1.264
 6397WAT     H219434   0.937   3.755   1.381
 6398WAT      O19435   7.491   9.111   8.401
 6398WAT     H119436   7.511   9.087   8.496
 6398WAT     H219437   7.445   9.034   8.357
 6399WAT      O19438   9.500   8.384   1.615
 6399WAT     H119439   9.437   8.452   1.577
 6399WAT     H219440   9.538   8.418   1.701
 6400WAT      O19441   5.880   6.562   4.832
 6400WAT     H119442   5.839   6.474   4.854
 6400WAT     H219443   5.838   6.633   4.889
 6401WAT      O19444   3.500   6.860   2.626
 6401WAT     H119445   3.459   6.886   2.713
 6401WAT     H219446   3.472   6.767   2.602
 6402WAT      O19447   2.431   9.549   1.116
 6402WAT     H119448   2.345   9.558   1.168
 6402WAT     H219449   2.447   9.633   1.064
 6403WAT      O19450   0.980   1.478   6.067
 6403WAT     H119451   0.936   1.423   5.997
 6403WAT     H219452   0.911   1.522   6.125
 6404WAT      O19453   4.613   4.592   0.242
 6404WAT     H119454   4.605   4.625   0.336
 6404WAT     H219455   4.705   4.554   0.229
 6405WAT      O19456   6.056   1.720   2.707
 6405WAT     H119457   6.126   1.654   2.734
 6405WAT     H219458   6.087   1.770   2.626
 6406WAT      O19459   5.921   0.237   0.107
 6406WAT     H119460   5.880   0.326   0.129
 6406WAT     H219461   5.849   0.172   0.085
 6407WAT      O19462   4.274   6.545   4.080
 6407WAT     H119463   4.202   6.587   4.025
 6407WAT     H219464   4.363   6.560   4.036
 6408WAT      O19465   1.414   4.216   1.336
 6408WAT     H119466   1.314   4.209   1.331
 6408WAT     H219467   1.450   4.244   1.246
 6409WAT      O19468   6.202   5.216   9.806
 6409WAT     H119469   6.123   5.156   9.796
 6409WAT     H219470   6.177   5.295   9.862
 6410WAT      O19471   4.861   5.299   9.633
 6410WAT     H119472   4.949   5.253   9.636
 6410WAT     H219473   4.800   5.259   9.702
 6411WAT      O19474   3.578   8.124   0.994
 6411WAT     H119475   3.603   8.043   1.048
 6411WAT     H219476   3.483   8.150   1.016
 6412WAT      O19477   2.515   3.255   4.024
 6412WAT     H119478   2.459   3.299   4.094
 6412WAT     H219479   2.500   3.156   4.028
 6413WAT      O19480   0.115   6.837   1.364
 6413WAT     H119481   0.126   6.896   1.444
 6413WAT     H219482   0.182   6.862   1.294
 6414WAT      O19483   6.431   0.349   8.189
 6414WAT     H119484   6.465   0.315   8.277
 6414WAT     H219485   6.388   0.274   8.139
 6415WAT      O19486   3.623   7.431   1.486
 6415WAT     H119487   3.546   7.455   1.426
 6415WAT     H219488   3.701   7.490   1.466
 6416WAT      O19489   8.453   1.577   4.796
 6416WAT     H119490   8.398   1.641   4.850
 6416WAT     H219491   8.526   1.539   4.853
 6417WAT      O19492   1.695   5.021   5.779
 6417WAT     H119493   1.651   5.019   5.869
 6417WAT     H219494   1.754   4.941   5.768
 6418WAT      O19495   6.610   7.513   8.008
 6418WAT     H119496   6.685   7.543   7.950
 6418WAT     H219497   6.540   7.469   7.951
 6419WAT      O19498   6.460   2.291   1.044
 6419WAT     H119499   6.549   2.302   0.999
 6419WAT     H219500   6.387   2.309   0.978
 6420WAT      O19501   8.129   8.259   9.537
 6420WAT     H119502   8.073   8.189   9.581
 6420WAT     H219503   8.214   8.218   9.504
 6421WAT      O19504   8.217   9.579   7.701
 6421WAT     H119505   8.292   9.513   7.705
 6421WAT     H219506   8.141   9.546   7.757
 6422WAT      O19507   5.445   3.428   8.044
 6422WAT     H119508   5.351   3.398   8.024
 6422WAT     H219509   5.510   3.367   7.999
 6423WAT      O19510   1.658   3.777   1.522
 6423WAT     H119511   1.603   3.771   1.604
 6423WAT     H219512   1.611   3.834   1.454
 6424WAT      O19513   8.491   2.750   6.650
 6424WAT     H119514   8.478   2.849   6.639
 6424WAT     H219515   8.425   2.701   6.593
 6425WAT      O19516   3.119   7.557   4.542
 6425WAT     H119517   3.072   7.510   4.617
 6425WAT     H219518   3.182   7.493   4.497
 6426WAT      O19519   1.787   7.421   2.594
 6426WAT     H119520   1.754   7.326   2.586
 6426WAT     H219521   1.877   7.428   2.552
 6427WAT      O19522   5.878   8.269   7.516
 6427WAT     H119523   5.842   8.297   7.606
 6427WAT     H219524   5.880   8.169   7.511
 6428WAT      O19525   1.561   0.086   2.990
 6428WAT     H119526   1.609   0.041   2.915
 6428WAT     H219527   1.511   0.017   3.043
 6429WAT      O19528   6.345   4.157   7.529
 6429WAT     H119529   6.425   4.123   7.481
 6429WAT     H219530   6.310   4.239   7.484
 6430WAT      O19531   5.040   0.154   4.162
 6430WAT     H119532   4.947   0.148   4.126
 6430WAT     H219533   5.090   0.071   4.140
 6431WAT      O19534   4.785   2.558   5.837
 6431WAT     H119535   4.764   2.483   5.899
 6431WAT     H219536   4.780   2.645   5.886
 6432WAT      O19537   0.954   0.358   6.771
 6432WAT     H119538   1.040   0.399   6.802
 6432WAT     H219539   0.973   0.270   6.728
 6433WAT      O19540   6.774   6.386   5.955
 6433WAT     H119541   6.840   6.445   6.002
 6433WAT     H219542   6.722   6.333   6.022
 6434WAT      O19543   0.027   4.986   6.932
 6434WAT     H119544  -0.069   4.984   6.960
 6434WAT     H219545   0.037   5.042   6.850
 6435WAT      O19546   4.028   0.298   1.206
 6435WAT     H119547   3.991   0.327   1.117
 6435WAT     H219548   3.969   0.227   1.244
 6436WAT      O19549   4.159   2.931   3.059
 6436WAT     H119550   4.097   2.864   3.018
 6436WAT     H219551   4.160   2.921   3.158
 6437WAT      O19552   8.142   7.333   0.008
 6437WAT     H119553   8.232   7.325  -0.035
 6437WAT     H219554   8.071   7.316  -0.061
 6438WAT      O19555   3.546   1.011   8.396
 6438WAT     H119556   3.466   1.070   8.404
 6438WAT     H219557   3.539   0.936   8.463
 6439WAT      O19558   5.757   9.472   5.806
 6439WAT     H119559   5.767   9.555   5.751
 6439WAT     H219560   5.699   9.493   5.886
 6440WAT      O19561   2.452   4.513   7.800
 6440WAT     H119562   2.441   4.609   7.826
 6440WAT     H219563   2.540   4.480   7.833
 6441WAT      O19564   4.696   8.071   7.529
 6441WAT     H119565   4.664   8.148   7.585
 6441WAT     H219566   4.759   8.015   7.583
 6442WAT      O19567   3.682   7.715   4.361
 6442WAT     H119568   3.657   7.692   4.456
 6442WAT     H219569   3.717   7.633   4.316
 6443WAT      O19570   7.617   1.705   7.777
 6443WAT     H119571   7.612   1.684   7.680
 6443WAT     H219572   7.638   1.622   7.828
 6444WAT      O19573   8.578   6.926   0.672
 6444WAT     H119574   8.677   6.939   0.662
 6444WAT     H219575   8.548   6.852   0.612
 6445WAT      O19576   8.588   1.728   4.621
 6445WAT     H119577   8.556   1.701   4.530
 6445WAT     H219578   8.541   1.673   4.690
 6446WAT      O19579   7.709   1.138   7.232
 6446WAT     H119580   7.638   1.177   7.291
 6446WAT     H219581   7.757   1.066   7.281
 6447WAT      O19582   2.178   0.164   8.553
 6447WAT     H119583   2.160   0.141   8.648
 6447WAT     H219584   2.275   0.186   8.542
 6448WAT      O19585   8.202   1.988   3.638
 6448WAT     H119586   8.145   1.908   3.655
 6448WAT     H219587   8.293   1.973   3.678
 6449WAT      O19588   4.651   0.041   7.646
 6449WAT     H119589   4.580   0.008   7.707
 6449WAT     H219590   4.610   0.069   7.559
 6450WAT      O19591   8.303   9.418   8.267
 6450WAT     H119592   8.276   9.354   8.339
 6450WAT     H219593   8.256   9.395   8.182
 6451WAT      O19594   7.037   0.197   3.504
 6451WAT     H119595   7.039   0.153   3.593
 6451WAT     H219596   7.078   0.137   3.436
 6452WAT      O19597   2.823   7.204   6.838
 6452WAT     H119598   2.749   7.186   6.773
 6452WAT     H219599   2.843   7.302   6.840
 6453WAT      O19600   5.405   8.878   4.271
 6453WAT     H119601   5.367   8.885   4.179
 6453WAT     H219602   5.341   8.828   4.330
 6454WAT      O19603   1.170   6.800   3.751
 6454WAT     H119604   1.233   6.774   3.677
 6454WAT     H219605   1.078   6.814   3.713
 6455WAT      O19606   3.762   9.562   9.781
 6455WAT     H119607   3.721   9.634   9.837
 6455WAT     H219608   3.746   9.583   9.684
 6456WAT      O19609   2.309   2.476   8.498
 6456WAT     H119610   2.227   2.422   8.479
 6456WAT     H219611   2.363   2.485   8.414
 6457WAT      O19612   3.786   0.283   2.001
 6457WAT     H119613   3.806   0.201   1.948
 6457WAT     H219614   3.688   0.288   2.019
 6458WAT      O19615   5.404   0.661   3.937
 6458WAT     H119616   5.404   0.628   4.032
 6458WAT     H219617   5.478   0.615   3.887
 6459WAT      O19618   7.952   9.329   0.616
 6459WAT     H119619   7.887   9.255   0.632
 6459WAT     H219620   8.028   9.321   0.680
 6460WAT      O19621   2.675   0.348   8.259
 6460WAT     H119622   2.676   0.262   8.207
 6460WAT     H219623   2.587   0.360   8.304
 6461WAT      O19624   1.900   8.045   1.963
 6461WAT     H119625   1.817   8.099   1.950
 6461WAT     H219626   1.928   8.049   2.059
 6462WAT      O19627   4.383   3.546   7.314
 6462WAT     H119628   4.351   3.628   7.361
 6462WAT     H219629   4.322   3.469   7.335
 6463WAT      O19630   3.553   6.570   8.413
 6463WAT     H119631   3.542   6.471   8.409
 6463WAT     H219632   3.551   6.600   8.509
 6464WAT      O19633   4.260   6.392   8.691
 6464WAT     H119634   4.279   6.450   8.612
 6464WAT     H219635   4.185   6.330   8.670
 6465WAT      O19636   7.946   8.485   9.592
 6465WAT     H119637   7.992   8.410   9.544
 6465WAT     H219638   7.848   8.464   9.601
 6466WAT      O19639   3.269   3.358   1.122
 6466WAT     H119640   3.323   3.274   1.118
 6466WAT     H219641   3.259   3.386   1.217
 6467WAT      O19642   9.014   1.357   0.060
 6467WAT     H119643   9.111   1.381   0.063
 6467WAT     H219644   8.967   1.419  -0.002
 6468WAT      O19645   2.157   0.676   3.367
 6468WAT     H119646   2.158   0.641   3.273
 6468WAT     H219647   2.232   0.635   3.419
 6469WAT      O19648   4.262   8.208   2.136
 6469WAT     H119649   4.203   8.140   2.092
 6469WAT     H219650   4.229   8.300   2.115
 6470WAT      O19651   4.355   1.160   3.111
 6470WAT     H119652   4.416   1.231   3.146
 6470WAT     H219653   4.377   1.140   3.016
 6471WAT      O19654   0.825   8.923   3.571
 6471WAT     H119655   0.921   8.919   3.544
 6471WAT     H219656   0.802   8.843   3.626
 6472WAT      O19657   5.150   5.937   5.618
 6472WAT     H119658   5.083   5.989   5.564
 6472WAT     H219659   5.219   5.999   5.655
 6473WAT      O19660   2.908   0.479   2.531
 6473WAT     H119661   2.829   0.536   2.557
 6473WAT     H219662   2.885   0.428   2.448
 6474WAT      O19663   4.592   8.450   8.669
 6474WAT     H119664   4.494   8.436   8.653
 6474WAT     H219665   4.614   8.547   8.658
 6475WAT      O19666   9.551   2.648   8.286
 6475WAT     H119667   9.459   2.679   8.311
 6475WAT     H219668   9.574   2.565   8.338
 6476WAT      O19669   5.949   4.443   4.715
 6476WAT     H119670   5.879   4.504   4.679
 6476WAT     H219671   6.039   4.486   4.704
 6477WAT      O19672   4.218   1.356   9.346
 6477WAT     H119673   4.205   1.421   9.270
 6477WAT     H219674   4.216   1.263   9.310
 6478WAT      O19675   3.301   5.942   6.412
 6478WAT     H119676   3.342   6.024   6.451
 6478WAT     H219677   3.329   5.933   6.316
 6479WAT      O19678   5.072   4.118   7.161
 6479WAT     H119679   4.994   4.056   7.170
 6479WAT     H219680   5.060   4.176   7.080
 6480WAT      O19681   0.897   4.625   6.352
 6480WAT     H119682   0.911   4.723   6.367
 6480WAT     H219683   0.855   4.611   6.262
 6481WAT      O19684   9.454   6.488   7.513
 6481WAT     H119685   9.381   6.552   7.539
 6481WAT     H219686   9.437   6.399   7.557
 6482WAT      O19687   8.771   2.477   9.333
 6482WAT     H119688   8.826   2.495   9.252
 6482WAT     H219689   8.821   2.414   9.394
 6483WAT      O19690   5.419   1.949   0.297
 6483WAT     H119691   5.375   1.920   0.212
 6483WAT     H219692   5.349   1.959   0.368
 6484WAT      O19693   4.273   4.718   4.311
 6484WAT     H119694   4.366   4.703   4.343
 6484WAT     H219695   4.239   4.805   4.346
 6485WAT      O19696   5.710   6.920   2.146
 6485WAT     H119697   5.718   6.942   2.244
 6485WAT     H219698   5.684   7.002   2.096
 6486WAT      O19699   6.474   4.475   9.780
 6486WAT     H119700   6.572   4.495   9.792
 6486WAT     H219701   6.463   4.409   9.706
 6487WAT      O19702   1.583   8.505   1.760
 6487WAT     H119703   1.622   8.568   1.693
 6487WAT     H219704   1.648   8.490   1.834
 6488WAT      O19705   1.464   4.982   9.738
 6488WAT     H119706   1.481   4.936   9.652
 6488WAT     H219707   1.508   5.072   9.737
 6489WAT      O19708   7.778   6.955   7.073
 6489WAT     H119709   7.727   6.871   7.054
 6489WAT     H219710   7.847   6.937   7.143
 6490WAT      O19711   6.775   1.379   2.736
 6490WAT     H119712   6.852   1.406   2.795
 6490WAT     H219713   6.775   1.280   2.724
 6491WAT      O19714   7.757   0.556   7.470
 6491WAT     H119715   7.726   0.649   7.453
 6491WAT     H219716   7.855   0.558   7.494
 6492WAT      O19717   3.873   3.397   3.476
 6492WAT     H119718   3.890   3.351   3.389
 6492WAT     H219719   3.904   3.492   3.469
 6493WAT      O19720   0.758   1.001   1.828
 6493WAT     H119721   0.834   0.993   1.892
 6493WAT     H219722   0.788   0.974   1.737
 6494WAT      O19723   9.603   8.024   7.653
 6494WAT     H119724   9.533   8.069   7.708
 6494WAT     H219725   9.678   7.994   7.713
 6495WAT      O19726   7.296   4.189   5.328
 6495WAT     H119727   7.387   4.161   5.299
 6495WAT     H219728   7.302   4.236   5.416
 6496WAT      O19729   4.110   4.759   7.999
 6496WAT     H119730   4.050   4.831   8.036
 6496WAT     H219731   4.115   4.768   7.899
 6497WAT      O19732   2.682   7.890   1.481
 6497WAT     H119733   2.598   7.929   1.443
 6497WAT     H219734   2.730   7.839   1.410
 6498WAT      O19735   8.540   8.332   9.479
 6498WAT     H119736   8.595   8.359   9.559
 6498WAT     H219737   8.578   8.249   9.440
 6499WAT      O19738   1.215   7.216   8.603
 6499WAT     H119739   1.290   7.151   8.614
 6499WAT     H219740   1.136   7.185   8.655
 6500WAT      O19741   6.720   1.216   9.159
 6500WAT     H119742   6.721   1.187   9.255
 6500WAT     H219743   6.770   1.150   9.104
 6501WAT      O19744   7.469   3.049   0.754
 6501WAT     H119745   7.383   3.007   0.725
 6501WAT     H219746   7.467   3.065   0.853
 6502WAT      O19747   4.002   5.396   6.819
 6502WAT     H119748   3.967   5.474   6.768
 6502WAT     H219749   3.969   5.311   6.779
 6503WAT      O19750   6.106   4.373   5.656
 6503WAT     H119751   6.139   4.433   5.729
 6503WAT     H219752   6.013   4.344   5.676
 6504WAT      O19753   5.267   8.732   1.589
 6504WAT     H119754   5.363   8.759   1.582
 6504WAT     H219755   5.259   8.649   1.644
 6505WAT      O19756   0.368   6.801   9.646
 6505WAT     H119757   0.314   6.846   9.575
 6505WAT     H219758   0.430   6.734   9.603
 6506WAT      O19759   3.788   1.032   4.656
 6506WAT     H119760   3.880   1.068   4.671
 6506WAT     H219761   3.784   0.937   4.686
 6507WAT      O19762   9.084   7.960   9.011
 6507WAT     H119763   9.156   7.985   9.075
 6507WAT     H219764   9.105   7.999   8.921
 6508WAT      O19765   2.864   7.337   2.608
 6508WAT     H119766   2.905   7.409   2.664
 6508WAT     H219767   2.840   7.374   2.518
 6509WAT      O19768   3.919   1.240   4.244
 6509WAT     H119769   4.002   1.279   4.285
 6509WAT     H219770   3.944   1.167   4.181
 6510WAT      O19771   4.374   3.800   6.353
 6510WAT     H119772   4.375   3.734   6.279
 6510WAT     H219773   4.430   3.879   6.329
 6511WAT      O19774   6.296   1.028   7.049
 6511WAT     H119775   6.274   0.934   7.023
 6511WAT     H219776   6.281   1.089   6.972
 6512WAT      O19777   8.981   4.110   6.275
 6512WAT     H119778   9.017   4.172   6.345
 6512WAT     H219779   8.883   4.123   6.266
 6513WAT      O19780   5.921   2.955   0.381
 6513WAT     H119781   5.924   2.893   0.460
 6513WAT     H219782   5.826   2.978   0.361
 6514WAT      O19783   5.214   1.112   5.779
 6514WAT     H119784   5.284   1.098   5.849
 6514WAT     H219785   5.131   1.148   5.822
 6515WAT      O19786   1.906   3.941   1.862
 6515WAT     H119787   1.882   3.869   1.797
 6515WAT     H219788   1.882   4.031   1.823
 6516WAT      O19789   4.750   2.596   1.910
 6516WAT     H119790   4.758   2.647   1.996
 6516WAT     H219791   4.774   2.500   1.926
 6517WAT      O19792   8.610   8.436   4.705
 6517WAT     H119793   8.671   8.406   4.778
 6517WAT     H219794   8.533   8.373   4.698
 6518WAT      O19795   8.441   5.479   0.298
 6518WAT     H119796   8.365   5.478   0.363
 6518WAT     H219797   8.521   5.519   0.343
 6519WAT      O19798   3.122   0.284   8.840
 6519WAT     H119799   3.060   0.286   8.761
 6519WAT     H219800   3.192   0.215   8.826
 6520WAT      O19801   6.421   1.310   8.913
 6520WAT     H119802   6.483   1.375   8.957
 6520WAT     H219803   6.360   1.359   8.851
 6521WAT      O19804   6.384   1.014   4.485
 6521WAT     H119805   6.378   0.981   4.391
 6521WAT     H219806   6.353   1.109   4.489
 6522WAT      O19807   0.765   5.439   2.627
 6522WAT     H119808   0.780   5.352   2.673
 6522WAT     H219809   0.688   5.432   2.564
 6523WAT      O19810   1.280   6.352   5.735
 6523WAT     H119811   1.267   6.354   5.834
 6523WAT     H219812   1.281   6.445   5.699
 6524WAT      O19813   6.198   3.293   2.487
 6524WAT     H119814   6.208   3.228   2.562
 6524WAT     H219815   6.173   3.383   2.525
 6525WAT      O19816   8.266   1.901   6.312
 6525WAT     H119817   8.228   1.967   6.376
 6525WAT     H219818   8.300   1.949   6.231
 6526WAT      O19819   6.142   1.414   7.900
 6526WAT     H119820   6.131   1.503   7.944
 6526WAT     H219821   6.225   1.369   7.935
 6527WAT      O19822   0.509   5.233   0.240
 6527WAT     H119823   0.421   5.236   0.288
 6527WAT     H219824   0.551   5.324   0.243
 6528WAT      O19825   1.403   5.117   3.298
 6528WAT     H119826   1.499   5.094   3.280
 6528WAT     H219827   1.343   5.048   3.258
 6529WAT      O19828   1.284   2.144   3.233
 6529WAT     H119829   1.210   2.123   3.298
 6529WAT     H219830   1.244   2.167   3.144
 6530WAT      O19831   1.619   1.123   8.856
 6530WAT     H119832   1.682   1.119   8.778
 6530WAT     H219833   1.542   1.183   8.833
 6531WAT      O19834   2.148   4.915   5.013
 6531WAT     H119835   2.202   4.919   5.098
 6531WAT     H219836   2.128   5.008   4.982
 6532WAT      O19837   8.772   5.495   8.679
 6532WAT     H119838   8.681   5.524   8.652
 6532WAT     H219839   8.786   5.400   8.651
 6533WAT      O19840   4.807   9.647   4.601
 6533WAT     H119841   4.818   9.616   4.696
 6533WAT     H219842   4.797   9.746   4.599
 6534WAT      O19843   4.110   2.749   2.829
 6534WAT     H119844   4.026   2.704   2.799
 6534WAT     H219845   4.160   2.690   2.892
 6535WAT      O19846   9.087   9.640   0.142
 6535WAT     H119847   9.056   9.731   0.114
 6535WAT     H219848   9.038   9.611   0.224
 6536WAT      O19849   0.137   3.662   4.206
 6536WAT     H119850   0.091   3.663   4.294
 6536WAT     H219851   0.120   3.747   4.158
 6537WAT      O19852   7.002   2.394   4.881
 6537WAT     H119853   6.931   2.393   4.952
 6537WAT     H219854   7.089   2.420   4.923
 6538WAT      O19855   2.962   8.900   6.913
 6538WAT     H119856   2.947   8.879   6.816
 6538WAT     H219857   2.985   8.816   6.962
 6539WAT      O19858   3.120   9.471   8.441
 6539WAT     H119859   3.186   9.483   8.367
 6539WAT     H219860   3.075   9.382   8.432
 6540WAT      O19861   2.913   2.508   7.911
 6540WAT     H119862   2.984   2.547   7.852
 6540WAT     H219863   2.847   2.458   7.856
 6541WAT      O19864   2.897   6.193   9.373
 6541WAT     H119865   2.836   6.189   9.294
 6541WAT     H219866   2.844   6.217   9.454
 6542WAT      O19867   2.822   9.640   0.502
 6542WAT     H119868   2.782   9.549   0.492
 6542WAT     H219869   2.757   9.700   0.548
 6543WAT      O19870   1.053   3.004   2.306
 6543WAT     H119871   0.965   2.958   2.294
 6543WAT     H219872   1.053   3.090   2.255
 6544WAT      O19873   4.523   8.112   5.334
 6544WAT     H119874   4.423   8.100   5.333
 6544WAT     H219875   4.545   8.192   5.391
 6545WAT      O19876   0.396   9.402   6.492
 6545WAT     H119877   0.401   9.491   6.538
 6545WAT     H219878   0.308   9.393   6.446
 6546WAT      O19879   8.849   5.367   1.662
 6546WAT     H119880   8.805   5.387   1.750
 6546WAT     H219881   8.914   5.440   1.640
 6547WAT      O19882   1.026   1.018   2.515
 6547WAT     H119883   0.993   1.100   2.469
 6547WAT     H219884   1.032   1.035   2.614
 6548WAT      O19885   9.468   0.160   2.702
 6548WAT     H119886   9.451   0.258   2.691
 6548WAT     H219887   9.565   0.141   2.690
 6549WAT      O19888   8.348   2.010   7.499
 6549WAT     H119889   8.387   1.929   7.543
 6549WAT     H219890   8.370   2.008   7.401
 6550WAT      O19891   0.338   2.645   1.250
 6550WAT     H119892   0.421   2.598   1.218
 6550WAT     H219893   0.286   2.677   1.170
 6551WAT      O19894   1.209   3.920   2.606
 6551WAT     H119895   1.261   4.005   2.611
 6551WAT     H219896   1.208   3.887   2.511
 6552WAT      O19897   2.619   0.120   8.099
 6552WAT     H119898   2.696   0.125   8.036
 6552WAT     H219899   2.545   0.066   8.058
 6553WAT      O19900   3.088   0.095   6.320
 6553WAT     H119901   3.158   0.161   6.347
 6553WAT     H219902   3.031   0.135   6.248
 6554WAT      O19903   5.566   5.915   0.651
 6554WAT     H119904   5.586   5.998   0.702
 6554WAT     H219905   5.493   5.864   0.697
 6555WAT      O19906   7.001   8.741   5.790
 6555WAT     H119907   7.023   8.680   5.867
 6555WAT     H219908   7.021   8.694   5.704
 6556WAT      O19909   5.813   9.626   6.557
 6556WAT     H119910   5.723   9.650   6.519
 6556WAT     H219911   5.828   9.676   6.642
 6557WAT      O19912   5.015   0.926   2.603
 6557WAT     H119913   5.070   1.003   2.572
 6557WAT     H219914   5.001   0.862   2.527
 6558WAT      O19915   4.990   8.766   5.906
 6558WAT     H119916   4.931   8.834   5.950
 6558WAT     H219917   4.949   8.675   5.918
 6559WAT      O19918   0.989   3.568   6.123
 6559WAT     H119919   1.069   3.513   6.099
 6559WAT     H219920   0.952   3.610   6.040
 6560WAT      O19921   9.140   1.007   0.248
 6560WAT     H119922   9.137   1.085   0.312
 6560WAT     H219923   9.102   1.035   0.160
 6561WAT      O19924   1.875   0.918   8.120
 6561WAT     H119925   1.790   0.970   8.126
 6561WAT     H219926   1.865   0.830   8.167
 6562WAT      O19927   6.008   7.654   9.170
 6562WAT     H119928   5.989   7.717   9.246
 6562WAT     H219929   6.047   7.569   9.207
 6563WAT      O19930   1.118   8.271   3.923
 6563WAT     H119931   1.162   8.355   3.892
 6563WAT     H219932   1.048   8.243   3.857
 6564WAT      O19933   8.808   0.123   3.097
 6564WAT     H119934   8.760   0.053   3.149
 6564WAT     H219935   8.862   0.180   3.160
 6565WAT      O19936   2.610   5.174   0.837
 6565WAT     H119937   2.558   5.144   0.916
 6565WAT     H219938   2.548   5.213   0.769
 6566WAT      O19939   0.976   5.203   9.454
 6566WAT     H119940   1.006   5.165   9.367
 6566WAT     H219941   0.944   5.129   9.513
 6567WAT      O19942   7.132   6.339   0.436
 6567WAT     H119943   7.227   6.317   0.459
 6567WAT     H219944   7.081   6.358   0.520
 6568WAT      O19945   3.101   2.008   8.606
 6568WAT     H119946   3.092   1.942   8.682
 6568WAT     H219947   3.025   2.072   8.609
 6569WAT      O19948   1.760   3.769   8.810
 6569WAT     H119949   1.853   3.805   8.820
 6569WAT     H219950   1.760   3.694   8.744
 6570WAT      O19951   3.425   0.437   1.782
 6570WAT     H119952   3.354   0.397   1.724
 6570WAT     H219953   3.421   0.537   1.775
 6571WAT      O19954   4.924   6.598   9.780
 6571WAT     H119955   4.825   6.586   9.766
 6571WAT     H219956   4.970   6.511   9.764
 6572WAT      O19957   5.933   4.369   6.496
 6572WAT     H119958   5.894   4.399   6.583
 6572WAT     H219959   5.907   4.433   6.424
 6573WAT      O19960   7.669   8.974   9.710
 6573WAT     H119961   7.720   8.891   9.731
 6573WAT     H219962   7.712   9.022   9.633
 6574WAT      O19963   6.156   0.379   5.272
 6574WAT     H119964   6.149   0.470   5.312
 6574WAT     H219965   6.149   0.310   5.345
 6575WAT      O19966   3.198   0.495   9.668
 6575WAT     H119967   3.165   0.426   9.731
 6575WAT     H219968   3.141   0.577   9.676
 6576WAT      O19969   6.936   3.979   9.754
 6576WAT     H119970   7.010   3.917   9.728
 6576WAT     H219971   6.856   3.925   9.782
 6577WAT      O19972   9.170   7.097   2.377
 6577WAT     H119973   9.094   7.047   2.419
 6577WAT     H219974   9.222   7.144   2.448
 6578WAT      O19975   0.855   0.603   7.070
 6578WAT     H119976   0.824   0.541   6.997
 6578WAT     H219977   0.858   0.696   7.035
 6579WAT      O19978   0.212   4.287   7.596
 6579WAT     H119979   0.237   4.384   7.601
 6579WAT     H219980   0.206   4.249   7.688
 6580WAT      O19981   3.669   6.204   1.530
 6580WAT     H119982   3.621   6.225   1.445
 6580WAT     H219983   3.618   6.241   1.608
 6581WAT      O19984   2.101   9.123   9.190
 6581WAT     H119985   2.179   9.062   9.175
 6581WAT     H219986   2.048   9.089   9.268
 6582WAT      O19987   4.211   7.954   7.662
 6582WAT     H119988   4.137   8.021   7.651
 6582WAT     H219989   4.272   7.984   7.735
 6583WAT      O19990   1.000   3.736   8.778
 6583WAT     H119991   0.942   3.668   8.735
 6583WAT     H219992   0.946   3.790   8.843
 6584WAT      O19993   9.757   5.118   5.242
 6584WAT     H119994   9.666   5.077   5.245
 6584WAT     H219995   9.751   5.215   5.267
 6585WAT      O19996   1.950   9.110   4.051
 6585WAT     H119997   2.042   9.142   4.027
 6585WAT     H219998   1.946   9.011   4.040
 6586WAT      O19999   6.787   9.239   8.516
 6586WAT     H120000   6.883   9.265   8.522
 6586WAT     H220001   6.729   9.318   8.536
 6587WAT      O20002   2.967   7.954   1.161
 6587WAT     H120003   2.967   8.039   1.108
 6587WAT     H220004   2.975   7.876   1.098
 6588WAT      O20005   1.901   6.871   6.043
 6588WAT     H120006   1.969   6.805   6.075
 6588WAT     H220007   1.929   6.906   5.954
 6589WAT      O20008   8.817   1.542   2.395
 6589WAT     H120009   8.906   1.542   2.442
 6589WAT     H220010   8.749   1.495   2.451
 6590WAT      O20011   3.002   7.347   7.091
 6590WAT     H120012   2.952   7.397   7.162
 6590WAT     H220013   2.974   7.380   7.001
 6591WAT      O20014   6.316   2.154   7.902
 6591WAT     H120015   6.308   2.252   7.917
 6591WAT     H220016   6.410   2.125   7.918
 6592WAT      O20017   5.867   2.930   4.443
 6592WAT     H120018   5.809   2.907   4.522
 6592WAT     H220019   5.924   3.008   4.466
 6593WAT      O20020   5.849   4.861   1.792
 6593WAT     H120021   5.786   4.894   1.722
 6593WAT     H220022   5.821   4.898   1.881
 6594WAT      O20023   1.186   5.682   8.822
 6594WAT     H120024   1.259   5.652   8.884
 6594WAT     H220025   1.101   5.694   8.873
 6595WAT      O20026   7.144   2.086   6.989
 6595WAT     H120027   7.048   2.066   7.009
 6595WAT     H220028   7.164   2.181   7.013
 6596WAT      O20029   3.075   4.934   3.947
 6596WAT     H120030   2.989   4.927   3.998
 6596WAT     H220031   3.144   4.875   3.990
 6597WAT      O20032   2.022   8.652   6.691
 6597WAT     H120033   2.021   8.733   6.749
 6597WAT     H220034   2.085   8.666   6.614
 6598WAT      O20035   6.737   5.650   4.858
 6598WAT     H120036   6.691   5.684   4.777
 6598WAT     H220037   6.752   5.551   4.849
 6599WAT      O20038   8.209   1.276   6.555
 6599WAT     H120039   8.112   1.267   6.534
 6599WAT     H220040   8.262   1.272   6.470
 6600WAT      O20041   5.696   5.693   9.284
 6600WAT     H120042   5.776   5.633   9.279
 6600WAT     H220043   5.626   5.650   9.341
 6601WAT      O20044   9.462   0.269   8.341
 6601WAT     H120045   9.383   0.208   8.342
 6601WAT     H220046   9.485   0.295   8.435
 6602WAT      O20047   6.655   3.702   2.679
 6602WAT     H120048   6.700   3.691   2.768
 6602WAT     H220049   6.665   3.619   2.625
 6603WAT      O20050   6.328   1.231   5.131
 6603WAT     H120051   6.333   1.278   5.043
 6603WAT     H220052   6.406   1.169   5.140
 6604WAT      O20053   9.440   1.355   7.879
 6604WAT     H120054   9.441   1.261   7.915
 6604WAT     H220055   9.353   1.399   7.903
 6605WAT      O20056   5.950   0.895   7.010
 6605WAT     H120057   5.993   0.926   7.095
 6605WAT     H220058   5.857   0.864   7.029
 6606WAT      O20059   4.192   4.984   3.283
 6606WAT     H120060   4.134   4.906   3.258
 6606WAT     H220061   4.135   5.065   3.296
 6607WAT      O20062   0.077   7.732   7.758
 6607WAT     H120063   0.152   7.704   7.819
 6607WAT     H220064   0.021   7.801   7.804
 6608WAT      O20065   9.054   3.692   2.311
 6608WAT     H120066   9.067   3.702   2.409
 6608WAT     H220067   8.969   3.737   2.283
 6609WAT      O20068   5.652   3.156   7.533
 6609WAT     H120069   5.698   3.082   7.582
 6609WAT     H220070   5.718   3.207   7.478
 6610WAT      O20071   9.655   1.406   6.615
 6610WAT     H120072   9.685   1.490   6.570
 6610WAT     H220073   9.732   1.367   6.666
 6611WAT      O20074   1.340   7.254   9.460
 6611WAT     H120075   1.265   7.263   9.394
 6611WAT     H220076   1.427   7.259   9.411
 6612WAT      O20077   6.317   8.602   3.780
 6612WAT     H120078   6.220   8.602   3.753
 6612WAT     H220079   6.323   8.598   3.880
 6613WAT      O20080   6.814   7.846   1.508
 6613WAT     H120081   6.715   7.853   1.519
 6613WAT     H220082   6.848   7.929   1.464
 6614WAT      O20083   6.838   3.665   7.609
 6614WAT     H120084   6.753   3.678   7.557
 6614WAT     H220085   6.852   3.567   7.625
 6615WAT      O20086   5.028   4.196   8.030
 6615WAT     H120087   5.100   4.152   8.082
 6615WAT     H220088   4.983   4.265   8.086
 6616WAT      O20089   5.951   1.520   8.250
 6616WAT     H120090   6.016   1.573   8.195
 6616WAT     H220091   5.886   1.583   8.294
 6617WAT      O20092   1.280   6.905   6.630
 6617WAT     H120093   1.316   6.978   6.573
 6617WAT     H220094   1.305   6.922   6.725
 6618WAT      O20095   7.114   4.643   5.718
 6618WAT     H120096   7.049   4.698   5.771
 6618WAT     H220097   7.184   4.607   5.779
 6619WAT      O20098   5.449   6.908   7.336
 6619WAT     H120099   5.494   6.907   7.425
 6619WAT     H220100   5.352   6.885   7.348
 6620WAT      O20101   9.159   0.884   6.760
 6620WAT     H120102   9.169   0.784   6.753
 6620WAT     H220103   9.071   0.906   6.802
 6621WAT      O20104   7.488   8.004   1.784
 6621WAT     H120105   7.572   8.052   1.761
 6621WAT     H220106   7.418   8.071   1.813
 6622WAT      O20107   0.529   5.422   9.131
 6622WAT     H120108   0.438   5.383   9.142
 6622WAT     H220109   0.593   5.351   9.100
 6623WAT      O20110   4.744   4.981   0.174
 6623WAT     H120111   4.724   4.966   0.077
 6623WAT     H220112   4.731   5.078   0.196
 6624WAT      O20113   3.494   6.239   8.679
 6624WAT     H120114   3.424   6.173   8.706
 6624WAT     H220115   3.501   6.241   8.579
 6625WAT      O20116   4.573   4.892   3.433
 6625WAT     H120117   4.642   4.946   3.386
 6625WAT     H220118   4.580   4.796   3.405
 6626WAT      O20119   1.460   3.506   0.409
 6626WAT     H120120   1.552   3.470   0.391
 6626WAT     H220121   1.398   3.429   0.423
 6627WAT      O20122   1.156   7.042   3.353
 6627WAT     H120123   1.098   7.122   3.371
 6627WAT     H220124   1.246   7.056   3.393
 6628WAT      O20125   6.699   5.164   7.251
 6628WAT     H120126   6.725   5.194   7.159
 6628WAT     H220127   6.650   5.077   7.245
 6629WAT      O20128   0.412   0.593   9.661
 6629WAT     H120129   0.339   0.550   9.609
 6629WAT     H220130   0.456   0.526   9.720
 6630WAT      O20131   1.169   4.222   3.473
 6630WAT     H120132   1.081   4.180   3.499
 6630WAT     H220133   1.233   4.150   3.445
 6631WAT      O20134   4.238   5.200   2.529
 6631WAT     H120135   4.282   5.240   2.610
 6631WAT     H220136   4.271   5.245   2.447
 6632WAT      O20137   2.968   5.220   6.461
 6632WAT     H120138   3.001   5.170   6.380
 6632WAT     H220139   3.002   5.175   6.544
 6633WAT      O20140   8.693   9.733   0.277
 6633WAT     H120141   8.651   9.703   0.363
 6633WAT     H220142   8.790   9.751   0.292
 6634WAT      O20143   6.287   6.566   6.927
 6634WAT     H120144   6.251   6.652   6.963
 6634WAT     H220145   6.385   6.562   6.942
 6635WAT      O20146   2.035   9.490   5.634
 6635WAT     H120147   1.998   9.400   5.610
 6635WAT     H220148   1.961   9.551   5.660
 6636WAT      O20149   5.017   2.352   0.908
 6636WAT     H120150   4.956   2.404   0.968
 6636WAT     H220151   4.963   2.301   0.842
 6637WAT      O20152   8.570   9.717   6.098
 6637WAT     H120153   8.566   9.715   5.998
 6637WAT     H220154   8.666   9.726   6.126
 6638WAT      O20155   2.897   8.175   3.833
 6638WAT     H120156   2.955   8.095   3.821
 6638WAT     H220157   2.951   8.249   3.873
 6639WAT      O20158   8.539   0.148   4.425
 6639WAT     H120159   8.463   0.148   4.490
 6639WAT     H220160   8.581   0.057   4.423
 6640WAT      O20161   3.690   4.681   6.273
 6640WAT     H120162   3.689   4.701   6.371
 6640WAT     H220163   3.686   4.582   6.260
 6641WAT      O20164   7.076   0.119   2.072
 6641WAT     H120165   7.154   0.059   2.050
 6641WAT     H220166   7.095   0.167   2.158
 6642WAT      O20167   9.256   8.634   3.026
 6642WAT     H120168   9.163   8.663   3.049
 6642WAT     H220169   9.259   8.535   3.015
 6643WAT      O20170   0.185   8.160   8.194
 6643WAT     H120171   0.276   8.180   8.231
 6643WAT     H220172   0.193   8.090   8.123
 6644WAT      O20173   5.605   9.845   4.158
 6644WAT     H120174   5.659   9.813   4.236
 6644WAT     H220175   5.508   9.834   4.179
 6645WAT      O20176   9.402   0.414   2.627
 6645WAT     H120177   9.336   0.399   2.553
 6645WAT     H220178   9.442   0.505   2.617
 6646WAT      O20179   8.235   9.740   0.703
 6646WAT     H120180   8.268   9.826   0.664
 6646WAT     H220181   8.139   9.750   0.727
 6647WAT      O20182   7.256   3.917   3.192
 6647WAT     H120183   7.351   3.916   3.225
 6647WAT     H220184   7.254   3.962   3.102
 6648WAT      O20185   4.335   6.866   8.365
 6648WAT     H120186   4.341   6.917   8.452
 6648WAT     H220187   4.282   6.783   8.379
 6649WAT      O20188   8.361   6.102   6.781
 6649WAT     H120189   8.404   6.123   6.693
 6649WAT     H220190   8.274   6.055   6.765
 6650WAT      O20191   3.644   2.668   6.656
 6650WAT     H120192   3.588   2.663   6.739
 6650WAT     H220193   3.678   2.576   6.634
 6651WAT      O20194   8.686   5.488   3.800
 6651WAT     H120195   8.636   5.487   3.714
 6651WAT     H220196   8.769   5.432   3.792
 6652WAT      O20197   1.778   7.361   2.904
 6652WAT     H120198   1.820   7.271   2.909
 6652WAT     H220199   1.738   7.375   2.813
 6653WAT      O20200   2.538   8.927   9.179
 6653WAT     H120201   2.564   9.021   9.201
 6653WAT     H220202   2.566   8.905   9.086
 6654WAT      O20203   8.110   2.608   2.507
 6654WAT     H120204   8.189   2.547   2.511
 6654WAT     H220205   8.072   2.619   2.598
 6655WAT      O20206   6.942   5.271   8.385
 6655WAT     H120207   7.005   5.337   8.345
 6655WAT     H220208   6.872   5.320   8.437
 6656WAT      O20209   0.012   0.957   8.409
 6656WAT     H120210  -0.053   0.959   8.485
 6656WAT     H220211   0.063   1.043   8.405
 6657WAT      O20212   2.723   4.599   7.401
 6657WAT     H120213   2.727   4.506   7.362
 6657WAT     H220214   2.816   4.635   7.409
 6658WAT      O20215   4.516   3.423   2.449
 6658WAT     H120216   4.553   3.376   2.369
 6658WAT     H220217   4.429   3.467   2.424
 6659WAT      O20218   6.872   0.906   2.181
 6659WAT     H120219   6.901   0.955   2.099
 6659WAT     H220220   6.876   0.807   2.164
 6660WAT      O20221   7.357   1.969   9.688
 6660WAT     H120222   7.373   2.059   9.729
 6660WAT     H220223   7.436   1.910   9.706
 6661WAT      O20224   7.904   5.563   2.104
 6661WAT     H120225   7.877   5.505   2.180
 6661WAT     H220226   7.945   5.647   2.138
 6662WAT      O20227   5.169   6.475   3.575
 6662WAT     H120228   5.185   6.526   3.490
 6662WAT     H220229   5.237   6.402   3.583
 6663WAT      O20230   4.281   7.974   8.901
 6663WAT     H120231   4.309   7.958   8.807
 6663WAT     H220232   4.354   7.948   8.964
 6664WAT      O20233   0.050   9.422   3.494
 6664WAT     H120234   0.028   9.517   3.517
 6664WAT     H220235   0.150   9.412   3.485
 6665WAT      O20236   8.648   2.559   6.802
 6665WAT     H120237   8.598   2.628   6.749
 6665WAT     H220238   8.594   2.476   6.807
 6666WAT      O20239   1.226   1.776   0.108
 6666WAT     H120240   1.187   1.786   0.199
 6666WAT     H220241   1.326   1.780   0.114
 6667WAT      O20242   2.201   4.751   2.310
 6667WAT     H120243   2.137   4.705   2.371
 6667WAT     H220244   2.271   4.798   2.364
 6668WAT      O20245   4.197   0.252   0.531
 6668WAT     H120246   4.194   0.327   0.465
 6668WAT     H220247   4.130   0.268   0.603
 6669WAT      O20248   2.844   9.157   4.314
 6669WAT     H120249   2.922   9.217   4.296
 6669WAT     H220250   2.760   9.209   4.311
 6670WAT      O20251   7.075   1.791   0.800
 6670WAT     H120252   7.127   1.870   0.769
 6670WAT     H220253   7.139   1.716   0.822
 6671WAT      O20254   2.614   1.109   8.750
 6671WAT     H120255   2.634   1.085   8.845
 6671WAT     H220256   2.515   1.119   8.740
 6672WAT      O20257   7.584   9.576   9.794
 6672WAT     H120258   7.554   9.614   9.881
 6672WAT     H220259   7.514   9.513   9.760
 6673WAT      O20260   4.586   4.727   5.690
 6673WAT     H120261   4.628   4.752   5.602
 6673WAT     H220262   4.487   4.732   5.682
 6674WAT      O20263   6.107   3.987   0.582
 6674WAT     H120264   6.165   3.907   0.569
 6674WAT     H220265   6.142   4.063   0.527
 6675WAT      O20266   7.210   6.161   4.332
 6675WAT     H120267   7.144   6.228   4.368
 6675WAT     H220268   7.175   6.069   4.348
 6676WAT      O20269   9.455   7.425   8.402
 6676WAT     H120270   9.395   7.499   8.434
 6676WAT     H220271   9.517   7.398   8.476
 6677WAT      O20272   9.160   9.015   7.738
 6677WAT     H120273   9.200   9.020   7.829
 6677WAT     H220274   9.231   9.033   7.669
 6678WAT      O20275   0.715   6.549   4.559
 6678WAT     H120276   0.617   6.543   4.542
 6678WAT     H220277   0.763   6.562   4.472
 6679WAT      O20278   6.576   0.780   7.421
 6679WAT     H120279   6.516   0.856   7.393
 6679WAT     H220280   6.528   0.724   7.489
 6680WAT      O20281   0.234   6.634   1.079
 6680WAT     H120282   0.158   6.617   1.143
 6680WAT     H220283   0.259   6.731   1.083
 6681WAT      O20284   1.704   8.777   7.900
 6681WAT     H120285   1.705   8.821   7.810
 6681WAT     H220286   1.716   8.847   7.970
 6682WAT      O20287   2.426   8.813   1.142
 6682WAT     H120288   2.329   8.789   1.136
 6682WAT     H220289   2.482   8.731   1.129
 6683WAT      O20290   8.451   2.006   5.625
 6683WAT     H120291   8.466   1.936   5.694
 6683WAT     H220292   8.392   2.077   5.662
 6684WAT      O20293   1.420   7.645   8.313
 6684WAT     H120294   1.393   7.740   8.327
 6684WAT     H220295   1.515   7.642   8.280
 6685WAT      O20296   5.594   7.120   6.240
 6685WAT     H120297   5.499   7.095   6.222
 6685WAT     H220298   5.652   7.040   6.224
 6686WAT      O20299   2.076   5.798   0.477
 6686WAT     H120300   2.116   5.816   0.566
 6686WAT     H220301   2.027   5.710   0.480
 6687WAT      O20302   4.523   6.004   9.249
 6687WAT     H120303   4.478   6.070   9.189
 6687WAT     H220304   4.510   6.031   9.345
 6688WAT      O20305   2.267   9.042   8.426
 6688WAT     H120306   2.323   9.035   8.344
 6688WAT     H220307   2.326   9.039   8.507
 6689WAT      O20308   1.545   5.497   0.153
 6689WAT     H120309   1.510   5.413   0.195
 6689WAT     H220310   1.584   5.556   0.224
 6690WAT      O20311   3.394   1.572   4.352
 6690WAT     H120312   3.388   1.549   4.449
 6690WAT     H220313   3.321   1.526   4.302
 6691WAT      O20314   2.492   5.778   0.383
 6691WAT     H120315   2.554   5.791   0.305
 6691WAT     H220316   2.546   5.769   0.467
 6692WAT      O20317   1.044   6.419   7.865
 6692WAT     H120318   1.026   6.323   7.842
 6692WAT     H220319   0.998   6.479   7.799
 6693WAT      O20320   0.753   8.721   3.758
 6693WAT     H120321   0.824   8.667   3.803
 6693WAT     H220322   0.693   8.762   3.827
 6694WAT      O20323   5.375   2.404   8.224
 6694WAT     H120324   5.275   2.409   8.219
 6694WAT     H220325   5.414   2.491   8.193
 6695WAT      O20326   7.700   7.437   9.032
 6695WAT     H120327   7.730   7.428   9.127
 6695WAT     H220328   7.623   7.376   9.016
 6696WAT      O20329   1.342   4.422   8.587
 6696WAT     H120330   1.421   4.480   8.569
 6696WAT     H220331   1.370   4.326   8.582
 6697WAT      O20332   1.816   7.136   3.701
 6697WAT     H120333   1.853   7.110   3.611
 6697WAT     H220334   1.727   7.093   3.713
 6698WAT      O20335   1.318   5.023   1.019
 6698WAT     H120336   1.371   4.971   1.087
 6698WAT     H220337   1.295   4.963   0.943
 6699WAT      O20338   0.293   4.739   0.735
 6699WAT     H120339   0.346   4.803   0.791
 6699WAT     H220340   0.324   4.645   0.753
 6700WAT      O20341   5.243   6.405   6.853
 6700WAT     H120342   5.265   6.393   6.756
 6700WAT     H220343   5.164   6.348   6.876
 6701WAT      O20344   6.851   9.815   7.384
 6701WAT     H120345   6.787   9.809   7.308
 6701WAT     H220346   6.939   9.776   7.356
 6702WAT      O20347   5.341   8.485   3.295
 6702WAT     H120348   5.348   8.521   3.388
 6702WAT     H220349   5.270   8.536   3.245
 6703WAT      O20350   0.209   0.556   6.395
 6703WAT     H120351   0.196   0.563   6.296
 6703WAT     H220352   0.121   0.553   6.440
 6704WAT      O20353   1.943   4.994   2.511
 6704WAT     H120354   1.978   4.903   2.487
 6704WAT     H220355   1.867   4.984   2.576
 6705WAT      O20356   4.322   5.053   0.411
 6705WAT     H120357   4.338   5.116   0.335
 6705WAT     H220358   4.228   5.021   0.409
 6706WAT      O20359   6.803   9.790   8.662
 6706WAT     H120360   6.739   9.864   8.684
 6706WAT     H220361   6.780   9.709   8.714
 6707WAT      O20362   3.126   7.877   4.047
 6707WAT     H120363   3.053   7.813   4.074
 6707WAT     H220364   3.119   7.960   4.102
 6708WAT      O20365   0.594   7.888   1.289
 6708WAT     H120366   0.616   7.911   1.195
 6708WAT     H220367   0.496   7.904   1.306
 6709WAT      O20368   1.164   5.281   0.960
 6709WAT     H120369   1.064   5.283   0.952
 6709WAT     H220370   1.195   5.187   0.969
 6710WAT      O20371   2.495   9.553   7.007
 6710WAT     H120372   2.559   9.476   7.006
 6710WAT     H220373   2.465   9.573   6.914
 6711WAT      O20374   3.517   0.514   0.436
 6711WAT     H120375   3.552   0.601   0.469
 6711WAT     H220376   3.487   0.524   0.341
 6712WAT      O20377   0.936   6.988   1.315
 6712WAT     H120378   0.987   7.071   1.294
 6712WAT     H220379   0.890   6.955   1.233
 6713WAT      O20380   6.471   6.311   4.719
 6713WAT     H120381   6.435   6.218   4.727
 6713WAT     H220382   6.554   6.319   4.774
 6714WAT      O20383   9.688   2.302   4.018
 6714WAT     H120384   9.714   2.393   4.048
 6714WAT     H220385   9.610   2.271   4.072
 6715WAT      O20386   4.856   4.119   0.187
 6715WAT     H120387   4.923   4.169   0.243
 6715WAT     H220388   4.902   4.046   0.138
 6716WAT      O20389   9.001   5.116   1.328
 6716WAT     H120390   9.081   5.175   1.321
 6716WAT     H220391   8.938   5.136   1.253
 6717WAT      O20392   1.380   8.446   0.900
 6717WAT     H120393   1.424   8.396   0.975
 6717WAT     H220394   1.412   8.410   0.813
 6718WAT      O20395   9.504   5.367   6.224
 6718WAT     H120396   9.601   5.392   6.221
 6718WAT     H220397   9.486   5.311   6.305
 6719WAT      O20398   7.500   1.542   4.090
 6719WAT     H120399   7.591   1.555   4.129
 6719WAT     H220400   7.479   1.444   4.088
 6720WAT      O20401   6.167   5.430   2.167
 6720WAT     H120402   6.264   5.452   2.167
 6720WAT     H220403   6.153   5.339   2.127
 6721WAT      O20404   0.932   1.949   8.923
 6721WAT     H120405   0.926   1.939   8.824
 6721WAT     H220406   1.006   2.012   8.946
 6722WAT      O20407   8.408   1.612   0.518
 6722WAT     H120408   8.398   1.566   0.430
 6722WAT     H220409   8.318   1.635   0.554
 6723WAT      O20410   8.732   3.657   3.404
 6723WAT     H120411   8.792   3.723   3.359
 6723WAT     H220412   8.722   3.576   3.346
 6724WAT      O20413   9.681   7.767   5.168
 6724WAT     H120414   9.718   7.738   5.256
 6724WAT     H220415   9.653   7.862   5.174
 6725WAT      O20416   1.547   0.892   7.315
 6725WAT     H120417   1.604   0.891   7.397
 6725WAT     H220418   1.594   0.841   7.242
 6726WAT      O20419   7.596   9.073   9.207
 6726WAT     H120420   7.503   9.048   9.181
 6726WAT     H220421   7.609   9.057   9.305
 6727WAT      O20422   5.946   7.717   5.438
 6727WAT     H120423   5.976   7.710   5.343
 6727WAT     H220424   5.855   7.757   5.442
 6728WAT      O20425   1.369   2.755   2.136
 6728WAT     H120426   1.317   2.706   2.067
 6728WAT     H220427   1.449   2.701   2.163
 6729WAT      O20428   5.594   4.472   8.428
 6729WAT     H120429   5.643   4.406   8.371
 6729WAT     H220430   5.576   4.555   8.375
 6730WAT      O20431   7.377   1.442   3.209
 6730WAT     H120432   7.320   1.517   3.244
 6730WAT     H220433   7.383   1.448   3.110
 6731WAT      O20434   8.604   0.393   9.017
 6731WAT     H120435   8.586   0.366   9.112
 6731WAT     H220436   8.553   0.333   8.955
 6732WAT      O20437   8.524   6.112   8.647
 6732WAT     H120438   8.452   6.092   8.581
 6732WAT     H220439   8.607   6.140   8.598
 6733WAT      O20440   8.874   8.480   2.537
 6733WAT     H120441   8.809   8.432   2.596
 6733WAT     H220442   8.861   8.452   2.442
 6734WAT      O20443   0.425   1.875   5.318
 6734WAT     H120444   0.417   1.895   5.220
 6734WAT     H220445   0.334   1.872   5.359
 6735WAT      O20446   1.062   0.475   2.578
 6735WAT     H120447   1.024   0.502   2.666
 6735WAT     H220448   0.990   0.475   2.509
 6736WAT      O20449   4.901   8.483   5.961
 6736WAT     H120450   4.991   8.459   5.926
 6736WAT     H220451   4.905   8.491   6.061
 6737WAT      O20452   3.742   2.323   2.681
 6737WAT     H120453   3.699   2.383   2.614
 6737WAT     H220454   3.730   2.227   2.652
 6738WAT      O20455   1.554   9.376   4.081
 6738WAT     H120456   1.503   9.345   4.161
 6738WAT     H220457   1.553   9.476   4.078
 6739WAT      O20458   2.521   1.835   6.240
 6739WAT     H120459   2.598   1.900   6.241
 6739WAT     H220460   2.476   1.839   6.151
 6740WAT      O20461   7.037   2.691   5.759
 6740WAT     H120462   6.942   2.660   5.756
 6740WAT     H220463   7.042   2.778   5.808
 6741WAT      O20464   3.659   0.682   7.971
 6741WAT     H120465   3.720   0.684   8.050
 6741WAT     H220466   3.669   0.768   7.920
 6742WAT      O20467   3.003   9.251   2.195
 6742WAT     H120468   2.966   9.332   2.241
 6742WAT     H220469   2.959   9.240   2.106
 6743WAT      O20470   1.311   6.298   1.992
 6743WAT     H120471   1.212   6.292   2.001
 6743WAT     H220472   1.338   6.394   1.982
 6744WAT      O20473   5.635   8.398   7.987
 6744WAT     H120474   5.580   8.314   7.986
 6744WAT     H220475   5.706   8.389   8.056
 6745WAT      O20476   0.128   1.565   9.040
 6745WAT     H120477   0.080   1.570   8.952
 6745WAT     H220478   0.063   1.540   9.111
 6746WAT      O20479   2.031   2.658   2.486
 6746WAT     H120480   2.023   2.571   2.535
 6746WAT     H220481   2.126   2.672   2.459
 6747WAT      O20482   1.039   8.677   0.822
 6747WAT     H120483   1.057   8.583   0.848
 6747WAT     H220484   1.126   8.724   0.804
 6748WAT      O20485   9.521   2.593   7.772
 6748WAT     H120486   9.557   2.499   7.769
 6748WAT     H220487   9.534   2.631   7.863
 6749WAT      O20488   1.534   8.945   6.272
 6749WAT     H120489   1.568   9.022   6.218
 6749WAT     H220490   1.611   8.886   6.297
 6750WAT      O20491   8.907   4.081   3.928
 6750WAT     H120492   8.971   4.060   4.002
 6750WAT     H220493   8.834   4.013   3.926
 6751WAT      O20494   7.069   4.991   5.862
 6751WAT     H120495   7.006   5.064   5.889
 6751WAT     H220496   7.049   4.909   5.915
 6752WAT      O20497   2.642   6.874   6.112
 6752WAT     H120498   2.713   6.843   6.048
 6752WAT     H220499   2.644   6.974   6.117
 6753WAT      O20500   3.854   8.610   2.201
 6753WAT     H120501   3.796   8.587   2.279
 6753WAT     H220502   3.841   8.706   2.176
 6754WAT      O20503   9.576   9.775   5.605
 6754WAT     H120504   9.626   9.854   5.573
 6754WAT     H220505   9.486   9.804   5.640
 6755WAT      O20506   8.778   1.720   3.907
 6755WAT     H120507   8.681   1.716   3.883
 6755WAT     H220508   8.812   1.627   3.921
 6756WAT      O20509   0.022   6.073   0.782
 6756WAT     H120510  -0.046   6.090   0.854
 6756WAT     H220511   0.103   6.030   0.823
 6757WAT      O20512   6.231   6.700   1.032
 6757WAT     H120513   6.274   6.649   0.957
 6757WAT     H220514   6.159   6.644   1.073
 6758WAT      O20515   7.315   4.402   9.470
 6758WAT     H120516   7.279   4.406   9.376
 6758WAT     H220517   7.389   4.336   9.474
 6759WAT      O20518   5.688   9.442   2.262
 6759WAT     H120519   5.761   9.418   2.326
 6759WAT     H220520   5.600   9.416   2.301
 6760WAT      O20521   9.296   7.798   1.504
 6760WAT     H120522   9.279   7.894   1.482
 6760WAT     H220523   9.349   7.756   1.430
 6761WAT      O20524   1.472   5.256   0.263
 6761WAT     H120525   1.544   5.201   0.221
 6761WAT     H220526   1.390   5.200   0.277
 6762WAT      O20527   8.903   2.681   4.285
 6762WAT     H120528   8.905   2.689   4.385
 6762WAT     H220529   8.859   2.762   4.246
 6763WAT      O20530   4.454   9.594   5.489
 6763WAT     H120531   4.453   9.673   5.427
 6763WAT     H220532   4.509   9.521   5.448
 6764WAT      O20533   5.774   6.943   2.409
 6764WAT     H120534   5.870   6.966   2.427
 6764WAT     H220535   5.716   7.015   2.447
 6765WAT      O20536   8.985   5.520   5.290
 6765WAT     H120537   9.036   5.530   5.205
 6765WAT     H220538   8.955   5.425   5.300
 6766WAT      O20539   8.904   3.293   5.620
 6766WAT     H120540   8.925   3.233   5.542
 6766WAT     H220541   8.865   3.238   5.694
 6767WAT      O20542   0.440   0.606   4.338
 6767WAT     H120543   0.366   0.650   4.287
 6767WAT     H220544   0.440   0.508   4.318
 6768WAT      O20545   5.082   4.557   3.266
 6768WAT     H120546   5.018   4.599   3.330
 6768WAT     H220547   5.033   4.525   3.185
 6769WAT      O20548   0.308   0.340   6.942
 6769WAT     H120549   0.354   0.275   6.881
 6769WAT     H220550   0.210   0.324   6.940
 6770WAT      O20551   2.446   6.659   6.127
 6770WAT     H120552   2.382   6.698   6.194
 6770WAT     H220553   2.524   6.720   6.116
 6771WAT      O20554   4.474   2.809   5.506
 6771WAT     H120555   4.400   2.744   5.525
 6771WAT     H220556   4.562   2.762   5.516
 6772WAT      O20557   8.464   1.674   9.788
 6772WAT     H120558   8.454   1.763   9.834
 6772WAT     H220559   8.374   1.639   9.765
 6773WAT      O20560   7.278   1.331   6.749
 6773WAT     H120561   7.286   1.248   6.694
 6773WAT     H220562   7.303   1.411   6.693
 6774WAT      O20563   4.934   2.490   2.322
 6774WAT     H120564   5.012   2.446   2.365
 6774WAT     H220565   4.948   2.589   2.320
 6775WAT      O20566   8.398   4.989   3.413
 6775WAT     H120567   8.328   5.054   3.442
 6775WAT     H220568   8.357   4.898   3.406
 6776WAT      O20569   9.805   1.552   8.441
 6776WAT     H120570   9.807   1.454   8.462
 6776WAT     H220571   9.800   1.564   8.342
 6777WAT      O20572   4.089   7.570   4.839
 6777WAT     H120573   4.008   7.578   4.897
 6777WAT     H220574   4.062   7.579   4.743
 6778WAT      O20575   6.120   9.767   4.500
 6778WAT     H120576   6.113   9.742   4.597
 6778WAT     H220577   6.066   9.703   4.446
 6779WAT      O20578   6.288   0.085   8.233
 6779WAT     H120579   6.341   0.073   8.318
 6779WAT     H220580   6.338   0.043   8.157
 6780WAT      O20581   6.696   0.185   5.574
 6780WAT     H120582   6.693   0.089   5.605
 6780WAT     H220583   6.775   0.230   5.614
 6781WAT      O20584   7.480   6.024   1.007
 6781WAT     H120585   7.381   6.041   1.006
 6781WAT     H220586   7.527   6.101   1.051
 6782WAT      O20587   7.002   6.081   3.753
 6782WAT     H120588   7.044   6.054   3.667
 6782WAT     H220589   7.073   6.093   3.823
 6783WAT      O20590   3.402   0.744   8.119
 6783WAT     H120591   3.457   0.798   8.183
 6783WAT     H220592   3.458   0.718   8.040
 6784WAT      O20593   7.163   6.805   7.838
 6784WAT     H120594   7.114   6.758   7.911
 6784WAT     H220595   7.133   6.769   7.749
 6785WAT      O20596   2.637   9.599   9.590
 6785WAT     H120597   2.704   9.531   9.622
 6785WAT     H220598   2.557   9.596   9.650
 6786WAT      O20599   4.830   2.472   1.053
 6786WAT     H120600   4.836   2.428   1.142
 6786WAT     H220601   4.748   2.440   1.005
 6787WAT      O20602   8.471   8.631   8.739
 6787WAT     H120603   8.536   8.689   8.691
 6787WAT     H220604   8.517   8.584   8.814
 6788WAT      O20605   7.771   2.228   1.413
 6788WAT     H120606   7.722   2.277   1.485
 6788WAT     H220607   7.770   2.283   1.329
 6789WAT      O20608   1.291   9.828   3.433
 6789WAT     H120609   1.322   9.812   3.526
 6789WAT     H220610   1.293   9.926   3.413
 6790WAT      O20611   1.097   1.905   6.848
 6790WAT     H120612   1.085   1.999   6.877
 6790WAT     H220613   1.194   1.888   6.828
 6791WAT      O20614   0.632   7.593   1.317
 6791WAT     H120615   0.661   7.687   1.299
 6791WAT     H220616   0.532   7.588   1.313
 6792WAT      O20617   2.775   3.165   0.467
 6792WAT     H120618   2.754   3.263   0.464
 6792WAT     H220619   2.809   3.142   0.559
 6793WAT      O20620   3.004   4.858   2.070
 6793WAT     H120621   3.031   4.853   1.974
 6793WAT     H220622   2.956   4.944   2.087
 6794WAT      O20623   7.253   2.520   2.374
 6794WAT     H120624   7.160   2.542   2.342
 6794WAT     H220625   7.319   2.554   2.307
 6795WAT      O20626   7.730   7.672   4.633
 6795WAT     H120627   7.772   7.758   4.662
 6795WAT     H220628   7.796   7.597   4.644
 6796WAT      O20629   7.548   7.977   6.282
 6796WAT     H120630   7.485   7.978   6.360
 6796WAT     H220631   7.642   7.966   6.315
 6797WAT      O20632   3.629   5.452   5.884
 6797WAT     H120633   3.696   5.518   5.851
 6797WAT     H220634   3.576   5.492   5.959
 6798WAT      O20635   5.956   6.873   8.287
 6798WAT     H120636   5.979   6.892   8.382
 6798WAT     H220637   5.934   6.776   8.276
 6799WAT      O20638   0.666   6.946   4.980
 6799WAT     H120639   0.620   6.890   4.911
 6799WAT     H220640   0.758   6.971   4.948
 6800WAT      O20641   5.133   5.492   6.763
 6800WAT     H120642   5.041   5.455   6.775
 6800WAT     H220643   5.200   5.431   6.805
 6801WAT      O20644   4.975   3.760   5.354
 6801WAT     H120645   4.927   3.673   5.349
 6801WAT     H220646   4.915   3.830   5.392
 6802WAT      O20647   6.797   5.441   8.519
 6802WAT     H120648   6.719   5.502   8.509
 6802WAT     H220649   6.805   5.413   8.615
 6803WAT      O20650   1.206   8.687   3.038
 6803WAT     H120651   1.149   8.722   2.964
 6803WAT     H220652   1.301   8.685   3.009
 6804WAT      O20653   0.354   3.254   6.772
 6804WAT     H120654   0.381   3.302   6.855
 6804WAT     H220655   0.405   3.290   6.694
 6805WAT      O20656   8.433   5.251   9.325
 6805WAT     H120657   8.452   5.287   9.233
 6805WAT     H220658   8.445   5.152   9.325
 6806WAT      O20659   7.670   7.027   6.822
 6806WAT     H120660   7.700   7.001   6.914
 6806WAT     H220661   7.605   6.960   6.788
 6807WAT      O20662   2.418   3.694   3.353
 6807WAT     H120663   2.331   3.710   3.400
 6807WAT     H220664   2.457   3.782   3.325
 6808WAT      O20665   0.231   3.727   3.450
 6808WAT     H120666   0.145   3.698   3.410
 6808WAT     H220667   0.259   3.661   3.521
 6809WAT      O20668   7.681   7.958   7.063
 6809WAT     H120669   7.700   8.040   7.118
 6809WAT     H220670   7.630   7.892   7.119
 6810WAT      O20671   1.058   8.853   7.397
 6810WAT     H120672   1.107   8.773   7.362
 6810WAT     H220673   1.083   8.933   7.342
 6811WAT      O20674   4.846   7.983   2.673
 6811WAT     H120675   4.900   8.059   2.710
 6811WAT     H220676   4.904   7.902   2.663
 6812WAT      O20677   4.712   8.299   0.012
 6812WAT     H120678   4.738   8.203   0.005
 6812WAT     H220679   4.638   8.309   0.080
 6813WAT      O20680   3.102   8.131   2.044
 6813WAT     H120681   3.155   8.050   2.070
 6813WAT     H220682   3.046   8.160   2.122
 6814WAT      O20683   1.895   7.058   5.483
 6814WAT     H120684   1.824   7.042   5.415
 6814WAT     H220685   1.916   7.156   5.485
 6815WAT      O20686   1.169   3.312   8.038
 6815WAT     H120687   1.173   3.270   7.947
 6815WAT     H220688   1.261   3.323   8.075
 6816WAT      O20689   9.862   5.385   3.943
 6816WAT     H120690   9.849   5.428   3.854
 6816WAT     H220691   9.894   5.291   3.931
 6817WAT      O20692   5.283   2.069   1.684
 6817WAT     H120693   5.351   2.009   1.641
 6817WAT     H220694   5.302   2.075   1.782
 6818WAT      O20695   7.342   1.664   1.632
 6818WAT     H120696   7.374   1.698   1.721
 6818WAT     H220697   7.321   1.741   1.573
 6819WAT      O20698   0.486   4.768   5.327
 6819WAT     H120699   0.506   4.671   5.336
 6819WAT     H220700   0.540   4.806   5.251
 6820WAT      O20701   0.578   4.545   5.891
 6820WAT     H120702   0.575   4.546   5.791
 6820WAT     H220703   0.566   4.451   5.923
 6821WAT      O20704   7.158   8.043   6.877
 6821WAT     H120705   7.238   8.078   6.927
 6821WAT     H220706   7.080   8.104   6.892
 6822WAT      O20707   0.752   7.284   3.410
 6822WAT     H120708   0.727   7.291   3.506
 6822WAT     H220709   0.786   7.373   3.378
 6823WAT      O20710   2.334   3.815   7.503
 6823WAT     H120711   2.366   3.820   7.597
 6823WAT     H220712   2.403   3.853   7.442
 6824WAT      O20713   6.261   9.823   6.882
 6824WAT     H120714   6.203   9.885   6.935
 6824WAT     H220715   6.357   9.843   6.902
 6825WAT      O20716   4.673   1.766   8.511
 6825WAT     H120717   4.759   1.748   8.464
 6825WAT     H220718   4.636   1.854   8.480
 6826WAT      O20719   0.375   4.961   7.104
 6826WAT     H120720   0.349   4.877   7.151
 6826WAT     H220721   0.371   4.946   7.005
 6827WAT      O20722   7.595   6.906   8.754
 6827WAT     H120723   7.655   6.877   8.679
 6827WAT     H220724   7.500   6.887   8.730
 6828WAT      O20725   8.548   8.902   3.529
 6828WAT     H120726   8.532   8.939   3.438
 6828WAT     H220727   8.461   8.898   3.579
 6829WAT      O20728   6.396   4.669   4.038
 6829WAT     H120729   6.455   4.595   4.007
 6829WAT     H220730   6.450   4.736   4.089
 6830WAT      O20731   5.049   1.457   3.672
 6830WAT     H120732   5.006   1.375   3.633
 6830WAT     H220733   5.027   1.536   3.615
 6831WAT      O20734   6.690   1.873   5.200
 6831WAT     H120735   6.720   1.778   5.196
 6831WAT     H220736   6.697   1.913   5.108
 6832WAT      O20737   7.176   6.451   3.076
 6832WAT     H120738   7.245   6.425   3.144
 6832WAT     H220739   7.128   6.533   3.108
 6833WAT      O20740   6.441   3.021   3.862
 6833WAT     H120741   6.446   2.985   3.769
 6833WAT     H220742   6.380   3.100   3.864
 6834WAT      O20743   8.038   7.783   4.484
 6834WAT     H120744   7.992   7.698   4.510
 6834WAT     H220745   8.072   7.829   4.566
 6835WAT      O20746   0.170   2.192   9.771
 6835WAT     H120747   0.110   2.268   9.797
 6835WAT     H220748   0.235   2.223   9.702
 6836WAT      O20749   9.216   9.048   4.300
 6836WAT     H120750   9.207   9.146   4.316
 6836WAT     H220751   9.303   9.028   4.256
 6837WAT      O20752   2.378   5.370   5.582
 6837WAT     H120753   2.295   5.425   5.577
 6837WAT     H220754   2.366   5.297   5.650
 6838WAT      O20755   2.668   4.977   0.470
 6838WAT     H120756   2.628   4.887   0.455
 6838WAT     H220757   2.594   5.045   0.477
 6839WAT      O20758   6.490   7.237   6.946
 6839WAT     H120759   6.449   7.325   6.972
 6839WAT     H220760   6.534   7.196   7.026
 6840WAT      O20761   8.411   4.951   7.030
 6840WAT     H120762   8.365   5.033   6.996
 6840WAT     H220763   8.346   4.896   7.082
 6841WAT      O20764   3.739   0.987   5.990
 6841WAT     H120765   3.654   0.941   6.016
 6841WAT     H220766   3.814   0.921   5.990
 6842WAT      O20767   2.788   3.574   7.915
 6842WAT     H120768   2.846   3.510   7.864
 6842WAT     H220769   2.745   3.638   7.852
 6843WAT      O20770   0.543   5.371   2.921
 6843WAT     H120771   0.610   5.445   2.917
 6843WAT     H220772   0.515   5.347   2.828
 6844WAT      O20773   0.279   6.598   8.239
 6844WAT     H120774   0.339   6.531   8.196
 6844WAT     H220775   0.284   6.684   8.188
 6845WAT      O20776   3.527   3.515   0.762
 6845WAT     H120777   3.520   3.426   0.716
 6845WAT     H220778   3.435   3.548   0.786
 6846WAT      O20779   3.690   2.969   1.515
 6846WAT     H120780   3.721   3.062   1.493
 6846WAT     H220781   3.739   2.935   1.595
 6847WAT      O20782   7.138   1.015   6.560
 6847WAT     H120783   7.060   1.036   6.619
 6847WAT     H220784   7.221   1.051   6.602
 6848WAT      O20785   8.557   6.675   0.230
 6848WAT     H120786   8.656   6.665   0.219
 6848WAT     H220787   8.520   6.594   0.276
 6849WAT      O20788   1.431   1.780   5.151
 6849WAT     H120789   1.365   1.806   5.222
 6849WAT     H220790   1.462   1.862   5.102
 6850WAT      O20791   7.086   2.527   8.349
 6850WAT     H120792   7.148   2.604   8.332
 6850WAT     H220793   7.066   2.480   8.264
 6851WAT      O20794   8.828   4.896   5.105
 6851WAT     H120795   8.773   4.863   5.028
 6851WAT     H220796   8.865   4.818   5.156
 6852WAT      O20797   1.879   5.705   4.482
 6852WAT     H120798   1.974   5.692   4.510
 6852WAT     H220799   1.819   5.651   4.540
 6853WAT      O20800   6.447   5.861   6.692
 6853WAT     H120801   6.435   5.937   6.757
 6853WAT     H220802   6.506   5.792   6.734
 6854WAT      O20803   5.640   3.582   7.257
 6854WAT     H120804   5.546   3.614   7.249
 6854WAT     H220805   5.669   3.543   7.170
 6855WAT      O20806   0.295   8.520   5.817
 6855WAT     H120807   0.307   8.478   5.907
 6855WAT     H220808   0.210   8.487   5.776
 6856WAT      O20809   1.924   8.043   0.876
 6856WAT     H120810   1.901   7.954   0.838
 6856WAT     H220811   2.023   8.054   0.879
 6857WAT      O20812   1.465   7.553   6.619
 6857WAT     H120813   1.437   7.491   6.546
 6857WAT     H220814   1.402   7.544   6.696
 6858WAT      O20815   1.593   5.730   3.729
 6858WAT     H120816   1.605   5.812   3.672
 6858WAT     H220817   1.502   5.692   3.714
 6859WAT      O20818   2.176   3.877   2.813
 6859WAT     H120819   2.229   3.902   2.732
 6859WAT     H220820   2.131   3.958   2.850
 6860WAT      O20821   5.273   2.197   3.191
 6860WAT     H120822   5.358   2.245   3.168
 6860WAT     H220823   5.207   2.207   3.117
 6861WAT      O20824   2.588   7.916   6.234
 6861WAT     H120825   2.493   7.946   6.220
 6861WAT     H220826   2.592   7.816   6.228
 6862WAT      O20827   4.682   8.034   3.186
 6862WAT     H120828   4.642   8.106   3.130
 6862WAT     H220829   4.708   8.071   3.276
 6863WAT      O20830   1.561   8.896   3.058
 6863WAT     H120831   1.657   8.923   3.047
 6863WAT     H220832   1.554   8.797   3.051
 6864WAT      O20833   7.665   0.592   9.655
 6864WAT     H120834   7.618   0.574   9.741
 6864WAT     H220835   7.758   0.557   9.660
 6865WAT      O20836   5.301   2.060   1.958
 6865WAT     H120837   5.259   2.143   1.995
 6865WAT     H220838   5.355   2.017   2.030
 6866WAT      O20839   4.049   4.082   3.457
 6866WAT     H120840   4.007   4.109   3.370
 6866WAT     H220841   3.981   4.088   3.530
 6867WAT      O20842   2.203   5.689   2.149
 6867WAT     H120843   2.298   5.658   2.156
 6867WAT     H220844   2.182   5.748   2.227
 6868WAT      O20845   6.664   7.141   4.953
 6868WAT     H120846   6.719   7.108   5.030
 6868WAT     H220847   6.623   7.062   4.906
 6869WAT      O20848   7.300   9.769   1.549
 6869WAT     H120849   7.238   9.778   1.627
 6869WAT     H220850   7.393   9.752   1.582
 6870WAT      O20851   3.877   5.652   2.959
 6870WAT     H120852   3.971   5.641   2.927
 6870WAT     H220853   3.818   5.677   2.881
 6871WAT      O20854   9.676   9.384   6.652
 6871WAT     H120855   9.707   9.377   6.558
 6871WAT     H220856   9.610   9.459   6.660
 6872WAT      O20857   6.076   3.207   7.934
 6872WAT     H120858   6.049   3.254   7.850
 6872WAT     H220859   6.079   3.272   8.009
 6873WAT      O20860   4.737   3.583   0.722
 6873WAT     H120861   4.723   3.492   0.760
 6873WAT     H220862   4.710   3.652   0.789
 6874WAT      O20863   5.605   2.642   2.933
 6874WAT     H120864   5.661   2.605   2.858
 6874WAT     H220865   5.562   2.727   2.902
 6875WAT      O20866   8.519   0.725   4.112
 6875WAT     H120867   8.522   0.734   4.013
 6875WAT     H220868   8.612   0.724   4.149
 6876WAT      O20869   1.519   2.776   5.005
 6876WAT     H120870   1.482   2.739   5.090
 6876WAT     H220871   1.448   2.775   4.934
 6877WAT      O20872   1.015   7.041   4.961
 6877WAT     H120873   1.036   6.976   4.887
 6877WAT     H220874   1.098   7.056   5.015
 6878WAT      O20875   2.563   5.252   3.681
 6878WAT     H120876   2.621   5.314   3.732
 6878WAT     H220877   2.617   5.175   3.647
 6879WAT      O20878   4.934   2.155   8.886
 6879WAT     H120879   4.859   2.204   8.930
 6879WAT     H220880   5.013   2.154   8.947
 6880WAT      O20881   5.416   3.789   6.685
 6880WAT     H120882   5.377   3.713   6.634
 6880WAT     H220883   5.506   3.764   6.720
 6881WAT      O20884   4.303   0.938   4.333
 6881WAT     H120885   4.287   0.851   4.287
 6881WAT     H220886   4.321   1.009   4.265
 6882WAT      O20887   6.490   6.495   9.366
 6882WAT     H120888   6.525   6.523   9.456
 6882WAT     H220889   6.563   6.449   9.315
 6883WAT      O20890   6.227   1.024   2.239
 6883WAT     H120891   6.316   0.998   2.275
 6883WAT     H220892   6.189   0.948   2.187
 6884WAT      O20893   8.966   4.843   4.509
 6884WAT     H120894   9.012   4.904   4.574
 6884WAT     H220895   9.033   4.781   4.469
 6885WAT      O20896   2.906   4.604   9.039
 6885WAT     H120897   2.817   4.611   8.996
 6885WAT     H220898   2.895   4.604   9.139
 6886WAT      O20899   2.470   0.735   2.041
 6886WAT     H120900   2.541   0.782   1.988
 6886WAT     H220901   2.389   0.722   1.985
 6887WAT      O20902   7.320   8.533   3.165
 6887WAT     H120903   7.317   8.559   3.262
 6887WAT     H220904   7.337   8.615   3.110
 6888WAT      O20905   9.059   7.906   1.697
 6888WAT     H120906   9.075   7.809   1.680
 6888WAT     H220907   9.138   7.944   1.746
 6889WAT      O20908   2.265   8.741   8.421
 6889WAT     H120909   2.251   8.825   8.475
 6889WAT     H220910   2.314   8.764   8.337
 6890WAT      O20911   4.193   7.149   3.447
 6890WAT     H120912   4.219   7.199   3.363
 6890WAT     H220913   4.267   7.087   3.473
 6891WAT      O20914   8.802   1.393   5.482
 6891WAT     H120915   8.747   1.430   5.558
 6891WAT     H220916   8.882   1.451   5.467
 6892WAT      O20917   5.484   0.433   1.266
 6892WAT     H120918   5.401   0.468   1.223
 6892WAT     H220919   5.491   0.335   1.252
 6893WAT      O20920   0.625   5.172   1.891
 6893WAT     H120921   0.700   5.238   1.887
 6893WAT     H220922   0.602   5.153   1.987
 6894WAT      O20923   6.987   1.146   8.602
 6894WAT     H120924   6.972   1.108   8.693
 6894WAT     H220925   7.076   1.191   8.600
 6895WAT      O20926   9.851   0.123   5.559
 6895WAT     H120927   9.904   0.128   5.475
 6895WAT     H220928   9.815   0.214   5.582
 6896WAT      O20929   1.171   3.134   6.337
 6896WAT     H120930   1.219   3.106   6.253
 6896WAT     H220931   1.078   3.161   6.314
 6897WAT      O20932   6.423   5.447   4.202
 6897WAT     H120933   6.487   5.475   4.274
 6897WAT     H220934   6.451   5.488   4.116
 6898WAT      O20935   8.304   3.520   9.644
 6898WAT     H120936   8.259   3.461   9.710
 6898WAT     H220937   8.354   3.592   9.691
 6899WAT      O20938   2.783   1.254   5.416
 6899WAT     H120939   2.733   1.245   5.330
 6899WAT     H220940   2.723   1.230   5.492
 6900WAT      O20941   2.809   2.728   3.703
 6900WAT     H120942   2.778   2.657   3.766
 6900WAT     H220943   2.812   2.691   3.610
 6901WAT      O20944   2.251   6.137   4.050
 6901WAT     H120945   2.265   6.197   3.972
 6901WAT     H220946   2.155   6.112   4.056
 6902WAT      O20947   8.815   6.651   6.854
 6902WAT     H120948   8.845   6.692   6.940
 6902WAT     H220949   8.818   6.720   6.781
 6903WAT      O20950   3.141   9.189   6.590
 6903WAT     H120951   3.047   9.193   6.555
 6903WAT     H220952   3.168   9.093   6.601
 6904WAT      O20953   0.056   8.672   3.869
 6904WAT     H120954   0.015   8.728   3.941
 6904WAT     H220955  -0.017   8.625   3.818
 6905WAT      O20956   5.340   1.567   4.358
 6905WAT     H120957   5.336   1.666   4.375
 6905WAT     H220958   5.378   1.521   4.438
 6906WAT      O20959   3.843   6.082   3.830
 6906WAT     H120960   3.905   6.146   3.784
 6906WAT     H220961   3.761   6.070   3.775
 6907WAT      O20962   4.326   1.107   4.822
 6907WAT     H120963   4.373   1.024   4.853
 6907WAT     H220964   4.237   1.114   4.866
 6908WAT      O20965   4.417   9.043   9.623
 6908WAT     H120966   4.378   9.133   9.642
 6908WAT     H220967   4.509   9.037   9.663
 6909WAT      O20968   0.994   4.577   4.799
 6909WAT     H120969   1.044   4.546   4.880
 6909WAT     H220970   0.987   4.503   4.733
 6910WAT      O20971   0.835   5.220   4.856
 6910WAT     H120972   0.782   5.135   4.855
 6910WAT     H220973   0.928   5.201   4.824
 6911WAT      O20974   8.955   0.167   9.311
 6911WAT     H120975   8.959   0.206   9.219
 6911WAT     H220976   8.893   0.222   9.368
 6912WAT      O20977   9.226   8.889   6.080
 6912WAT     H120978   9.180   8.821   6.138
 6912WAT     H220979   9.173   8.974   6.081
 6913WAT      O20980   5.199   1.615   5.871
 6913WAT     H120981   5.148   1.609   5.957
 6913WAT     H220982   5.136   1.636   5.796
 6914WAT      O20983   4.603   7.295   1.034
 6914WAT     H120984   4.519   7.247   1.009
 6914WAT     H220985   4.640   7.254   1.118
 6915WAT      O20986   7.393   4.443   0.059
 6915WAT     H120987   7.444   4.470   0.141
 6915WAT     H220988   7.324   4.513   0.038
 6916WAT      O20989   6.312   6.906   4.099
 6916WAT     H120990   6.330   6.862   4.187
 6916WAT     H220991   6.224   6.876   4.064
 6917WAT      O20992   6.844   3.636   9.443
 6917WAT     H120993   6.841   3.730   9.477
 6917WAT     H220994   6.933   3.619   9.399
 6918WAT      O20995   3.361   1.566   1.219
 6918WAT     H120996   3.304   1.494   1.180
 6918WAT     H220997   3.406   1.532   1.301
 6919WAT      O20998   7.924   8.061   6.743
 6919WAT     H120999   8.006   8.042   6.687
 6919WAT     H221000   7.843   8.056   6.685
 6920WAT      O21001   2.299   2.360   0.343
 6920WAT     H121002   2.374   2.380   0.280
 6920WAT     H221003   2.332   2.302   0.417
 6921WAT      O21004   0.417   3.427   4.558
 6921WAT     H121005   0.402   3.521   4.527
 6921WAT     H221006   0.455   3.372   4.483
 6922WAT      O21007   8.283   4.215   9.238
 6922WAT     H121008   8.304   4.251   9.329
 6922WAT     H221009   8.199   4.256   9.203
 6923WAT      O21010   6.783   3.910   1.323
 6923WAT     H121011   6.780   3.926   1.224
 6923WAT     H221012   6.871   3.939   1.359
 6924WAT      O21013   3.799   1.466   4.850
 6924WAT     H121014   3.757   1.376   4.840
 6924WAT     H221015   3.759   1.529   4.784
 6925WAT      O21016   6.164   7.285   8.223
 6925WAT     H121017   6.180   7.344   8.302
 6925WAT     H221018   6.208   7.326   8.142
 6926WAT      O21019   6.502   4.878   3.442
 6926WAT     H121020   6.421   4.914   3.396
 6926WAT     H221021   6.475   4.817   3.516
 6927WAT      O21022   0.477   3.563   6.643
 6927WAT     H121023   0.475   3.531   6.738
 6927WAT     H221024   0.393   3.612   6.622
 6928WAT      O21025   7.084   8.436   4.741
 6928WAT     H121026   7.162   8.424   4.680
 6928WAT     H221027   7.089   8.525   4.785
 6929WAT      O21028   8.506   1.202   9.676
 6929WAT     H121029   8.536   1.114   9.712
 6929WAT     H221030   8.423   1.231   9.724
 6930WAT      O21031   0.742   4.033   8.146
 6930WAT     H121032   0.786   3.943   8.143
 6930WAT     H221033   0.731   4.068   8.053
 6931WAT      O21034   2.143   7.106   5.117
 6931WAT     H121035   2.119   7.202   5.100
 6931WAT     H221036   2.187   7.098   5.207
 6932WAT      O21037   1.312   8.036   0.568
 6932WAT     H121038   1.373   8.033   0.489
 6932WAT     H221039   1.367   8.037   0.652
 6933WAT      O21040   7.226   8.844   1.163
 6933WAT     H121041   7.137   8.871   1.124
 6933WAT     H221042   7.299   8.873   1.102
 6934WAT      O21043   4.334   3.589   4.016
 6934WAT     H121044   4.323   3.514   4.081
 6934WAT     H221045   4.321   3.677   4.062
 6935WAT      O21046   7.399   5.834   1.848
 6935WAT     H121047   7.389   5.797   1.756
 6935WAT     H221048   7.397   5.934   1.843
 6936WAT      O21049   0.669   5.209   6.345
 6936WAT     H121050   0.591   5.158   6.308
 6936WAT     H221051   0.638   5.268   6.419
 6937WAT      O21052   6.295   5.413   9.249
 6937WAT     H121053   6.267   5.427   9.344
 6937WAT     H221054   6.394   5.410   9.244
 6938WAT      O21055   1.093   6.656   9.400
 6938WAT     H121056   1.058   6.748   9.385
 6938WAT     H221057   1.022   6.599   9.443
 6939WAT      O21058   3.194   5.598   0.348
 6939WAT     H121059   3.175   5.688   0.309
 6939WAT     H221060   3.270   5.605   0.413
 6940WAT      O21061   6.466   6.191   3.547
 6940WAT     H121062   6.470   6.231   3.638
 6940WAT     H221063   6.431   6.098   3.552
 6941WAT      O21064   4.969   6.265   1.228
 6941WAT     H121065   5.068   6.257   1.216
 6941WAT     H221066   4.945   6.359   1.252
 6942WAT      O21067   7.389   9.641   3.789
 6942WAT     H121068   7.384   9.554   3.839
 6942WAT     H221069   7.304   9.692   3.804
 6943WAT      O21070   9.428   3.269   5.755
 6943WAT     H121071   9.496   3.266   5.681
 6943WAT     H221072   9.352   3.327   5.727
 6944WAT      O21073   4.664   3.486   7.248
 6944WAT     H121074   4.569   3.458   7.248
 6944WAT     H221075   4.675   3.568   7.191
 6945WAT      O21076   0.518   8.341   2.230
 6945WAT     H121077   0.538   8.416   2.294
 6945WAT     H221078   0.537   8.253   2.275
 6946WAT      O21079   2.467   0.591   8.239
 6946WAT     H121080   2.465   0.496   8.206
 6946WAT     H221081   2.373   0.623   8.250
 6947WAT      O21082   2.595   5.666   5.312
 6947WAT     H121083   2.620   5.762   5.320
 6947WAT     H221084   2.590   5.625   5.403
 6948WAT      O21085   3.238   0.647   8.464
 6948WAT     H121086   3.242   0.608   8.372
 6948WAT     H221087   3.190   0.584   8.525
 6949WAT      O21088   4.537   6.449   7.545
 6949WAT     H121089   4.558   6.391   7.623
 6949WAT     H221090   4.503   6.393   7.470
 6950WAT      O21091   5.435   7.247   8.804
 6950WAT     H121092   5.421   7.171   8.741
 6950WAT     H221093   5.364   7.244   8.875
 6951WAT      O21094   2.184   4.909   4.251
 6951WAT     H121095   2.222   4.918   4.343
 6951WAT     H221096   2.137   4.821   4.243
 6952WAT      O21097   5.297   4.500   6.175
 6952WAT     H121098   5.392   4.496   6.143
 6952WAT     H221099   5.287   4.444   6.257
 6953WAT      O21100   5.674   4.846   3.450
 6953WAT     H121101   5.723   4.833   3.364
 6953WAT     H221102   5.724   4.802   3.524
 6954WAT      O21103   8.771   2.589   3.042
 6954WAT     H121104   8.716   2.640   3.107
 6954WAT     H221105   8.713   2.560   2.966
 6955WAT      O21106   1.603   1.066   9.321
 6955WAT     H121107   1.610   1.102   9.414
 6955WAT     H221108   1.578   0.970   9.324
 6956WAT      O21109   7.167   6.208   6.712
 6956WAT     H121110   7.190   6.201   6.809
 6956WAT     H221111   7.213   6.287   6.672
 6957WAT      O21112   8.806   1.850   5.893
 6957WAT     H121113   8.794   1.879   5.798
 6957WAT     H221114   8.820   1.751   5.896
 6958WAT      O21115   9.288   2.788   6.369
 6958WAT     H121116   9.347   2.819   6.443
 6958WAT     H221117   9.201   2.756   6.407
 6959WAT      O21118   8.721   0.415   0.378
 6959WAT     H121119   8.719   0.322   0.416
 6959WAT     H221120   8.698   0.481   0.450
 6960WAT      O21121   4.915   2.102   0.711
 6960WAT     H121122   4.881   2.060   0.627
 6960WAT     H221123   4.986   2.044   0.751
 6961WAT      O21124   2.727   5.429   0.815
 6961WAT     H121125   2.748   5.440   0.718
 6961WAT     H221126   2.684   5.340   0.830
 6962WAT      O21127   7.207   0.187   2.304
 6962WAT     H121128   7.175   0.239   2.383
 6962WAT     H221129   7.191   0.089   2.320
 6963WAT      O21130   7.538   5.806   5.233
 6963WAT     H121131   7.458   5.802   5.173
 6963WAT     H221132   7.604   5.871   5.196
 6964WAT      O21133   9.618   3.036   1.898
 6964WAT     H121134   9.622   2.981   1.982
 6964WAT     H221135   9.655   2.983   1.822
 6965WAT      O21136   4.214   6.432   1.076
 6965WAT     H121137   4.269   6.395   1.151
 6965WAT     H221138   4.232   6.530   1.067
 6966WAT      O21139   5.702   5.763   3.533
 6966WAT     H121140   5.763   5.707   3.590
 6966WAT     H221141   5.651   5.703   3.472
 6967WAT      O21142   8.480   1.772   3.372
 6967WAT     H121143   8.494   1.695   3.434
 6967WAT     H221144   8.569   1.811   3.347
 6968WAT      O21145   5.605   1.776   1.101
 6968WAT     H121146   5.614   1.679   1.126
 6968WAT     H221147   5.508   1.800   1.096
 6969WAT      O21148   0.014   5.426   5.502
 6969WAT     H121149  -0.016   5.369   5.578
 6969WAT     H221150   0.060   5.507   5.537
 6970WAT      O21151   1.226   2.666   9.035
 6970WAT     H121152   1.270   2.742   9.082
 6970WAT     H221153   1.179   2.700   8.954
 6971WAT      O21154   2.118   8.636   0.332
 6971WAT     H121155   2.039   8.575   0.331
 6971WAT     H221156   2.086   8.731   0.322
 6972WAT      O21157   2.528   6.083   3.910
 6972WAT     H121158   2.444   6.053   3.954
 6972WAT     H221159   2.519   6.179   3.882
 6973WAT      O21160   2.552   0.517   0.181
 6973WAT     H121161   2.486   0.561   0.120
 6973WAT     H221162   2.519   0.427   0.207
 6974WAT      O21163   9.260   9.324   4.317
 6974WAT     H121164   9.317   9.363   4.244
 6974WAT     H221165   9.184   9.387   4.336
 6975WAT      O21166   5.074   3.846   1.617
 6975WAT     H121167   5.013   3.902   1.561
 6975WAT     H221168   5.117   3.776   1.560
 6976WAT      O21169   5.840   6.107   0.597
 6976WAT     H121170   5.858   6.016   0.561
 6976WAT     H221171   5.880   6.116   0.688
 6977WAT      O21172   4.607   5.364   3.806
 6977WAT     H121173   4.621   5.450   3.854
 6977WAT     H221174   4.626   5.288   3.869
 6978WAT      O21175   8.876   8.506   6.734
 6978WAT     H121176   8.782   8.484   6.709
 6978WAT     H221177   8.937   8.484   6.657
 6979WAT      O21178   6.905   0.609   9.052
 6979WAT     H121179   6.954   0.549   9.114
 6979WAT     H221180   6.944   0.701   9.057
 6980WAT      O21181   0.474   9.238   2.221
 6980WAT     H121182   0.511   9.156   2.265
 6980WAT     H221183   0.548   9.288   2.177
 6981WAT      O21184   6.471   3.230   6.848
 6981WAT     H121185   6.518   3.201   6.931
 6981WAT     H221186   6.372   3.227   6.863
 6982WAT      O21187   6.597   3.837   4.315
 6982WAT     H121188   6.640   3.806   4.230
 6982WAT     H221189   6.664   3.837   4.389
 6983WAT      O21190   2.547   5.271   1.327
 6983WAT     H121191   2.635   5.311   1.300
 6983WAT     H221192   2.493   5.339   1.376
 6984WAT      O21193   6.902   3.743   5.012
 6984WAT     H121194   6.969   3.815   4.992
 6984WAT     H221195   6.932   3.690   5.091
 6985WAT      O21196   3.359   6.052   4.643
 6985WAT     H121197   3.406   6.126   4.594
 6985WAT     H221198   3.426   5.999   4.694
 6986WAT      O21199   8.415   9.743   2.474
 6986WAT     H121200   8.414   9.706   2.381
 6986WAT     H221201   8.342   9.810   2.484
 6987WAT      O21202   1.493   3.678   1.739
 6987WAT     H121203   1.431   3.671   1.660
 6987WAT     H221204   1.530   3.588   1.760
 6988WAT      O21205   5.505   0.392   9.510
 6988WAT     H121206   5.528   0.487   9.529
 6988WAT     H221207   5.585   0.345   9.472
 6989WAT      O21208   7.345   0.697   7.170
 6989WAT     H121209   7.396   0.611   7.160
 6989WAT     H221210   7.401   0.773   7.136
 6990WAT      O21211   4.366   0.456   4.294
 6990WAT     H121212   4.436   0.442   4.363
 6990WAT     H221213   4.364   0.377   4.232
 6991WAT      O21214   3.908   7.703   0.045
 6991WAT     H121215   3.984   7.664   0.096
 6991WAT     H221216   3.823   7.690   0.095
 6992WAT      O21217   3.560   5.507   9.269
 6992WAT     H121218   3.597   5.598   9.291
 6992WAT     H221219   3.542   5.457   9.354
 6993WAT      O21220   7.333   3.901   6.618
 6993WAT     H121221   7.285   3.954   6.547
 6993WAT     H221222   7.421   3.945   6.638
 6994WAT      O21223   2.793   2.800   2.302
 6994WAT     H121224   2.842   2.756   2.226
 6994WAT     H221225   2.706   2.835   2.269
 6995WAT      O21226   4.722   4.538   8.030
 6995WAT     H121227   4.744   4.570   7.939
 6995WAT     H221228   4.646   4.591   8.068
 6996WAT      O21229   9.618   9.186   4.291
 6996WAT     H121230   9.641   9.144   4.378
 6996WAT     H221231   9.558   9.125   4.239
 6997WAT      O21232   5.985   5.840   9.367
 6997WAT     H121233   5.966   5.937   9.350
 6997WAT     H221234   5.913   5.801   9.424
 6998WAT      O21235   0.577   8.840   0.704
 6998WAT     H121236   0.630   8.795   0.775
 6998WAT     H221237   0.609   8.934   0.693
 6999WAT      O21238   4.198   2.103   4.133
 6999WAT     H121239   4.270   2.162   4.097
 6999WAT     H221240   4.230   2.008   4.133
 7000WAT      O21241   6.134   1.083   1.949
 7000WAT     H121242   6.227   1.045   1.954
 7000WAT     H221243   6.138   1.173   1.905
 7001WAT      O21244   9.300   9.336   7.588
 7001WAT     H121245   9.350   9.400   7.530
 7001WAT     H221246   9.259   9.264   7.532
 7002WAT      O21247   1.719   2.424   3.450
 7002WAT     H121248   1.699   2.522   3.444
 7002WAT     H221249   1.760   2.404   3.539
 7003WAT      O21250   3.400   8.668   2.931
 7003WAT     H121251   3.326   8.729   2.902
 7003WAT     H221252   3.386   8.642   3.027
 7004WAT      O21253   8.028   6.401   4.130
 7004WAT     H121254   8.072   6.416   4.041
 7004WAT     H221255   8.083   6.444   4.202
 7005WAT      O21256   2.017   2.034   1.751
 7005WAT     H121257   1.933   2.087   1.764
 7005WAT     H221258   2.023   2.003   1.657
 7006WAT      O21259   7.381   5.174   7.379
 7006WAT     H121260   7.345   5.160   7.471
 7006WAT     H221261   7.307   5.203   7.318
 7007WAT      O21262   4.902   2.918   3.791
 7007WAT     H121263   4.806   2.908   3.817
 7007WAT     H221264   4.956   2.948   3.869
 7008WAT      O21265   5.497   5.022   3.282
 7008WAT     H121266   5.574   5.051   3.226
 7008WAT     H221267   5.528   4.956   3.351
 7009WAT      O21268   3.736   3.234   0.200
 7009WAT     H121269   3.820   3.181   0.211
 7009WAT     H221270   3.752   3.328   0.229
 7010WAT      O21271   4.313   3.332   2.165
 7010WAT     H121272   4.296   3.431   2.171
 7010WAT     H221273   4.236   3.283   2.204
 7011WAT      O21274   9.654   4.098   7.220
 7011WAT     H121275   9.721   4.167   7.246
 7011WAT     H221276   9.635   4.039   7.298
 7012WAT      O21277   8.035   7.905   7.256
 7012WAT     H121278   8.120   7.954   7.276
 7012WAT     H221279   8.001   7.934   7.166
 7013WAT      O21280   3.495   1.294   0.365
 7013WAT     H121281   3.407   1.313   0.322
 7013WAT     H221282   3.541   1.381   0.385
 7014WAT      O21283   4.855   5.352   6.720
 7014WAT     H121284   4.790   5.288   6.679
 7014WAT     H221285   4.837   5.444   6.685
 7015WAT      O21286   0.976   0.802   4.038
 7015WAT     H121287   0.909   0.810   3.964
 7015WAT     H221288   1.004   0.706   4.047
 7016WAT      O21289   0.569   6.147   2.584
 7016WAT     H121290   0.483   6.162   2.535
 7016WAT     H221291   0.583   6.049   2.597
 7017WAT      O21292   9.572   3.965   7.469
 7017WAT     H121293   9.608   3.940   7.559
 7017WAT     H221294   9.473   3.951   7.467
 7018WAT      O21295   4.782   2.736   1.088
 7018WAT     H121296   4.853   2.796   1.052
 7018WAT     H221297   4.804   2.641   1.066
 7019WAT      O21298   3.054   5.405   8.231
 7019WAT     H121299   3.088   5.463   8.305
 7019WAT     H221300   3.015   5.462   8.159
 7020WAT      O21301   0.977   7.698   9.117
 7020WAT     H121302   0.930   7.665   9.034
 7020WAT     H221303   1.062   7.745   9.090
 7021WAT      O21304   4.289   2.793   2.617
 7021WAT     H121305   4.232   2.826   2.692
 7021WAT     H221306   4.264   2.840   2.532
 7022WAT      O21307   4.097   3.106   7.849
 7022WAT     H121308   4.039   3.050   7.789
 7022WAT     H221309   4.093   3.069   7.942
 7023WAT      O21310   6.513   0.533   5.712
 7023WAT     H121311   6.482   0.458   5.652
 7023WAT     H221312   6.611   0.546   5.701
 7024WAT      O21313   1.929   2.751   4.708
 7024WAT     H121314   1.837   2.723   4.735
 7024WAT     H221315   1.953   2.837   4.752
 7025WAT      O21316   2.705   1.603   8.863
 7025WAT     H121317   2.799   1.616   8.832
 7025WAT     H221318   2.647   1.579   8.784
 7026WAT      O21319   9.146   0.802   1.633
 7026WAT     H121320   9.189   0.715   1.656
 7026WAT     H221321   9.137   0.810   1.533
 7027WAT      O21322   5.320   1.074   9.294
 7027WAT     H121323   5.261   1.148   9.326
 7027WAT     H221324   5.264   0.999   9.258
 7028WAT      O21325   2.975   1.343   1.191
 7028WAT     H121326   2.908   1.276   1.225
 7028WAT     H221327   2.933   1.433   1.191
 7029WAT      O21328   5.944   2.186   0.531
 7029WAT     H121329   5.970   2.253   0.462
 7029WAT     H221330   5.955   2.226   0.622
 7030WAT      O21331   1.486   3.781   3.310
 7030WAT     H121332   1.424   3.708   3.281
 7030WAT     H221333   1.577   3.765   3.271
 7031WAT      O21334   9.534   7.562   2.281
 7031WAT     H121335   9.552   7.551   2.184
 7031WAT     H221336   9.565   7.480   2.330
 7032WAT      O21337   1.990   6.193   5.395
 7032WAT     H121338   1.960   6.287   5.377
 7032WAT     H221339   1.963   6.166   5.487
 7033WAT      O21340   1.109   4.407   4.108
 7033WAT     H121341   1.162   4.322   4.101
 7033WAT     H221342   1.167   4.479   4.147
 7034WAT      O21343   2.697   2.211   5.330
 7034WAT     H121344   2.611   2.162   5.340
 7034WAT     H221345   2.690   2.277   5.255
 7035WAT      O21346   6.501   9.223   0.311
 7035WAT     H121347   6.543   9.311   0.290
 7035WAT     H221348   6.441   9.232   0.390
 7036WAT      O21349   6.455   8.736   4.310
 7036WAT     H121350   6.494   8.828   4.313
 7036WAT     H221351   6.445   8.702   4.404
 7037WAT      O21352   9.009   4.927   2.014
 7037WAT     H121353   8.911   4.942   1.996
 7037WAT     H221354   9.054   4.899   1.929
 7038WAT      O21355   3.851   8.779   9.781
 7038WAT     H121356   3.837   8.749   9.875
 7038WAT     H221357   3.938   8.743   9.746
 7039WAT      O21358   2.502   1.714   6.494
 7039WAT     H121359   2.463   1.622   6.491
 7039WAT     H221360   2.492   1.758   6.404
 7040WAT      O21361   2.622   2.616   6.035
 7040WAT     H121362   2.560   2.575   5.969
 7040WAT     H221363   2.693   2.668   5.987
 7041WAT      O21364   3.971   0.798   5.461
 7041WAT     H121365   3.915   0.770   5.383
 7041WAT     H221366   4.065   0.765   5.447
 7042WAT      O21367   4.169   6.811   8.792
 7042WAT     H121368   4.204   6.728   8.835
 7042WAT     H221369   4.097   6.787   8.727
 7043WAT      O21370   6.559   2.134   9.057
 7043WAT     H121371   6.651   2.133   9.019
 7043WAT     H221372   6.492   2.116   8.984
 7044WAT      O21373   4.440   6.694   6.248
 7044WAT     H121374   4.490   6.640   6.180
 7044WAT     H221375   4.503   6.735   6.312
 7045WAT      O21376   7.900   5.441   1.467
 7045WAT     H121377   7.807   5.406   1.456
 7045WAT     H221378   7.954   5.420   1.385
 7046WAT      O21379   0.810   6.998   1.737
 7046WAT     H121380   0.747   7.055   1.790
 7046WAT     H221381   0.900   7.042   1.732
 7047WAT      O21382   9.518   1.244   7.226
 7047WAT     H121383   9.550   1.152   7.202
 7047WAT     H221384   9.426   1.238   7.266
 7048WAT      O21385   1.040   7.229   1.251
 7048WAT     H121386   1.097   7.182   1.183
 7048WAT     H221387   1.091   7.238   1.337
 7049WAT      O21388   3.868   9.140   4.516
 7049WAT     H121389   3.878   9.060   4.456
 7049WAT     H221390   3.882   9.223   4.463
 7050WAT      O21391   0.372   0.914   5.250
 7050WAT     H121392   0.427   0.968   5.186
 7050WAT     H221393   0.281   0.900   5.213
 7051WAT      O21394   4.605   0.029   2.931
 7051WAT     H121395   4.645  -0.061   2.948
 7051WAT     H221396   4.517   0.036   2.978
 7052WAT      O21397   3.109   2.120   8.016
 7052WAT     H121398   3.201   2.130   8.055
 7052WAT     H221399   3.116   2.087   7.922
 7053WAT      O21400   7.143   5.119   6.393
 7053WAT     H121401   7.069   5.063   6.356
 7053WAT     H221402   7.228   5.066   6.394
 7054WAT      O21403   7.905   0.198   1.868
 7054WAT     H121404   7.957   0.276   1.900
 7054WAT     H221405   7.950   0.113   1.898
 7055WAT      O21406   4.667   4.477   2.739
 7055WAT     H121407   4.718   4.554   2.777
 7055WAT     H221408   4.606   4.510   2.667
 7056WAT      O21409   6.891   6.195   1.924
 7056WAT     H121410   6.985   6.161   1.916
 7056WAT     H221411   6.870   6.213   2.021
 7057WAT      O21412   4.394   8.701   2.217
 7057WAT     H121413   4.351   8.679   2.305
 7057WAT     H221414   4.329   8.687   2.143
 7058WAT      O21415   7.210   8.335   2.878
 7058WAT     H121416   7.245   8.288   2.960
 7058WAT     H221417   7.211   8.434   2.893
 7059WAT      O21418   3.466   7.236   8.474
 7059WAT     H121419   3.376   7.192   8.472
 7059WAT     H221420   3.532   7.173   8.514
 7060WAT      O21421   2.931   7.910   6.784
 7060WAT     H121422   2.982   7.889   6.700
 7060WAT     H221423   2.930   7.830   6.843
 7061WAT      O21424   9.670   2.701   7.336
 7061WAT     H121425   9.601   2.663   7.397
 7061WAT     H221426   9.640   2.790   7.302
 7062WAT      O21427   0.547   5.421   3.207
 7062WAT     H121428   0.645   5.404   3.222
 7062WAT     H221429   0.527   5.416   3.109
 7063WAT      O21430   5.658   4.283   3.880
 7063WAT     H121431   5.658   4.362   3.818
 7063WAT     H221432   5.694   4.311   3.969
 7064WAT      O21433   5.627   3.858   7.812
 7064WAT     H121434   5.721   3.826   7.822
 7064WAT     H221435   5.619   3.912   7.728
 7065WAT      O21436   8.020   2.564   3.908
 7065WAT     H121437   8.052   2.529   3.820
 7065WAT     H221438   7.931   2.522   3.930
 7066WAT      O21439   5.820   1.801   9.253
 7066WAT     H121440   5.746   1.847   9.204
 7066WAT     H221441   5.800   1.801   9.351
 7067WAT      O21442   7.226   3.299   2.165
 7067WAT     H121443   7.266   3.299   2.257
 7067WAT     H221444   7.284   3.353   2.104
 7068WAT      O21445   4.545   7.630   9.129
 7068WAT     H121446   4.471   7.671   9.181
 7068WAT     H221447   4.525   7.533   9.112
 7069WAT      O21448   5.991   5.737   7.224
 7069WAT     H121449   5.966   5.721   7.320
 7069WAT     H221450   5.910   5.728   7.167
 7070WAT      O21451   4.568   6.640   6.024
 7070WAT     H121452   4.629   6.573   5.981
 7070WAT     H221453   4.612   6.730   6.025
 7071WAT      O21454   3.074   5.542   2.022
 7071WAT     H121455   2.990   5.506   1.979
 7071WAT     H221456   3.060   5.548   2.121
 7072WAT      O21457   9.582   5.809   5.881
 7072WAT     H121458   9.520   5.731   5.866
 7072WAT     H221459   9.667   5.793   5.831
 7073WAT      O21460   4.688   1.735   6.053
 7073WAT     H121461   4.612   1.801   6.056
 7073WAT     H221462   4.731   1.730   6.144
 7074WAT      O21463   0.636   8.462   8.028
 7074WAT     H121464   0.703   8.389   8.042
 7074WAT     H221465   0.583   8.475   8.112
 7075WAT      O21466   6.810   2.976   4.635
 7075WAT     H121467   6.827   2.883   4.600
 7075WAT     H221468   6.741   3.021   4.579
 7076WAT      O21469   9.751   9.346   6.341
 7076WAT     H121470   9.778   9.250   6.342
 7076WAT     H221471   9.830   9.403   6.363
 7077WAT      O21472   5.611   7.174   0.906
 7077WAT     H121473   5.640   7.089   0.951
 7077WAT     H221474   5.512   7.184   0.915
 7078WAT      O21475   4.473   1.190   1.442
 7078WAT     H121476   4.381   1.152   1.427
 7078WAT     H221477   4.510   1.221   1.355
 7079WAT      O21478   0.302   5.076   0.650
 7079WAT     H121479   0.353   4.997   0.616
 7079WAT     H221480   0.230   5.046   0.712
 7080WAT      O21481   5.391   0.894   9.694
 7080WAT     H121482   5.293   0.911   9.683
 7080WAT     H221483   5.415   0.897   9.791
 7081WAT      O21484   3.769   9.421   7.095
 7081WAT     H121485   3.723   9.499   7.138
 7081WAT     H221486   3.818   9.453   7.014
 7082WAT      O21487   9.223   2.539   7.742
 7082WAT     H121488   9.179   2.565   7.828
 7082WAT     H221489   9.318   2.571   7.742
 7083WAT      O21490   0.248   4.422   5.911
 7083WAT     H121491   0.306   4.341   5.916
 7083WAT     H221492   0.289   4.489   5.848
 7084WAT      O21493   6.878   5.012   5.662
 7084WAT     H121494   6.842   4.918   5.660
 7084WAT     H221495   6.977   5.009   5.680
 7085WAT      O21496   4.270   8.857   3.503
 7085WAT     H121497   4.289   8.889   3.411
 7085WAT     H221498   4.183   8.808   3.504
 7086WAT      O21499   1.670   1.386   5.700
 7086WAT     H121500   1.763   1.394   5.665
 7086WAT     H221501   1.612   1.457   5.659
 7087WAT      O21502   3.367   0.226   3.732
 7087WAT     H121503   3.372   0.138   3.685
 7087WAT     H221504   3.354   0.210   3.830
 7088WAT      O21505   3.663   7.286   3.597
 7088WAT     H121506   3.712   7.303   3.682
 7088WAT     H221507   3.577   7.339   3.597
 7089WAT      O21508   3.102   2.723   1.761
 7089WAT     H121509   3.018   2.774   1.782
 7089WAT     H221510   3.157   2.713   1.844
 7090WAT      O21511   4.878   3.520   5.380
 7090WAT     H121512   4.784   3.488   5.391
 7090WAT     H221513   4.935   3.482   5.453
 7091WAT      O21514   3.532   5.618   5.449
 7091WAT     H121515   3.460   5.679   5.416
 7091WAT     H221516   3.520   5.602   5.547
 7092WAT      O21517   5.059   3.676   8.650
 7092WAT     H121518   5.027   3.594   8.603
 7092WAT     H221519   5.102   3.739   8.584
 7093WAT      O21520   2.690   8.320   3.713
 7093WAT     H121521   2.754   8.273   3.774
 7093WAT     H221522   2.740   8.365   3.640
 7094WAT      O21523   1.923   9.108   4.921
 7094WAT     H121524   1.963   9.038   4.981
 7094WAT     H221525   1.830   9.083   4.897
 7095WAT      O21526   3.305   3.117   3.296
 7095WAT     H121527   3.242   3.192   3.273
 7095WAT     H221528   3.352   3.139   3.382
 7096WAT      O21529   2.852   6.374   4.984
 7096WAT     H121530   2.925   6.305   4.980
 7096WAT     H221531   2.827   6.391   5.079
 7097WAT      O21532   4.031   2.183   9.071
 7097WAT     H121533   4.007   2.256   9.006
 7097WAT     H221534   3.965   2.183   9.146
 7098WAT      O21535   6.200   5.745   2.008
 7098WAT     H121536   6.228   5.804   1.932
 7098WAT     H221537   6.270   5.748   2.080
 7099WAT      O21538   3.397   8.555   2.457
 7099WAT     H121539   3.368   8.641   2.499
 7099WAT     H221540   3.366   8.478   2.514
 7100WAT      O21541   2.920   6.512   0.939
 7100WAT     H121542   2.989   6.581   0.960
 7100WAT     H221543   2.832   6.557   0.923
 7101WAT      O21544   1.679   0.988   6.878
 7101WAT     H121545   1.649   0.974   6.784
 7101WAT     H221546   1.600   0.987   6.940
 7102WAT      O21547   4.470   9.770   8.435
 7102WAT     H121548   4.420   9.851   8.406
 7102WAT     H221549   4.488   9.712   8.356
 7103WAT      O21550   0.761   9.682   9.873
 7103WAT     H121551   0.788   9.765   9.825
 7103WAT     H221552   0.733   9.612   9.807
 7104WAT      O21553   5.380   7.665   9.305
 7104WAT     H121554   5.412   7.679   9.398
 7104WAT     H221555   5.280   7.658   9.305
 7105WAT      O21556   3.864   3.473   0.289
 7105WAT     H121557   3.928   3.437   0.356
 7105WAT     H221558   3.786   3.515   0.335
 7106WAT      O21559   6.497   1.965   4.948
 7106WAT     H121560   6.465   1.871   4.934
 7106WAT     H221561   6.563   1.988   4.876
 7107WAT      O21562   8.139   4.845   4.116
 7107WAT     H121563   8.187   4.888   4.191
 7107WAT     H221564   8.204   4.819   4.045
 7108WAT      O21565   0.260   8.341   9.440
 7108WAT     H121566   0.191   8.284   9.484
 7108WAT     H221567   0.253   8.434   9.476
 7109WAT      O21568   9.720   9.621   5.195
 7109WAT     H121569   9.784   9.595   5.268
 7109WAT     H221570   9.761   9.693   5.139
 7110WAT      O21571   6.602   8.219   1.344
 7110WAT     H121572   6.575   8.188   1.253
 7110WAT     H221573   6.695   8.188   1.364
 7111WAT      O21574   4.897   0.715   3.883
 7111WAT     H121575   4.968   0.781   3.905
 7111WAT     H221576   4.865   0.670   3.966
 7112WAT      O21577   3.429   2.761   0.812
 7112WAT     H121578   3.358   2.719   0.868
 7112WAT     H221579   3.464   2.694   0.746
 7113WAT      O21580   6.368   8.401   5.890
 7113WAT     H121581   6.455   8.380   5.934
 7113WAT     H221582   6.330   8.484   5.931
 7114WAT      O21583   3.699   1.148   7.720
 7114WAT     H121584   3.600   1.164   7.723
 7114WAT     H221585   3.743   1.205   7.790
 7115WAT      O21586   9.528   0.692   2.982
 7115WAT     H121587   9.551   0.601   3.019
 7115WAT     H221588   9.608   0.730   2.935
 7116WAT      O21589   3.307   1.572   3.024
 7116WAT     H121590   3.277   1.521   3.104
 7116WAT     H221591   3.336   1.664   3.052
 7117WAT      O21592   6.029   2.525   6.459
 7117WAT     H121593   6.115   2.488   6.495
 7117WAT     H221594   6.047   2.610   6.410
 7118WAT      O21595   7.933   2.276   8.701
 7118WAT     H121596   8.019   2.252   8.747
 7118WAT     H221597   7.927   2.228   8.614
 7119WAT      O21598   0.856   8.262   1.427
 7119WAT     H121599   0.798   8.292   1.503
 7119WAT     H221600   0.836   8.316   1.346
 7120WAT      O21601   4.642   1.129   7.580
 7120WAT     H121602   4.555   1.104   7.623
 7120WAT     H221603   4.645   1.091   7.488
 7121WAT      O21604   3.853   3.665   5.802
 7121WAT     H121605   3.914   3.623   5.870
 7121WAT     H221606   3.759   3.635   5.819
 7122WAT      O21607   0.915   3.237   0.464
 7122WAT     H121608   0.957   3.257   0.375
 7122WAT     H221609   0.979   3.257   0.537
 7123WAT      O21610   2.341   8.401   0.684
 7123WAT     H121611   2.412   8.376   0.750
 7123WAT     H221612   2.380   8.403   0.592
 7124WAT      O21613   9.418   5.692   1.938
 7124WAT     H121614   9.485   5.653   1.875
 7124WAT     H221615   9.329   5.649   1.924
 7125WAT      O21616   1.609   7.249   9.324
 7125WAT     H121617   1.650   7.339   9.311
 7125WAT     H221618   1.680   7.181   9.340
 7126WAT      O21619   4.194   9.485   0.683
 7126WAT     H121620   4.210   9.575   0.642
 7126WAT     H221621   4.114   9.443   0.641
 7127WAT      O21622   3.983   6.950   5.978
 7127WAT     H121623   3.905   6.924   5.923
 7127WAT     H221624   3.954   6.965   6.073
 7128WAT      O21625   8.948   3.991   1.548
 7128WAT     H121626   8.885   4.068   1.538
 7128WAT     H221627   9.014   3.991   1.474
 7129WAT      O21628   2.559   0.175   6.750
 7129WAT     H121629   2.646   0.156   6.703
 7129WAT     H221630   2.578   0.196   6.847
 7130WAT      O21631   6.546   9.452   1.234
 7130WAT     H121632   6.446   9.451   1.239
 7130WAT     H221633   6.575   9.440   1.139
 7131WAT      O21634   9.328   6.971   0.936
 7131WAT     H121635   9.243   7.023   0.947
 7131WAT     H221636   9.317   6.904   0.863
 7132WAT      O21637   9.406   3.402   0.545
 7132WAT     H121638   9.401   3.332   0.616
 7132WAT     H221639   9.391   3.359   0.456
 7133WAT      O21640   4.487   6.753   0.092
 7133WAT     H121641   4.571   6.708   0.062
 7133WAT     H221642   4.510   6.833   0.148
 7134WAT      O21643   5.765   2.416   8.135
 7134WAT     H121644   5.841   2.399   8.198
 7134WAT     H221645   5.784   2.497   8.080
 7135WAT      O21646   1.346   5.190   1.653
 7135WAT     H121647   1.420   5.247   1.688
 7135WAT     H221648   1.382   5.129   1.582
 7136WAT      O21649   4.103   7.806   9.340
 7136WAT     H121650   4.065   7.854   9.261
 7136WAT     H221651   4.056   7.837   9.423
 7137WAT      O21652   3.027   0.845   0.911
 7137WAT     H121653   3.006   0.893   0.825
 7137WAT     H221654   3.112   0.882   0.950
 7138WAT      O21655   5.913   0.877   2.960
 7138WAT     H121656   5.898   0.878   2.861
 7138WAT     H221657   5.917   0.783   2.993
 7139WAT      O21658   1.641   2.609   4.700
 7139WAT     H121659   1.567   2.574   4.642
 7139WAT     H221660   1.641   2.558   4.787
 7140WAT      O21661   8.825   4.847   1.726
 7140WAT     H121662   8.798   4.862   1.821
 7140WAT     H221663   8.842   4.935   1.681
 7141WAT      O21664   5.498   5.011   3.828
 7141WAT     H121665   5.467   4.948   3.757
 7141WAT     H221666   5.597   5.024   3.821
 7142WAT      O21667   5.370   8.659   6.785
 7142WAT     H121668   5.462   8.665   6.746
 7142WAT     H221669   5.359   8.572   6.834
 7143WAT      O21670   5.027   8.466   9.655
 7143WAT     H121671   4.967   8.463   9.575
 7143WAT     H221672   4.971   8.472   9.738
 7144WAT      O21673   2.227   1.292   3.851
 7144WAT     H121674   2.207   1.366   3.915
 7144WAT     H221675   2.326   1.278   3.847
 7145WAT      O21676   7.450   2.432   6.354
 7145WAT     H121677   7.517   2.378   6.403
 7145WAT     H221678   7.486   2.456   6.263
 7146WAT      O21679   4.203   1.632   6.256
 7146WAT     H121680   4.126   1.568   6.253
 7146WAT     H221681   4.289   1.581   6.258
 7147WAT      O21682   5.299   1.615   7.404
 7147WAT     H121683   5.247   1.552   7.346
 7147WAT     H221684   5.359   1.671   7.347
 7148WAT      O21685   7.591   9.540   1.755
 7148WAT     H121686   7.538   9.462   1.788
 7148WAT     H221687   7.627   9.521   1.664
 7149WAT      O21688   2.062   7.209   0.312
 7149WAT     H121689   2.129   7.196   0.240
 7149WAT     H221690   2.056   7.126   0.368
 7150WAT      O21691   2.976   5.185   3.593
 7150WAT     H121692   2.885   5.164   3.630
 7150WAT     H221693   2.995   5.125   3.515
 7151WAT      O21694   4.221   3.583   7.682
 7151WAT     H121695   4.285   3.637   7.737
 7151WAT     H221696   4.217   3.489   7.718
 7152WAT      O21697   4.003   1.933   7.997
 7152WAT     H121698   3.949   1.900   7.920
 7152WAT     H221699   3.942   1.980   8.062
 7153WAT      O21700   7.326   7.836   5.004
 7153WAT     H121701   7.364   7.891   5.079
 7153WAT     H221702   7.388   7.760   4.984
 7154WAT      O21703   1.127   3.667   3.008
 7154WAT     H121704   1.124   3.760   3.044
 7154WAT     H221705   1.109   3.669   2.910
 7155WAT      O21706   2.889   4.089   3.261
 7155WAT     H121707   2.864   4.181   3.232
 7155WAT     H221708   2.980   4.090   3.303
 7156WAT      O21709   6.017   0.920   4.506
 7156WAT     H121710   6.019   0.925   4.605
 7156WAT     H221711   5.994   1.010   4.469
 7157WAT      O21712   4.415   4.842   0.624
 7157WAT     H121713   4.403   4.906   0.548
 7157WAT     H221714   4.509   4.848   0.658
 7158WAT      O21715   4.143   3.453   3.747
 7158WAT     H121716   4.237   3.420   3.756
 7158WAT     H221717   4.136   3.514   3.668
 7159WAT      O21718   9.094   6.608   8.727
 7159WAT     H121719   9.165   6.674   8.706
 7159WAT     H221720   9.017   6.654   8.772
 7160WAT      O21721   0.841   8.470   1.910
 7160WAT     H121722   0.901   8.496   1.985
 7160WAT     H221723   0.746   8.478   1.939
 7161WAT      O21724   6.085   9.701   0.444
 7161WAT     H121725   6.085   9.607   0.411
 7161WAT     H221726   6.134   9.759   0.379
 7162WAT      O21727   5.777   0.867   3.199
 7162WAT     H121728   5.807   0.896   3.108
 7162WAT     H221729   5.822   0.780   3.223
 7163WAT      O21730   2.647   2.340   9.207
 7163WAT     H121731   2.679   2.338   9.113
 7163WAT     H221732   2.556   2.383   9.211
 7164WAT      O21733   8.542   6.344   8.328
 7164WAT     H121734   8.504   6.414   8.388
 7164WAT     H221735   8.467   6.295   8.283
 7165WAT      O21736   1.206   3.880   2.318
 7165WAT     H121737   1.179   3.913   2.227
 7165WAT     H221738   1.291   3.827   2.310
 7166WAT      O21739   7.237   3.231   1.412
 7166WAT     H121740   7.269   3.143   1.378
 7166WAT     H221741   7.303   3.268   1.478
 7167WAT      O21742   9.383   7.798   5.410
 7167WAT     H121743   9.305   7.765   5.356
 7167WAT     H221744   9.466   7.794   5.355
 7168WAT      O21745   8.643   4.508   8.966
 7168WAT     H121746   8.655   4.588   9.024
 7168WAT     H221747   8.696   4.432   9.003
 7169WAT      O21748   5.827   9.769   6.785
 7169WAT     H121749   5.836   9.724   6.874
 7169WAT     H221750   5.910   9.821   6.766
 7170WAT      O21751   2.837   0.368   3.597
 7170WAT     H121752   2.781   0.383   3.516
 7170WAT     H221753   2.892   0.285   3.584
 7171WAT      O21754   7.379   7.583   9.714
 7171WAT     H121755   7.379   7.484   9.727
 7171WAT     H221756   7.323   7.605   9.634
 7172WAT      O21757   4.720   0.930   9.336
 7172WAT     H121758   4.815   0.958   9.323
 7172WAT     H221759   4.660   0.991   9.283
 7173WAT      O21760   8.475   3.423   7.943
 7173WAT     H121761   8.553   3.407   8.003
 7173WAT     H221762   8.481   3.362   7.864
 7174WAT      O21763   4.477   6.546   9.360
 7174WAT     H121764   4.533   6.482   9.308
 7174WAT     H221765   4.459   6.627   9.303
 7175WAT      O21766   1.025   8.296   7.506
 7175WAT     H121767   0.963   8.218   7.501
 7175WAT     H221768   1.002   8.351   7.587
 7176WAT      O21769   2.608   5.561   9.183
 7176WAT     H121770   2.608   5.577   9.282
 7176WAT     H221771   2.698   5.586   9.145
 7177WAT      O21772   4.798   1.436   0.300
 7177WAT     H121773   4.779   1.533   0.288
 7177WAT     H221774   4.807   1.392   0.210
 7178WAT      O21775   3.892   2.571   4.744
 7178WAT     H121776   3.987   2.600   4.739
 7178WAT     H221777   3.842   2.606   4.664
 7179WAT      O21778   1.119   8.281   0.326
 7179WAT     H121779   1.029   8.313   0.296
 7179WAT     H221780   1.139   8.319   0.416
 7180WAT      O21781   9.458   2.205   8.495
 7180WAT     H121782   9.492   2.120   8.455
 7180WAT     H221783   9.459   2.198   8.595
 7181WAT      O21784   0.869   6.202   0.889
 7181WAT     H121785   0.878   6.280   0.827
 7181WAT     H221786   0.911   6.225   0.977
 7182WAT      O21787   9.046   9.443   0.687
 7182WAT     H121788   9.078   9.431   0.781
 7182WAT     H221789   9.094   9.520   0.644
 7183WAT      O21790   2.679   7.988   5.796
 7183WAT     H121791   2.718   8.030   5.714
 7183WAT     H221792   2.580   8.001   5.795
 7184WAT      O21793   8.554   0.644   3.545
 7184WAT     H121794   8.622   0.587   3.498
 7184WAT     H221795   8.467   0.639   3.496
 7185WAT      O21796   2.750   3.155   2.421
 7185WAT     H121797   2.653   3.158   2.396
 7185WAT     H221798   2.758   3.149   2.521
 7186WAT      O21799   1.643   0.729   0.258
 7186WAT     H121800   1.548   0.761   0.248
 7186WAT     H221801   1.697   0.764   0.181
 7187WAT      O21802   6.852   5.703   5.079
 7187WAT     H121803   6.877   5.609   5.103
 7187WAT     H221804   6.803   5.704   4.992
 7188WAT      O21805   0.750   9.146   3.401
 7188WAT     H121806   0.829   9.206   3.397
 7188WAT     H221807   0.772   9.065   3.455
 7189WAT      O21808   8.957   4.898   8.356
 7189WAT     H121809   8.897   4.956   8.410
 7189WAT     H221810   8.903   4.852   8.284
 7190WAT      O21811   6.533   1.294   7.689
 7190WAT     H121812   6.593   1.254   7.619
 7190WAT     H221813   6.504   1.222   7.752
 7191WAT      O21814   1.353   6.266   4.462
 7191WAT     H121815   1.414   6.262   4.383
 7191WAT     H221816   1.396   6.218   4.539
 7192WAT      O21817   0.010   0.905   1.160
 7192WAT     H121818  -0.027   0.998   1.169
 7192WAT     H221819  -0.002   0.856   1.247
 7193WAT      O21820   4.352   1.653   7.045
 7193WAT     H121821   4.366   1.742   7.001
 7193WAT     H221822   4.326   1.666   7.140
 7194WAT      O21823   3.762   4.207   5.874
 7194WAT     H121824   3.793   4.225   5.780
 7194WAT     H221825   3.688   4.139   5.872
 7195WAT      O21826   2.345   7.526   2.096
 7195WAT     H121827   2.313   7.436   2.125
 7195WAT     H221828   2.371   7.522   1.999
 7196WAT      O21829   6.499   1.874   2.912
 7196WAT     H121830   6.416   1.911   2.870
 7196WAT     H221831   6.475   1.801   2.976
 7197WAT      O21832   9.728   8.927   6.380
 7197WAT     H121833   9.781   9.009   6.361
 7197WAT     H221834   9.789   8.848   6.387
 7198WAT      O21835   9.242   2.877   7.224
 7198WAT     H121836   9.228   2.790   7.177
 7198WAT     H221837   9.221   2.866   7.321
 7199WAT      O21838   4.715   0.120   9.361
 7199WAT     H121839   4.814   0.130   9.348
 7199WAT     H221840   4.690   0.024   9.349
 7200WAT      O21841   8.243   0.957   7.522
 7200WAT     H121842   8.328   0.992   7.562
 7200WAT     H221843   8.176   0.940   7.594
 7201WAT      O21844   9.601   7.869   1.138
 7201WAT     H121845   9.698   7.850   1.156
 7201WAT     H221846   9.545   7.816   1.201
 7202WAT      O21847   0.688   8.873   1.013
 7202WAT     H121848   0.786   8.888   1.024
 7202WAT     H221849   0.669   8.774   1.013
 7203WAT      O21850   3.631   1.343   9.233
 7203WAT     H121851   3.635   1.249   9.197
 7203WAT     H221852   3.700   1.399   9.189
 7204WAT      O21853   1.193   2.574   2.401
 7204WAT     H121854   1.290   2.594   2.418
 7204WAT     H221855   1.153   2.533   2.483
 7205WAT      O21856   0.825   4.599   5.573
 7205WAT     H121857   0.837   4.559   5.481
 7205WAT     H221858   0.730   4.590   5.601
 7206WAT      O21859   4.060   0.743   0.399
 7206WAT     H121860   4.058   0.834   0.441
 7206WAT     H221861   3.967   0.716   0.375
 7207WAT      O21862   3.744   5.456   2.165
 7207WAT     H121863   3.655   5.410   2.164
 7207WAT     H221864   3.796   5.428   2.084
 7208WAT      O21865   7.211   3.608   4.145
 7208WAT     H121866   7.120   3.568   4.147
 7208WAT     H221867   7.274   3.547   4.097
 7209WAT      O21868   4.628   0.606   0.382
 7209WAT     H121869   4.666   0.697   0.369
 7209WAT     H221870   4.554   0.610   0.450
 7210WAT      O21871   7.841   7.756   9.215
 7210WAT     H121872   7.753   7.757   9.263
 7210WAT     H221873   7.851   7.840   9.162
 7211WAT      O21874   5.644   3.645   8.010
 7211WAT     H121875   5.556   3.598   8.009
 7211WAT     H221876   5.644   3.718   7.941
 7212WAT      O21877   8.732   0.728   7.282
 7212WAT     H121878   8.669   0.784   7.336
 7212WAT     H221879   8.745   0.640   7.328
 7213WAT      O21880   1.340   9.811   0.678
 7213WAT     H121881   1.382   9.899   0.654
 7213WAT     H221882   1.256   9.798   0.626
 7214WAT      O21883   3.025   7.173   3.301
 7214WAT     H121884   2.947   7.212   3.253
 7214WAT     H221885   3.004   7.078   3.326
 7215WAT      O21886   4.099   7.645   7.119
 7215WAT     H121887   4.041   7.568   7.092
 7215WAT     H221888   4.100   7.652   7.219
 7216WAT      O21889   5.936   1.009   4.851
 7216WAT     H121890   6.008   0.949   4.817
 7216WAT     H221891   5.973   1.069   4.923
 7217WAT      O21892   7.189   2.220   8.640
 7217WAT     H121893   7.157   2.173   8.557
 7217WAT     H221894   7.146   2.309   8.646
 7218WAT      O21895   7.924   0.865   4.851
 7218WAT     H121896   7.850   0.923   4.886
 7218WAT     H221897   7.988   0.921   4.798
 7219WAT      O21898   6.806   3.287   3.579
 7219WAT     H121899   6.732   3.247   3.634
 7219WAT     H221900   6.779   3.377   3.547
 7220WAT      O21901   4.220   1.934   4.976
 7220WAT     H121902   4.259   2.015   4.933
 7220WAT     H221903   4.283   1.900   5.047
 7221WAT      O21904   7.078   8.642   0.276
 7221WAT     H121905   7.035   8.573   0.218
 7221WAT     H221906   7.155   8.683   0.228
 7222WAT      O21907   0.892   7.908   4.705
 7222WAT     H121908   0.898   7.899   4.606
 7222WAT     H221909   0.807   7.866   4.737
 7223WAT      O21910   8.738   4.826   4.834
 7223WAT     H121911   8.794   4.901   4.799
 7223WAT     H221912   8.785   4.739   4.818
 7224WAT      O21913   2.383   0.525   9.598
 7224WAT     H121914   2.439   0.600   9.634
 7224WAT     H221915   2.399   0.442   9.652
 7225WAT      O21916   8.265   7.214   0.814
 7225WAT     H121917   8.175   7.239   0.778
 7225WAT     H221918   8.327   7.192   0.739
 7226WAT      O21919   2.907   4.311   0.737
 7226WAT     H121920   2.852   4.298   0.655
 7226WAT     H221921   2.904   4.228   0.793
 7227WAT      O21922   1.602   6.018   5.576
 7227WAT     H121923   1.624   5.920   5.575
 7227WAT     H221924   1.510   6.031   5.615
 7228WAT      O21925   1.728   8.413   4.138
 7228WAT     H121926   1.669   8.427   4.218
 7228WAT     H221927   1.730   8.316   4.115
 7229WAT      O21928   9.066   3.880   6.176
 7229WAT     H121929   9.093   3.825   6.256
 7229WAT     H221930   9.042   3.972   6.207
 7230WAT      O21931   9.246   6.202   4.687
 7230WAT     H121932   9.255   6.301   4.676
 7230WAT     H221933   9.181   6.183   4.761
 7231WAT      O21934   5.347   0.866   6.146
 7231WAT     H121935   5.383   0.910   6.228
 7231WAT     H221936   5.268   0.810   6.170
 7232WAT      O21937   1.999   0.623   5.055
 7232WAT     H121938   1.979   0.532   5.091
 7232WAT     H221939   2.061   0.615   4.978
 7233WAT      O21940   3.966   0.020   8.012
 7233WAT     H121941   3.899  -0.053   7.995
 7233WAT     H221942   3.970   0.039   8.110
 7234WAT      O21943   8.279   7.886   7.959
 7234WAT     H121944   8.275   7.790   7.987
 7234WAT     H221945   8.373   7.911   7.936
 7235WAT      O21946   3.729   2.503   6.205
 7235WAT     H121947   3.753   2.433   6.273
 7235WAT     H221948   3.693   2.459   6.123
 7236WAT      O21949   6.326   5.318   8.161
 7236WAT     H121950   6.319   5.248   8.091
 7236WAT     H221951   6.272   5.398   8.134
 7237WAT      O21952   2.071   2.169   1.997
 7237WAT     H121953   2.169   2.182   2.015
 7237WAT     H221954   2.059   2.094   1.932
 7238WAT      O21955   7.088   8.298   9.222
 7238WAT     H121956   7.118   8.356   9.298
 7238WAT     H221957   7.167   8.258   9.176
 7239WAT      O21958   3.609   7.942   3.781
 7239WAT     H121959   3.681   7.910   3.843
 7239WAT     H221960   3.523   7.896   3.804
 7240WAT      O21961   8.533   2.800   2.793
 7240WAT     H121962   8.454   2.818   2.735
 7240WAT     H221963   8.542   2.702   2.808
 7241WAT      O21964   4.555   4.304   6.311
 7241WAT     H121965   4.619   4.314   6.386
 7241WAT     H221966   4.579   4.368   6.238
 7242WAT      O21967   2.536   6.841   8.507
 7242WAT     H121968   2.439   6.859   8.524
 7242WAT     H221969   2.589   6.871   8.586
 7243WAT      O21970   9.544   5.131   1.676
 7243WAT     H121971   9.584   5.111   1.587
 7243WAT     H221972   9.597   5.204   1.720
 7244WAT      O21973   8.241   3.450   5.336
 7244WAT     H121974   8.309   3.385   5.301
 7244WAT     H221975   8.216   3.514   5.263
 7245WAT      O21976   8.893   2.294   5.679
 7245WAT     H121977   8.980   2.247   5.695
 7245WAT     H221978   8.861   2.273   5.586
 7246WAT      O21979   0.172   4.085   5.941
 7246WAT     H121980   0.184   4.000   5.992
 7246WAT     H221981   0.262   4.119   5.911
 7247WAT      O21982   7.677   4.156   4.354
 7247WAT     H121983   7.770   4.145   4.389
 7247WAT     H221984   7.677   4.227   4.282
 7248WAT      O21985   7.505   5.731   3.183
 7248WAT     H121986   7.503   5.632   3.178
 7248WAT     H221987   7.548   5.768   3.100
 7249WAT      O21988   6.747   8.856   1.989
 7249WAT     H121989   6.847   8.860   1.984
 7249WAT     H221990   6.709   8.946   1.969
 7250WAT      O21991   4.023   6.806   5.725
 7250WAT     H121992   4.067   6.718   5.745
 7250WAT     H221993   4.089   6.880   5.738
 7251WAT      O21994   2.750   7.122   2.752
 7251WAT     H121995   2.802   7.077   2.825
 7251WAT     H221996   2.795   7.208   2.728
 7252WAT      O21997   6.926   0.210   4.102
 7252WAT     H121998   6.876   0.248   4.179
 7252WAT     H221999   6.865   0.151   4.048
 7253WAT      O22000   5.899   7.850   1.234
 7253WAT     H122001   5.922   7.891   1.323
 7253WAT     H222002   5.845   7.768   1.249
 7254WAT      O22003   4.422   1.057   9.513
 7254WAT     H122004   4.387   1.059   9.419
 7254WAT     H222005   4.441   0.963   9.540
 7255WAT      O22006   6.721   3.299   0.260
 7255WAT     H122007   6.720   3.278   0.357
 7255WAT     H222008   6.799   3.359   0.239
 7256WAT      O22009   9.689   8.859   7.174
 7256WAT     H122010   9.773   8.805   7.166
 7256WAT     H222011   9.711   8.948   7.213
 7257WAT      O22012   0.396   8.135   0.924
 7257WAT     H122013   0.407   8.222   0.973
 7257WAT     H222014   0.452   8.137   0.841
 7258WAT      O22015   9.735   8.536   4.342
 7258WAT     H122016   9.799   8.459   4.343
 7258WAT     H222017   9.649   8.509   4.386
 7259WAT      O22018   4.305   5.401   4.485
 7259WAT     H122019   4.369   5.339   4.532
 7259WAT     H222020   4.322   5.398   4.386
 7260WAT      O22021   6.059   1.991   8.243
 7260WAT     H122022   6.064   2.073   8.186
 7260WAT     H222023   6.133   1.928   8.217
 7261WAT      O22024   4.729   7.358   7.790
 7261WAT     H122025   4.676   7.374   7.707
 7261WAT     H222026   4.795   7.433   7.802
 7262WAT      O22027   8.096   9.387   8.619
 7262WAT     H122028   8.034   9.386   8.540
 7262WAT     H222029   8.055   9.338   8.695
 7263WAT      O22030   7.913   8.177   1.194
 7263WAT     H122031   7.937   8.146   1.286
 7263WAT     H222032   7.978   8.247   1.164
 7264WAT      O22033   2.487   8.156   7.079
 7264WAT     H122034   2.436   8.183   6.997
 7264WAT     H222035   2.580   8.191   7.073
 7265WAT      O22036   0.059   2.163   1.903
 7265WAT     H122037   0.044   2.260   1.920
 7265WAT     H222038  -0.029   2.114   1.908
 7266WAT      O22039   2.599   3.080   2.015
 7266WAT     H122040   2.673   3.130   2.059
 7266WAT     H222041   2.577   2.998   2.069
 7267WAT      O22042   0.509   6.295   0.616
 7267WAT     H122043   0.547   6.236   0.544
 7267WAT     H222044   0.563   6.379   0.622
 7268WAT      O22045   0.072   1.527   0.279
 7268WAT     H122046   0.006   1.571   0.218
 7268WAT     H222047   0.093   1.588   0.355
 7269WAT      O22048   7.036   9.576   8.598
 7269WAT     H122049   7.086   9.604   8.680
 7269WAT     H222050   6.952   9.630   8.589
 7270WAT      O22051   1.149   1.043   0.991
 7270WAT     H122052   1.136   1.140   1.013
 7270WAT     H222053   1.225   1.034   0.927
 7271WAT      O22054   0.160   5.214   3.848
 7271WAT     H122055   0.223   5.176   3.915
 7271WAT     H222056   0.205   5.286   3.796
 7272WAT      O22057   2.675   0.098   9.528
 7272WAT     H122058   2.702   0.037   9.603
 7272WAT     H222059   2.754   0.152   9.499
 7273WAT      O22060   6.076   1.835   1.890
 7273WAT     H122061   6.086   1.919   1.943
 7273WAT     H222062   5.978   1.813   1.881
 7274WAT      O22063   6.364   6.803   4.760
 7274WAT     H122064   6.333   6.894   4.786
 7274WAT     H222065   6.307   6.734   4.803
 7275WAT      O22066   5.660   5.869   8.633
 7275WAT     H122067   5.688   5.777   8.607
 7275WAT     H222068   5.718   5.902   8.708
 7276WAT      O22069   3.488   9.046   0.098
 7276WAT     H122070   3.438   9.104   0.163
 7276WAT     H222071   3.508   8.958   0.141
 7277WAT      O22072   6.586   9.675   6.719
 7277WAT     H122073   6.671   9.710   6.678
 7277WAT     H222074   6.547   9.604   6.661
 7278WAT      O22075   8.254   8.966   9.873
 7278WAT     H122076   8.192   9.030   9.918
 7278WAT     H222077   8.212   8.932   9.788
 7279WAT      O22078   5.030   1.615   0.662
 7279WAT     H122079   5.061   1.562   0.741
 7279WAT     H222080   5.109   1.657   0.618
 7280WAT      O22081   0.761   5.953   2.284
 7280WAT     H122082   0.731   5.872   2.336
 7280WAT     H222083   0.685   5.985   2.226
 7281WAT      O22084   4.648   5.935   6.129
 7281WAT     H122085   4.743   5.910   6.151
 7281WAT     H222086   4.609   5.866   6.069
 7282WAT      O22087   5.910   3.337   7.682
 7282WAT     H122088   5.991   3.395   7.685
 7282WAT     H222089   5.903   3.295   7.592
 7283WAT      O22090   7.870   4.952   8.791
 7283WAT     H122091   7.963   4.914   8.794
 7283WAT     H222092   7.804   4.877   8.798
 7284WAT      O22093   2.246   9.626   4.238
 7284WAT     H122094   2.147   9.642   4.240
 7284WAT     H222095   2.285   9.650   4.328
 7285WAT      O22096   4.384   8.917   1.694
 7285WAT     H122097   4.443   8.837   1.685
 7285WAT     H222098   4.356   8.927   1.790
 7286WAT      O22099   8.003   2.264   7.339
 7286WAT     H122100   7.904   2.263   7.322
 7286WAT     H222101   8.031   2.175   7.374
 7287WAT      O22102   7.782   5.460   0.745
 7287WAT     H122103   7.872   5.455   0.702
 7287WAT     H222104   7.725   5.385   0.712
 7288WAT      O22105   7.790   2.511   5.570
 7288WAT     H122106   7.864   2.473   5.515
 7288WAT     H222107   7.718   2.442   5.582
 7289WAT      O22108   5.653   8.619   0.628
 7289WAT     H122109   5.679   8.540   0.572
 7289WAT     H222110   5.579   8.669   0.583
 7290WAT      O22111   4.021   4.622   1.644
 7290WAT     H122112   4.069   4.655   1.725
 7290WAT     H222113   4.087   4.577   1.582
 7291WAT      O22114   5.191   8.298   2.697
 7291WAT     H122115   5.094   8.292   2.716
 7291WAT     H222116   5.213   8.240   2.618
 7292WAT      O22117   2.238   3.049   3.536
 7292WAT     H122118   2.171   2.985   3.498
 7292WAT     H222119   2.191   3.128   3.575
 7293WAT      O22120   8.917   0.721   0.612
 7293WAT     H122121   8.923   0.744   0.709
 7293WAT     H222122   8.921   0.804   0.557
 7294WAT      O22123   2.820   9.278   7.461
 7294WAT     H122124   2.775   9.367   7.452
 7294WAT     H222125   2.828   9.236   7.370
 7295WAT      O22126   6.783   7.477   8.258
 7295WAT     H122127   6.834   7.392   8.261
 7295WAT     H222128   6.714   7.472   8.186
 7296WAT      O22129   3.722   8.916   8.265
 7296WAT     H122130   3.818   8.895   8.253
 7296WAT     H222131   3.685   8.954   8.180
 7297WAT      O22132   6.619   3.162   7.082
 7297WAT     H122133   6.695   3.225   7.062
 7297WAT     H222134   6.649   3.095   7.150
 7298WAT      O22135   1.089   1.669   7.970
 7298WAT     H122136   0.990   1.673   7.962
 7298WAT     H222137   1.115   1.598   8.035
 7299WAT      O22138   0.009   4.877   3.079
 7299WAT     H122139   0.044   4.808   3.016
 7299WAT     H222140  -0.082   4.907   3.048
 7300WAT      O22141   6.821   2.038   4.361
 7300WAT     H122142   6.806   1.960   4.421
 7300WAT     H222143   6.801   2.012   4.267
 7301WAT      O22144   6.658   8.374   5.230
 7301WAT     H122145   6.681   8.302   5.165
 7301WAT     H222146   6.647   8.461   5.181
 7302WAT      O22147   5.607   8.531   6.629
 7302WAT     H122148   5.689   8.588   6.625
 7302WAT     H222149   5.569   8.520   6.537
 7303WAT      O22150   9.042   8.277   3.985
 7303WAT     H122151   8.947   8.306   3.986
 7303WAT     H222152   9.047   8.178   4.000
 7304WAT      O22153   8.222   4.610   9.887
 7304WAT     H122154   8.208   4.706   9.862
 7304WAT     H222155   8.214   4.552   9.806
 7305WAT      O22156   4.726   6.981   9.755
 7305WAT     H122157   4.638   7.016   9.786
 7305WAT     H222158   4.712   6.911   9.685
 7306WAT      O22159   0.683   8.468   0.724
 7306WAT     H122160   0.768   8.469   0.671
 7306WAT     H222161   0.693   8.527   0.804
 7307WAT      O22162   7.994   5.922   8.954
 7307WAT     H122163   7.949   5.908   8.866
 7307WAT     H222164   7.983   5.841   9.011
 7308WAT      O22165   3.350   3.638   7.482
 7308WAT     H122166   3.397   3.627   7.570
 7308WAT     H222167   3.275   3.703   7.492
 7309WAT      O22168   0.102   7.102   3.645
 7309WAT     H122169   0.019   7.062   3.685
 7309WAT     H222170   0.182   7.065   3.693
 7310WAT      O22171   2.300   1.124   1.389
 7310WAT     H122172   2.238   1.071   1.447
 7310WAT     H222173   2.252   1.203   1.352
 7311WAT      O22174   3.677   9.770   2.566
 7311WAT     H122175   3.634   9.828   2.635
 7311WAT     H222176   3.724   9.828   2.499
 7312WAT      O22177   3.788   0.169   2.694
 7312WAT     H122178   3.706   0.124   2.729
 7312WAT     H222179   3.766   0.218   2.609
 7313WAT      O22180   3.850   3.261   6.905
 7313WAT     H122181   3.787   3.186   6.924
 7313WAT     H222182   3.930   3.226   6.857
 7314WAT      O22183   0.480   5.840   7.813
 7314WAT     H122184   0.426   5.778   7.756
 7314WAT     H222185   0.571   5.800   7.827
 7315WAT      O22186   5.717   5.272   8.646
 7315WAT     H122187   5.687   5.333   8.573
 7315WAT     H222188   5.780   5.321   8.706
 7316WAT      O22189   2.543   0.518   1.699
 7316WAT     H122190   2.451   0.524   1.737
 7316WAT     H222191   2.538   0.531   1.600
 7317WAT      O22192   5.335   4.340   7.612
 7317WAT     H122193   5.292   4.300   7.531
 7317WAT     H222194   5.268   4.345   7.686
 7318WAT      O22195   3.909   3.295   6.434
 7318WAT     H122196   4.003   3.289   6.401
 7318WAT     H222197   3.874   3.202   6.449
 7319WAT      O22198   7.494   5.666   0.166
 7319WAT     H122199   7.427   5.638   0.098
 7319WAT     H222200   7.542   5.585   0.200
 7320WAT      O22201   0.608   7.168   8.285
 7320WAT     H122202   0.694   7.218   8.272
 7320WAT     H222203   0.612   7.116   8.370
 7321WAT      O22204   6.485   4.301   9.565
 7321WAT     H122205   6.553   4.238   9.602
 7321WAT     H222206   6.480   4.290   9.466
 7322WAT      O22207   4.089   2.025   8.850
 7322WAT     H122208   4.045   2.067   8.929
 7322WAT     H222209   4.113   1.931   8.871
 7323WAT      O22210   5.879   1.144   7.593
 7323WAT     H122211   5.967   1.190   7.577
 7323WAT     H222212   5.808   1.214   7.608
 7324WAT      O22213   2.057   5.946   6.777
 7324WAT     H122214   1.991   6.013   6.741
 7324WAT     H222215   2.137   5.993   6.814
 7325WAT      O22216   6.276   7.962   1.988
 7325WAT     H122217   6.256   7.963   2.085
 7325WAT     H222218   6.235   8.042   1.944
 7326WAT      O22219   1.910   1.174   5.936
 7326WAT     H122220   1.918   1.109   5.861
 7326WAT     H222221   1.815   1.201   5.948
 7327WAT      O22222   3.345   6.310   6.259
 7327WAT     H122223   3.260   6.339   6.302
 7327WAT     H222224   3.327   6.230   6.201
 7328WAT      O22225   7.171   7.121   7.095
 7328WAT     H122226   7.211   7.213   7.092
 7328WAT     H222227   7.218   7.067   7.165
 7329WAT      O22228   3.201   6.825   9.231
 7329WAT     H122229   3.110   6.861   9.212
 7329WAT     H222230   3.201   6.778   9.319
 7330WAT      O22231   9.812   5.636   9.728
 7330WAT     H122232   9.826   5.565   9.659
 7330WAT     H222233   9.886   5.631   9.795
 7331WAT      O22234   8.409   2.529   6.452
 7331WAT     H122235   8.388   2.474   6.371
 7331WAT     H222236   8.507   2.541   6.460
 7332WAT      O22237   4.271   3.719   7.475
 7332WAT     H122238   4.195   3.774   7.441
 7332WAT     H222239   4.249   3.685   7.567
 7333WAT      O22240   8.449   7.600   4.250
 7333WAT     H122241   8.353   7.584   4.271
 7333WAT     H222242   8.501   7.517   4.265
 7334WAT      O22243   1.818   7.717   6.813
 7334WAT     H122244   1.749   7.700   6.883
 7334WAT     H222245   1.774   7.728   6.724
 7335WAT      O22246   2.061   1.941   2.295
 7335WAT     H122247   1.976   1.896   2.323
 7335WAT     H222248   2.063   2.035   2.330
 7336WAT      O22249   7.269   8.708   7.362
 7336WAT     H122250   7.341   8.657   7.409
 7336WAT     H222251   7.282   8.806   7.376
 7337WAT      O22252   2.743   3.225   5.151
 7337WAT     H122253   2.782   3.233   5.059
 7337WAT     H222254   2.644   3.239   5.146
 7338WAT      O22255   4.038   6.564   5.850
 7338WAT     H122256   4.100   6.540   5.924
 7338WAT     H222257   3.998   6.481   5.811
 7339WAT      O22258   7.429   9.579   5.637
 7339WAT     H122259   7.450   9.652   5.571
 7339WAT     H222260   7.338   9.541   5.617
 7340WAT      O22261   3.820   6.680   6.213
 7340WAT     H122262   3.819   6.779   6.214
 7340WAT     H222263   3.806   6.645   6.305
 7341WAT      O22264   2.618   2.223   3.753
 7341WAT     H122265   2.549   2.184   3.814
 7341WAT     H222266   2.701   2.166   3.756
 7342WAT      O22267   0.632   5.342   5.724
 7342WAT     H122268   0.709   5.400   5.753
 7342WAT     H222269   0.662   5.282   5.650
 7343WAT      O22270   7.640   1.064   9.015
 7343WAT     H122271   7.556   1.012   9.031
 7343WAT     H222272   7.638   1.148   9.068
 7344WAT      O22273   2.069   3.144   0.331
 7344WAT     H122274   1.969   3.134   0.332
 7344WAT     H222275   2.093   3.240   0.317
 7345WAT      O22276   7.521   2.823   9.280
 7345WAT     H122277   7.527   2.782   9.371
 7345WAT     H222278   7.545   2.755   9.211
 7346WAT      O22279   8.629   6.119   2.007
 7346WAT     H122280   8.727   6.112   1.990
 7346WAT     H222281   8.591   6.194   1.953
 7347WAT      O22282   6.595   2.670   6.479
 7347WAT     H122283   6.524   2.737   6.456
 7347WAT     H222284   6.597   2.657   6.578
 7348WAT      O22285   3.880   8.866   3.843
 7348WAT     H122286   3.959   8.903   3.892
 7348WAT     H222287   3.846   8.786   3.891
 7349WAT      O22288   0.958   5.769   1.224
 7349WAT     H122289   0.904   5.692   1.259
 7349WAT     H222290   1.050   5.737   1.201
 7350WAT      O22291   6.414   1.683   3.077
 7350WAT     H122292   6.317   1.659   3.087
 7350WAT     H222293   6.468   1.624   3.136
 7351WAT      O22294   9.892   3.668   6.632
 7351WAT     H122295   9.899   3.600   6.706
 7351WAT     H222296   9.796   3.679   6.606
 7352WAT      O22297   9.041   4.903   6.551
 7352WAT     H122298   9.033   4.973   6.480
 7352WAT     H222299   9.035   4.947   6.641
 7353WAT      O22300   1.885   7.411   6.577
 7353WAT     H122301   1.944   7.412   6.658
 7353WAT     H222302   1.858   7.505   6.554
 7354WAT      O22303   1.417   6.893   9.160
 7354WAT     H122304   1.490   6.848   9.108
 7354WAT     H222305   1.445   6.986   9.183
 7355WAT      O22306   9.792   1.685   9.288
 7355WAT     H122307   9.832   1.594   9.282
 7355WAT     H222308   9.736   1.702   9.207
 7356WAT      O22309   5.689   9.753   0.995
 7356WAT     H122310   5.742   9.762   1.080
 7356WAT     H222311   5.655   9.659   0.987
 7357WAT      O22312   9.723   0.767   7.816
 7357WAT     H122313   9.749   0.863   7.826
 7357WAT     H222314   9.803   0.709   7.828
 7358WAT      O22315   8.179   9.238   6.039
 7358WAT     H122316   8.183   9.336   6.021
 7358WAT     H222317   8.182   9.188   5.952
 7359WAT      O22318   2.257   1.598   3.367
 7359WAT     H122319   2.189   1.635   3.431
 7359WAT     H222320   2.270   1.662   3.291
 7360WAT      O22321   1.290   6.819   4.599
 7360WAT     H122322   1.190   6.821   4.604
 7360WAT     H222323   1.327   6.889   4.660
 7361WAT      O22324   1.845   9.273   6.088
 7361WAT     H122325   1.797   9.356   6.060
 7361WAT     H222326   1.939   9.295   6.113
 7362WAT      O22327   3.970   6.198   7.259
 7362WAT     H122328   3.977   6.116   7.314
 7362WAT     H222329   3.876   6.233   7.263
 7363WAT      O22330   1.354   9.758   9.423
 7363WAT     H122331   1.266   9.794   9.455
 7363WAT     H222332   1.339   9.680   9.363
 7364WAT      O22333   6.795   5.066   0.891
 7364WAT     H122334   6.734   5.013   0.832
 7364WAT     H222335   6.847   5.131   0.835
 7365WAT      O22336   7.559   3.839   5.852
 7365WAT     H122337   7.525   3.787   5.774
 7365WAT     H222338   7.492   3.908   5.879
 7366WAT      O22339   5.712   2.827   1.765
 7366WAT     H122340   5.649   2.831   1.843
 7366WAT     H222341   5.805   2.843   1.798
 7367WAT      O22342   3.646   3.880   2.759
 7367WAT     H122343   3.639   3.973   2.795
 7367WAT     H222344   3.675   3.818   2.832
 7368WAT      O22345   0.776   4.670   6.063
 7368WAT     H122346   0.725   4.622   5.992
 7368WAT     H222347   0.771   4.768   6.047
 7369WAT      O22348   2.107   1.758   5.873
 7369WAT     H122349   2.200   1.733   5.901
 7369WAT     H222350   2.056   1.676   5.848
 7370WAT      O22351   7.563   8.636   5.029
 7370WAT     H122352   7.497   8.697   4.985
 7370WAT     H222353   7.645   8.688   5.053
 7371WAT      O22354   1.497   7.520   7.943
 7371WAT     H122355   1.436   7.477   7.877
 7371WAT     H222356   1.503   7.618   7.925
 7372WAT      O22357   2.299   1.525   2.956
 7372WAT     H122358   2.281   1.611   3.004
 7372WAT     H222359   2.214   1.474   2.946
 7373WAT      O22360   4.844   6.407   0.806
 7373WAT     H122361   4.855   6.309   0.824
 7373WAT     H222362   4.926   6.455   0.836
 7374WAT      O22363   2.856   7.253   5.033
 7374WAT     H122364   2.905   7.194   5.098
 7374WAT     H222365   2.799   7.318   5.084
 7375WAT      O22366   4.700   1.490   4.350
 7375WAT     H122367   4.608   1.455   4.332
 7375WAT     H222368   4.699   1.590   4.352
 7376WAT      O22369   1.703   2.683   8.163
 7376WAT     H122370   1.712   2.747   8.239
 7376WAT     H222371   1.768   2.707   8.092
 7377WAT      O22372   9.025   8.374   6.927
 7377WAT     H122373   8.975   8.374   7.014
 7377WAT     H222374   8.965   8.407   6.854
 7378WAT      O22375   3.502   0.801   6.383
 7378WAT     H122376   3.553   0.886   6.379
 7378WAT     H222377   3.548   0.731   6.328
 7379WAT      O22378   2.125   2.124   4.191
 7379WAT     H122379   2.152   2.041   4.241
 7379WAT     H222380   2.074   2.098   4.109
 7380WAT      O22381   8.314   5.091   7.829
 7380WAT     H122382   8.381   5.018   7.840
 7380WAT     H222383   8.327   5.160   7.901
 7381WAT      O22384   3.043   4.668   5.543
 7381WAT     H122385   2.970   4.640   5.607
 7381WAT     H222386   3.048   4.768   5.542
 7382WAT      O22387   9.382   9.487   6.390
 7382WAT     H122388   9.445   9.565   6.395
 7382WAT     H222389   9.411   9.426   6.316
 7383WAT      O22390   3.965   5.236   2.623
 7383WAT     H122391   3.889   5.231   2.558
 7383WAT     H222392   4.052   5.232   2.574
 7384WAT      O22393   5.423   7.354   6.403
 7384WAT     H122394   5.438   7.427   6.470
 7384WAT     H222395   5.392   7.394   6.317
 7385WAT      O22396   5.245   9.710   2.055
 7385WAT     H122397   5.292   9.740   2.139
 7385WAT     H222398   5.298   9.636   2.013
 7386WAT      O22399   3.751   4.259   8.338
 7386WAT     H122400   3.826   4.319   8.363
 7386WAT     H222401   3.761   4.171   8.386
 7387WAT      O22402   1.063   0.273   7.536
 7387WAT     H122403   1.014   0.232   7.460
 7387WAT     H222404   1.046   0.220   7.619
 7388WAT      O22405   3.022   6.271   8.533
 7388WAT     H122406   2.998   6.275   8.630
 7388WAT     H222407   3.071   6.186   8.514
 7389WAT      O22408   2.672   5.246   8.546
 7389WAT     H122409   2.702   5.265   8.452
 7389WAT     H222410   2.591   5.300   8.566
 7390WAT      O22411   9.622   2.119   4.883
 7390WAT     H122412   9.632   2.023   4.858
 7390WAT     H222413   9.660   2.177   4.811
 7391WAT      O22414   3.264   8.827   3.249
 7391WAT     H122415   3.327   8.749   3.243
 7391WAT     H222416   3.316   8.909   3.276
 7392WAT      O22417   8.451   2.582   8.496
 7392WAT     H122418   8.372   2.588   8.435
 7392WAT     H222419   8.420   2.582   8.591
 7393WAT      O22420   2.949   1.924   1.134
 7393WAT     H122421   2.909   2.015   1.124
 7393WAT     H222422   2.908   1.878   1.213
 7394WAT      O22423   2.897   4.179   9.835
 7394WAT     H122424   2.840   4.229   9.899
 7394WAT     H222425   2.989   4.218   9.833
 7395WAT      O22426   2.415   2.642   9.583
 7395WAT     H122427   2.381   2.584   9.509
 7395WAT     H222428   2.482   2.707   9.547
 7396WAT      O22429   4.034   3.944   8.959
 7396WAT     H122430   4.121   3.992   8.971
 7396WAT     H222431   4.007   3.948   8.863
 7397WAT      O22432   9.535   2.606   4.057
 7397WAT     H122433   9.444   2.565   4.066
 7397WAT     H222434   9.571   2.626   4.148
 7398WAT      O22435   1.994   7.820   8.369
 7398WAT     H122436   1.941   7.736   8.351
 7398WAT     H222437   2.037   7.851   8.284
 7399WAT      O22438   3.521   2.408   3.596
 7399WAT     H122439   3.442   2.440   3.649
 7399WAT     H222440   3.567   2.487   3.556
 7400WAT      O22441   6.622   6.113   2.194
 7400WAT     H122442   6.703   6.056   2.178
 7400WAT     H222443   6.648   6.209   2.193
 7401WAT      O22444   6.769   5.949   4.680
 7401WAT     H122445   6.687   5.896   4.660
 7401WAT     H222446   6.786   6.014   4.606
 7402WAT      O22447   2.816   5.948   7.374
 7402WAT     H122448   2.860   5.891   7.305
 7402WAT     H222449   2.860   6.037   7.377
 7403WAT      O22450   0.459   6.262   9.394
 7403WAT     H122451   0.524   6.267   9.469
 7403WAT     H222452   0.505   6.284   9.308
 7404WAT      O22453   9.112   1.962   7.424
 7404WAT     H122454   9.104   1.929   7.330
 7404WAT     H222455   9.131   2.061   7.423
 7405WAT      O22456   7.512   5.672   9.072
 7405WAT     H122457   7.423   5.701   9.107
 7405WAT     H222458   7.503   5.648   8.975
 7406WAT      O22459   4.879   3.375   3.065
 7406WAT     H122460   4.882   3.380   2.965
 7406WAT     H222461   4.944   3.440   3.104
 7407WAT      O22462   6.523   0.047   1.126
 7407WAT     H122463   6.491  -0.010   1.202
 7407WAT     H222464   6.568   0.129   1.163
 7408WAT      O22465   0.525   1.082   6.156
 7408WAT     H122466   0.484   1.146   6.221
 7408WAT     H222467   0.576   1.012   6.205
 7409WAT      O22468   9.098   9.123   6.186
 7409WAT     H122469   9.113   9.147   6.282
 7409WAT     H222470   9.093   9.206   6.131
 7410WAT      O22471   5.743   0.468   7.422
 7410WAT     H122472   5.714   0.564   7.423
 7410WAT     H222473   5.688   0.418   7.355
 7411WAT      O22474   7.977   1.453   8.509
 7411WAT     H122475   7.981   1.537   8.455
 7411WAT     H222476   7.902   1.458   8.574
 7412WAT      O22477   5.084   4.786   7.049
 7412WAT     H122478   5.043   4.867   7.090
 7412WAT     H222479   5.136   4.736   7.119
 7413WAT      O22480   9.642   4.901   6.851
 7413WAT     H122481   9.546   4.925   6.864
 7413WAT     H222482   9.651   4.801   6.849
 7414WAT      O22483   6.399   5.791   8.082
 7414WAT     H122484   6.375   5.777   7.986
 7414WAT     H222485   6.498   5.798   8.091
 7415WAT      O22486   3.204   2.914   5.912
 7415WAT     H122487   3.296   2.879   5.893
 7415WAT     H222488   3.181   2.894   6.007
 7416WAT      O22489   5.550   4.909   8.411
 7416WAT     H122490   5.483   4.945   8.476
 7416WAT     H222491   5.642   4.917   8.450
 7417WAT      O22492   5.261   4.640   7.230
 7417WAT     H122493   5.264   4.626   7.329
 7417WAT     H222494   5.344   4.688   7.201
 7418WAT      O22495   2.797   0.674   0.619
 7418WAT     H122496   2.715   0.693   0.565
 7418WAT     H222497   2.849   0.600   0.576
 7419WAT      O22498   1.304   5.264   9.331
 7419WAT     H122499   1.368   5.324   9.284
 7419WAT     H222500   1.214   5.271   9.287
 7420WAT      O22501   2.514   9.061   7.693
 7420WAT     H122502   2.483   9.138   7.638
 7420WAT     H222503   2.609   9.040   7.671
 7421WAT      O22504   5.109   3.896   8.877
 7421WAT     H122505   5.080   3.859   8.965
 7421WAT     H222506   5.078   3.836   8.804
 7422WAT      O22507   4.211   2.399   6.914
 7422WAT     H122508   4.275   2.446   6.853
 7422WAT     H222509   4.156   2.466   6.964
 7423WAT      O22510   5.767   8.740   6.571
 7423WAT     H122511   5.735   8.829   6.537
 7423WAT     H222512   5.862   8.726   6.543
 7424WAT      O22513   1.896   0.492   1.478
 7424WAT     H122514   1.937   0.409   1.440
 7424WAT     H222515   1.960   0.534   1.543
 7425WAT      O22516   5.633   1.688   1.589
 7425WAT     H122517   5.667   1.670   1.497
 7425WAT     H222518   5.557   1.626   1.610
 7426WAT      O22519   3.918   9.138   8.578
 7426WAT     H122520   3.969   9.170   8.498
 7426WAT     H222521   3.957   9.050   8.608
 7427WAT      O22522   7.446   1.263   1.526
 7427WAT     H122523   7.387   1.289   1.450
 7427WAT     H222524   7.541   1.288   1.504
 7428WAT      O22525   2.754   0.605   9.850
 7428WAT     H122526   2.777   0.664   9.927
 7428WAT     H222527   2.730   0.514   9.883
 7429WAT      O22528   1.509   2.988   4.078
 7429WAT     H122529   1.502   2.897   4.119
 7429WAT     H222530   1.557   3.050   4.141
 7430WAT      O22531   3.489   7.867   5.292
 7430WAT     H122532   3.415   7.928   5.323
 7430WAT     H222533   3.550   7.918   5.232
 7431WAT      O22534   4.371   6.651   1.967
 7431WAT     H122535   4.364   6.555   1.994
 7431WAT     H222536   4.434   6.660   1.891
 7432WAT      O22537   1.537   3.364   8.800
 7432WAT     H122538   1.632   3.360   8.830
 7432WAT     H222539   1.478   3.392   8.876
 7433WAT      O22540   4.098   6.457   7.264
 7433WAT     H122541   4.014   6.497   7.227
 7433WAT     H222542   4.101   6.359   7.241
 7434WAT      O22543   2.146   6.721   5.861
 7434WAT     H122544   2.104   6.644   5.813
 7434WAT     H222545   2.138   6.707   5.960
 7435WAT      O22546   1.505   0.338   6.202
 7435WAT     H122547   1.531   0.405   6.132
 7435WAT     H222548   1.572   0.339   6.276
 7436WAT      O22549   3.193   0.912   3.227
 7436WAT     H122550   3.169   0.826   3.272
 7436WAT     H222551   3.289   0.933   3.244
 7437WAT      O22552   5.027   6.257   4.436
 7437WAT     H122553   4.952   6.314   4.471
 7437WAT     H222554   5.037   6.272   4.338
 7438WAT      O22555   5.736   3.502   1.737
 7438WAT     H122556   5.734   3.426   1.801
 7438WAT     H222557   5.742   3.468   1.644
 7439WAT      O22558   5.188   5.453   8.839
 7439WAT     H122559   5.220   5.362   8.814
 7439WAT     H222560   5.178   5.509   8.757
 7440WAT      O22561   7.325   4.520   8.245
 7440WAT     H122562   7.320   4.596   8.309
 7440WAT     H222563   7.365   4.551   8.158
 7441WAT      O22564   8.177   7.526   1.203
 7441WAT     H122565   8.165   7.579   1.287
 7441WAT     H222566   8.250   7.459   1.216
 7442WAT      O22567   0.575   7.682   5.628
 7442WAT     H122568   0.583   7.770   5.581
 7442WAT     H222569   0.513   7.623   5.577
 7443WAT      O22570   2.769   5.537   5.720
 7443WAT     H122571   2.781   5.603   5.794
 7443WAT     H222572   2.747   5.447   5.757
 7444WAT      O22573   8.309   3.536   3.814
 7444WAT     H122574   8.356   3.456   3.853
 7444WAT     H222575   8.374   3.611   3.805
 7445WAT      O22576   0.819   0.901   7.286
 7445WAT     H122577   0.782   0.904   7.379
 7445WAT     H222578   0.899   0.842   7.284
 7446WAT      O22579   0.369   7.668   7.443
 7446WAT     H122580   0.299   7.642   7.376
 7446WAT     H222581   0.437   7.595   7.450
 7447WAT      O22582   4.920   5.262   2.694
 7447WAT     H122583   5.007   5.266   2.644
 7447WAT     H222584   4.844   5.260   2.629
 7448WAT      O22585   2.952   1.210   3.522
 7448WAT     H122586   3.024   1.214   3.591
 7448WAT     H222587   2.992   1.222   3.431
 7449WAT      O22588   2.321   8.408   1.227
 7449WAT     H122589   2.258   8.462   1.282
 7449WAT     H222590   2.388   8.469   1.184
 7450WAT      O22591   2.584   6.052   5.090
 7450WAT     H122592   2.527   6.134   5.091
 7450WAT     H222593   2.666   6.069   5.036
 7451WAT      O22594   6.197   8.684   6.175
 7451WAT     H122595   6.264   8.623   6.217
 7451WAT     H222596   6.124   8.629   6.134
 7452WAT      O22597   3.268   9.240   6.307
 7452WAT     H122598   3.328   9.285   6.241
 7452WAT     H222599   3.180   9.220   6.265
 7453WAT      O22600   7.791   4.679   1.006
 7453WAT     H122601   7.745   4.661   1.093
 7453WAT     H222602   7.889   4.661   1.016
 7454WAT      O22603   4.014   2.008   0.309
 7454WAT     H122604   3.955   2.038   0.384
 7454WAT     H222605   4.025   1.909   0.312
 7455WAT      O22606   2.475   6.771   4.834
 7455WAT     H122607   2.485   6.726   4.923
 7455WAT     H222608   2.453   6.867   4.848
 7456WAT      O22609   4.144   1.616   7.939
 7456WAT     H122610   4.218   1.554   7.965
 7456WAT     H222611   4.182   1.697   7.895
 7457WAT      O22612   7.287   0.815   4.389
 7457WAT     H122613   7.268   0.775   4.299
 7457WAT     H222614   7.219   0.782   4.455
 7458WAT      O22615   2.284   7.585   1.382
 7458WAT     H122616   2.384   7.579   1.375
 7458WAT     H222617   2.250   7.651   1.315
 7459WAT      O22618   6.116   3.551   4.100
 7459WAT     H122619   6.076   3.482   4.160
 7459WAT     H222620   6.215   3.548   4.106
 7460WAT      O22621   5.937   3.707   8.064
 7460WAT     H122622   6.019   3.705   8.122
 7460WAT     H222623   5.865   3.759   8.110
 7461WAT      O22624   7.164   8.041   7.520
 7461WAT     H122625   7.129   8.001   7.435
 7461WAT     H222626   7.246   8.095   7.500
 7462WAT      O22627   9.529   3.482   8.536
 7462WAT     H122628   9.438   3.481   8.495
 7462WAT     H222629   9.579   3.399   8.509
 7463WAT      O22630   3.256   1.405   3.230
 7463WAT     H122631   3.200   1.329   3.262
 7463WAT     H222632   3.217   1.491   3.262
 7464WAT      O22633   2.141   3.952   9.748
 7464WAT     H122634   2.146   3.900   9.833
 7464WAT     H222635   2.168   3.894   9.671
 7465WAT      O22636   5.340   2.492   4.027
 7465WAT     H122637   5.343   2.511   3.928
 7465WAT     H222638   5.354   2.578   4.077
 7466WAT      O22639   6.968   7.943   1.980
 7466WAT     H122640   7.030   7.910   2.052
 7466WAT     H222641   6.909   7.868   1.951
 7467WAT      O22642   1.286   0.498   8.301
 7467WAT     H122643   1.297   0.493   8.202
 7467WAT     H222644   1.334   0.578   8.336
 7468WAT      O22645   5.270   5.537   2.292
 7468WAT     H122646   5.362   5.506   2.314
 7468WAT     H222647   5.228   5.474   2.227
 7469WAT      O22648   2.772   2.375   1.529
 7469WAT     H122649   2.742   2.358   1.623
 7469WAT     H222650   2.805   2.290   1.488
 7470WAT      O22651   4.453   3.691   7.757
 7470WAT     H122652   4.450   3.768   7.821
 7470WAT     H222653   4.511   3.619   7.795
 7471WAT      O22654   3.519   4.694   8.883
 7471WAT     H122655   3.505   4.752   8.803
 7471WAT     H222656   3.520   4.751   8.965
 7472WAT      O22657   1.705   5.966   7.276
 7472WAT     H122658   1.785   5.922   7.237
 7472WAT     H222659   1.624   5.910   7.259
 7473WAT      O22660   0.010   8.151   2.397
 7473WAT     H122661  -0.056   8.145   2.471
 7473WAT     H222662   0.095   8.106   2.424
 7474WAT      O22663   1.239   3.005   7.287
 7474WAT     H122664   1.178   3.048   7.354
 7474WAT     H222665   1.188   2.937   7.235
 7475WAT      O22666   7.658   7.867   6.740
 7475WAT     H122667   7.684   7.951   6.693
 7475WAT     H222668   7.696   7.868   6.833
 7476WAT      O22669   5.555   1.972   3.540
 7476WAT     H122670   5.527   1.936   3.451
 7476WAT     H222671   5.482   2.028   3.577
 7477WAT      O22672   7.927   4.111   4.459
 7477WAT     H122673   7.897   4.135   4.552
 7477WAT     H222674   8.027   4.104   4.457
 7478WAT      O22675   6.059   0.310   8.501
 7478WAT     H122676   6.096   0.393   8.460
 7478WAT     H222677   6.063   0.235   8.434
 7479WAT      O22678   4.297   2.377   5.360
 7479WAT     H122679   4.260   2.441   5.427
 7479WAT     H222680   4.262   2.285   5.379
 7480WAT      O22681   7.309   9.379   7.086
 7480WAT     H122682   7.374   9.410   7.017
 7480WAT     H222683   7.258   9.300   7.051
 7481WAT      O22684   0.741   9.761   5.994
 7481WAT     H122685   0.790   9.761   5.907
 7481WAT     H222686   0.805   9.741   6.068
 7482WAT      O22687   2.439   3.257   6.480
 7482WAT     H122688   2.385   3.246   6.397
 7482WAT     H222689   2.383   3.298   6.551
 7483WAT      O22690   3.790   8.201   2.158
 7483WAT     H122691   3.701   8.222   2.115
 7483WAT     H222692   3.859   8.265   2.123
 7484WAT      O22693   3.725   7.298   5.043
 7484WAT     H122694   3.752   7.381   4.996
 7484WAT     H222695   3.718   7.316   5.141
 7485WAT      O22696   7.678   4.009   5.599
 7485WAT     H122697   7.628   4.076   5.654
 7485WAT     H222698   7.738   4.057   5.535
 7486WAT      O22699   9.796   9.767   3.054
 7486WAT     H122700   9.843   9.684   3.086
 7486WAT     H222701   9.848   9.806   2.978
 7487WAT      O22702   2.069   4.012   1.535
 7487WAT     H122703   2.012   4.081   1.580
 7487WAT     H222704   2.128   3.968   1.603
 7488WAT      O22705   6.307   2.804   5.464
 7488WAT     H122706   6.378   2.868   5.433
 7488WAT     H222707   6.221   2.853   5.475
 7489WAT      O22708   9.633   0.690   1.208
 7489WAT     H122709   9.678   0.700   1.296
 7489WAT     H222710   9.547   0.741   1.209
 7490WAT      O22711   8.561   3.795   0.836
 7490WAT     H122712   8.628   3.787   0.762
 7490WAT     H222713   8.497   3.718   0.832
 7491WAT      O22714   2.106   5.186   4.917
 7491WAT     H122715   2.197   5.225   4.902
 7491WAT     H222716   2.043   5.258   4.947
 7492WAT      O22717   2.098   1.086   8.453
 7492WAT     H122718   2.083   1.102   8.356
 7492WAT     H222719   2.108   0.988   8.470
 7493WAT      O22720   6.842   1.237   3.760
 7493WAT     H122721   6.909   1.231   3.686
 7493WAT     H222722   6.757   1.193   3.732
 7494WAT      O22723   0.673   5.203   4.181
 7494WAT     H122724   0.711   5.186   4.090
 7494WAT     H222725   0.627   5.292   4.181
 7495WAT      O22726   3.049   8.085   6.079
 7495WAT     H122727   3.044   8.007   6.017
 7495WAT     H222728   2.956   8.113   6.104
 7496WAT      O22729   5.930   3.446   9.558
 7496WAT     H122730   5.947   3.374   9.626
 7496WAT     H222731   6.009   3.454   9.497
 7497WAT      O22732   8.920   5.615   0.933
 7497WAT     H122733   8.820   5.611   0.944
 7497WAT     H222734   8.960   5.654   1.016
 7498WAT      O22735   2.338   0.477   2.983
 7498WAT     H122736   2.311   0.381   2.980
 7498WAT     H222737   2.360   0.509   2.890
 7499WAT      O22738   2.814   0.402   3.979
 7499WAT     H122739   2.826   0.501   3.986
 7499WAT     H222740   2.901   0.361   3.952
 7500WAT      O22741   2.004   0.283   1.286
 7500WAT     H122742   2.068   0.221   1.331
 7500WAT     H222743   2.051   0.333   1.214
 7501WAT      O22744   9.453   6.176   5.099
 7501WAT     H122745   9.427   6.240   5.171
 7501WAT     H222746   9.548   6.194   5.071
 7502WAT      O22747   5.991   6.092   9.201
 7502WAT     H122748   6.011   6.165   9.266
 7502WAT     H222749   6.024   6.118   9.111
 7503WAT      O22750   0.055   8.006   8.651
 7503WAT     H122751   0.141   8.010   8.701
 7503WAT     H222752   0.065   8.051   8.563
 7504WAT      O22753   4.019   5.940   7.407
 7504WAT     H122754   3.924   5.920   7.433
 7504WAT     H222755   4.045   5.881   7.330
 7505WAT      O22756   7.416   0.931   0.926
 7505WAT     H122757   7.466   0.857   0.970
 7505WAT     H222758   7.405   1.007   0.991
 7506WAT      O22759   2.472   5.611   0.014
 7506WAT     H122760   2.557   5.660   0.029
 7506WAT     H222761   2.396   5.665   0.050
 7507WAT      O22762   0.614   8.415   5.138
 7507WAT     H122763   0.689   8.468   5.176
 7507WAT     H222764   0.561   8.374   5.212
 7508WAT      O22765   8.127   2.061   3.364
 7508WAT     H122766   8.156   2.017   3.449
 7508WAT     H222767   8.078   2.146   3.385
 7509WAT      O22768   6.859   8.340   0.456
 7509WAT     H122769   6.829   8.286   0.535
 7509WAT     H222770   6.917   8.415   0.486
 7510WAT      O22771   7.877   3.650   2.023
 7510WAT     H122772   7.921   3.609   2.103
 7510WAT     H222773   7.848   3.743   2.045
 7511WAT      O22774   4.202   8.559   9.372
 7511WAT     H122775   4.104   8.542   9.373
 7511WAT     H222776   4.222   8.641   9.319
 7512WAT      O22777   0.216   9.539   1.281
 7512WAT     H122778   0.244   9.595   1.358
 7512WAT     H222779   0.117   9.541   1.271
 7513WAT      O22780   9.874   5.624   4.056
 7513WAT     H122781   9.862   5.535   4.012
 7513WAT     H222782   9.797   5.683   4.034
 7514WAT      O22783   0.354   2.293   6.763
 7514WAT     H122784   0.370   2.196   6.745
 7514WAT     H222785   0.435   2.332   6.807
 7515WAT      O22786   2.766   9.212   9.434
 7515WAT     H122787   2.824   9.131   9.425
 7515WAT     H222788   2.703   9.199   9.510
 7516WAT      O22789   1.878   1.492   3.326
 7516WAT     H122790   1.844   1.425   3.391
 7516WAT     H222791   1.802   1.531   3.275
 7517WAT      O22792   5.201   3.373   3.390
 7517WAT     H122793   5.301   3.362   3.387
 7517WAT     H222794   5.174   3.409   3.479
 7518WAT      O22795   7.810   2.480   7.010
 7518WAT     H122796   7.798   2.475   7.109
 7518WAT     H222797   7.904   2.507   6.989
 7519WAT      O22798   0.363   0.419   0.091
 7519WAT     H122799   0.418   0.414   0.174
 7519WAT     H222800   0.416   0.386   0.013
 7520WAT      O22801   7.324   7.397   8.474
 7520WAT     H122802   7.357   7.441   8.557
 7520WAT     H222803   7.226   7.413   8.463
 7521WAT      O22804   3.436   6.967   4.599
 7521WAT     H122805   3.521   6.940   4.553
 7521WAT     H222806   3.429   7.067   4.597
 7522WAT      O22807   5.527   7.544   2.357
 7522WAT     H122808   5.598   7.599   2.401
 7522WAT     H222809   5.443   7.547   2.412
 7523WAT      O22810   3.506   2.675   8.438
 7523WAT     H122811   3.569   2.743   8.474
 7523WAT     H222812   3.446   2.643   8.512
 7524WAT      O22813   2.538   6.254   0.220
 7524WAT     H122814   2.455   6.203   0.239
 7524WAT     H222815   2.575   6.292   0.306
 7525WAT      O22816   8.745   3.687   3.925
 7525WAT     H122817   8.721   3.683   3.828
 7525WAT     H222818   8.702   3.768   3.966
 7526WAT      O22819   6.974   5.475   5.131
 7526WAT     H122820   6.897   5.412   5.128
 7526WAT     H222821   7.049   5.441   5.074
 7527WAT      O22822   1.955   5.162   0.527
 7527WAT     H122823   1.973   5.230   0.598
 7527WAT     H222824   1.864   5.122   0.541
 7528WAT      O22825   0.238   5.819   0.438
 7528WAT     H122826   0.181   5.750   0.484
 7528WAT     H222827   0.196   5.909   0.449
 7529WAT      O22828   1.878   3.498   4.100
 7529WAT     H122829   1.850   3.404   4.079
 7529WAT     H222830   1.930   3.499   4.185
 7530WAT      O22831   8.470   0.664   5.270
 7530WAT     H122832   8.451   0.672   5.368
 7530WAT     H222833   8.444   0.748   5.224
 7531WAT      O22834   2.466   4.220   7.311
 7531WAT     H122835   2.523   4.281   7.367
 7531WAT     H222836   2.500   4.127   7.319
 7532WAT      O22837   5.274   6.116   6.638
 7532WAT     H122838   5.370   6.090   6.643
 7532WAT     H222839   5.225   6.076   6.716
 7533WAT      O22840   6.592   3.454   8.956
 7533WAT     H122841   6.550   3.403   9.032
 7533WAT     H222842   6.664   3.399   8.915
 7534WAT      O22843   1.839   2.587   0.752
 7534WAT     H122844   1.804   2.662   0.695
 7534WAT     H222845   1.804   2.596   0.845
 7535WAT      O22846   0.203   0.926   0.719
 7535WAT     H122847   0.246   0.840   0.693
 7535WAT     H222848   0.241   0.957   0.806
 7536WAT      O22849   1.733   3.017   7.334
 7536WAT     H122850   1.639   3.035   7.303
 7536WAT     H222851   1.789   2.991   7.255
 7537WAT      O22852   4.650   7.413   5.084
 7537WAT     H122853   4.560   7.435   5.124
 7537WAT     H222854   4.668   7.474   5.007
 7538WAT      O22855   2.628   7.391   7.067
 7538WAT     H122856   2.709   7.409   7.011
 7538WAT     H222857   2.548   7.432   7.023
 7539WAT      O22858   3.110   3.827   5.729
 7539WAT     H122859   3.070   3.894   5.665
 7539WAT     H222860   3.046   3.751   5.741
 7540WAT      O22861   8.311   0.783   0.677
 7540WAT     H122862   8.339   0.879   0.672
 7540WAT     H222863   8.211   0.778   0.675
 7541WAT      O22864   1.411   8.723   3.294
 7541WAT     H122865   1.436   8.642   3.240
 7541WAT     H222866   1.435   8.707   3.390
 7542WAT      O22867   3.884   3.678   6.101
 7542WAT     H122868   3.942   3.609   6.058
 7542WAT     H222869   3.874   3.658   6.198
 7543WAT      O22870   3.156   2.452   3.696
 7543WAT     H122871   3.075   2.425   3.749
 7543WAT     H222872   3.139   2.435   3.599
 7544WAT      O22873   0.545   1.391   7.875
 7544WAT     H122874   0.599   1.311   7.904
 7544WAT     H222875   0.452   1.383   7.910
 7545WAT      O22876   3.769   8.505   4.494
 7545WAT     H122877   3.860   8.468   4.512
 7545WAT     H222878   3.705   8.472   4.563
 7546WAT      O22879   5.786   7.658   7.299
 7546WAT     H122880   5.730   7.731   7.261
 7546WAT     H222881   5.832   7.691   7.382
 7547WAT      O22882   4.262   1.622   1.854
 7547WAT     H122883   4.208   1.652   1.933
 7547WAT     H222884   4.284   1.525   1.864
 7548WAT      O22885   0.650   0.379   2.360
 7548WAT     H122886   0.630   0.418   2.450
 7548WAT     H222887   0.584   0.413   2.294
 7549WAT      O22888   5.420   5.240   6.325
 7549WAT     H122889   5.398   5.154   6.280
 7549WAT     H222890   5.367   5.248   6.410
 7550WAT      O22891   6.366   2.845   4.175
 7550WAT     H122892   6.407   2.807   4.092
 7550WAT     H222893   6.365   2.775   4.247
 7551WAT      O22894   2.006   3.249   9.159
 7551WAT     H122895   1.911   3.223   9.146
 7551WAT     H222896   2.065   3.172   9.136
 7552WAT      O22897   7.692   6.717   0.469
 7552WAT     H122898   7.697   6.790   0.400
 7552WAT     H222899   7.780   6.669   0.472
 7553WAT      O22900   3.935   0.012   2.025
 7553WAT     H122901   3.929  -0.079   2.066
 7553WAT     H222902   3.883   0.013   1.939
 7554WAT      O22903   4.099   6.034   6.334
 7554WAT     H122904   4.015   5.993   6.371
 7554WAT     H222905   4.116   6.121   6.380
 7555WAT      O22906   0.723   6.758   0.192
 7555WAT     H122907   0.726   6.659   0.184
 7555WAT     H222908   0.753   6.800   0.107
 7556WAT      O22909   5.522   3.848   2.871
 7556WAT     H122910   5.518   3.936   2.824
 7556WAT     H222911   5.438   3.797   2.855
 7557WAT      O22912   6.990   2.284   3.314
 7557WAT     H122913   6.971   2.357   3.379
 7557WAT     H222914   7.085   2.254   3.324
 7558WAT      O22915   5.371   0.258   3.915
 7558WAT     H122916   5.399   0.305   3.831
 7558WAT     H222917   5.359   0.161   3.896
 7559WAT      O22918   6.774   7.811   6.110
 7559WAT     H122919   6.764   7.712   6.102
 7559WAT     H222920   6.705   7.857   6.054
 7560WAT      O22921   4.911   3.417   2.801
 7560WAT     H122922   4.855   3.500   2.795
 7560WAT     H222923   4.888   3.356   2.725
 7561WAT      O22924   3.945   8.085   4.542
 7561WAT     H122925   4.020   8.036   4.497
 7561WAT     H222926   3.962   8.183   4.539
 7562WAT      O22927   2.719   0.086   5.393
 7562WAT     H122928   2.782   0.153   5.435
 7562WAT     H222929   2.645   0.135   5.347
 7563WAT      O22930   4.727   5.002   2.592
 7563WAT     H122931   4.790   5.016   2.516
 7563WAT     H222932   4.648   4.949   2.561
 7564WAT      O22933   6.121   7.450   7.888
 7564WAT     H122934   6.025   7.452   7.916
 7564WAT     H222935   6.139   7.525   7.825
 7565WAT      O22936   6.798   4.584   4.269
 7565WAT     H122937   6.881   4.534   4.242
 7565WAT     H222938   6.772   4.647   4.197
 7566WAT      O22939   2.169   8.417   8.268
 7566WAT     H122940   2.167   8.477   8.347
 7566WAT     H222941   2.166   8.472   8.184
 7567WAT      O22942   4.014   6.831   1.232
 7567WAT     H122943   3.946   6.872   1.171
 7567WAT     H222944   3.993   6.734   1.245
 7568WAT      O22945   5.457   2.710   6.134
 7568WAT     H122946   5.461   2.686   6.231
 7568WAT     H222947   5.466   2.627   6.079
 7569WAT      O22948   2.658   7.155   6.015
 7569WAT     H122949   2.571   7.133   5.971
 7569WAT     H222950   2.732   7.107   5.969
 7570WAT      O22951   7.885   4.329   6.051
 7570WAT     H122952   7.874   4.349   5.953
 7570WAT     H222953   7.983   4.325   6.073
 7571WAT      O22954   8.607   1.064   7.373
 7571WAT     H122955   8.600   0.965   7.389
 7571WAT     H222956   8.518   1.100   7.348
 7572WAT      O22957   1.977   2.191   5.749
 7572WAT     H122958   1.977   2.290   5.762
 7572WAT     H222959   1.922   2.169   5.668
 7573WAT      O22960   7.926   2.203   3.884
 7573WAT     H122961   7.831   2.176   3.868
 7573WAT     H222962   7.968   2.231   3.798
 7574WAT      O22963   0.029   5.986   5.642
 7574WAT     H122964   0.010   5.978   5.544
 7574WAT     H222965   0.026   6.082   5.669
 7575WAT      O22966   4.766   6.693   9.290
 7575WAT     H122967   4.769   6.611   9.347
 7575WAT     H222968   4.784   6.668   9.195
 7576WAT      O22969   1.817   7.621   1.304
 7576WAT     H122970   1.881   7.545   1.294
 7576WAT     H222971   1.723   7.586   1.302
 7577WAT      O22972   2.142   3.355   3.446
 7577WAT     H122973   2.154   3.371   3.544
 7577WAT     H222974   2.069   3.288   3.432
 7578WAT      O22975   8.371   8.110   6.140
 7578WAT     H122976   8.369   8.013   6.115
 7578WAT     H222977   8.463   8.146   6.127
 7579WAT      O22978   9.693   4.233   1.959
 7579WAT     H122979   9.686   4.283   1.873
 7579WAT     H222980   9.647   4.284   2.031
 7580WAT      O22981   7.627   3.122   3.611
 7580WAT     H122982   7.599   3.218   3.619
 7580WAT     H222983   7.586   3.082   3.528
 7581WAT      O22984   3.485   5.733   0.898
 7581WAT     H122985   3.450   5.688   0.981
 7581WAT     H222986   3.584   5.719   0.892
 7582WAT      O22987   4.918   2.108   3.197
 7582WAT     H122988   4.878   2.025   3.236
 7582WAT     H222989   4.944   2.090   3.102
 7583WAT      O22990   6.189   3.821   0.209
 7583WAT     H122991   6.106   3.782   0.248
 7583WAT     H222992   6.259   3.831   0.280
 7584WAT      O22993   7.547   3.088   9.141
 7584WAT     H122994   7.566   3.037   9.056
 7584WAT     H222995   7.542   3.024   9.217
 7585WAT      O22996   4.424   4.002   3.741
 7585WAT     H122997   4.506   3.977   3.793
 7585WAT     H222998   4.369   4.066   3.794
 7586WAT      O22999   6.615   8.054   5.694
 7586WAT     H123000   6.617   8.006   5.607
 7586WAT     H223001   6.613   8.153   5.678
 7587WAT      O23002   1.724   6.527   8.378
 7587WAT     H123003   1.671   6.608   8.354
 7587WAT     H223004   1.815   6.554   8.407
 7588WAT      O23005   0.942   0.286   5.771
 7588WAT     H123006   0.909   0.285   5.865
 7588WAT     H223007   0.971   0.378   5.747
 7589WAT      O23008   1.413   7.743   0.911
 7589WAT     H123009   1.421   7.694   0.824
 7589WAT     H223010   1.389   7.839   0.894
 7590WAT      O23011   5.476   5.627   6.806
 7590WAT     H123012   5.396   5.658   6.753
 7590WAT     H223013   5.559   5.638   6.751
 7591WAT      O23014   1.473   1.729   1.486
 7591WAT     H123015   1.459   1.816   1.437
 7591WAT     H223016   1.547   1.678   1.442
 7592WAT      O23017   0.657   6.241   9.604
 7592WAT     H123018   0.684   6.155   9.559
 7592WAT     H223019   0.738   6.286   9.641
 7593WAT      O23020   8.350   6.815   1.028
 7593WAT     H123021   8.300   6.886   0.979
 7593WAT     H223022   8.436   6.853   1.063
 7594WAT      O23023   6.429   6.028   6.897
 7594WAT     H123024   6.528   6.038   6.903
 7594WAT     H223025   6.385   6.113   6.926
 7595WAT      O23026   6.129   5.564   1.374
 7595WAT     H123027   6.079   5.512   1.304
 7595WAT     H223028   6.076   5.565   1.459
 7596WAT      O23029   8.476   7.907   0.667
 7596WAT     H123030   8.431   7.864   0.588
 7596WAT     H223031   8.447   8.002   0.673
 7597WAT      O23032   1.362   1.308   7.378
 7597WAT     H123033   1.393   1.303   7.283
 7597WAT     H223034   1.269   1.274   7.385
 7598WAT      O23035   0.206   5.337   9.651
 7598WAT     H123036   0.224   5.315   9.747
 7598WAT     H223037   0.249   5.424   9.628
 7599WAT      O23038   5.069   8.095   0.278
 7599WAT     H123039   5.048   8.095   0.181
 7599WAT     H223040   5.039   8.008   0.319
 7600WAT      O23041   0.299   3.534   8.958
 7600WAT     H123042   0.262   3.451   8.916
 7600WAT     H223043   0.261   3.545   9.049
 7601WAT      O23044   7.468   7.750   4.688
 7601WAT     H123045   7.431   7.815   4.622
 7601WAT     H223046   7.557   7.717   4.657
 7602WAT      O23047   0.550   8.679   1.494
 7602WAT     H123048   0.493   8.599   1.475
 7602WAT     H223049   0.600   8.664   1.580
 7603WAT      O23050   3.765   0.313   7.103
 7603WAT     H123051   3.723   0.319   7.013
 7603WAT     H223052   3.699   0.343   7.172
 7604WAT      O23053   0.538   4.208   1.241
 7604WAT     H123054   0.617   4.153   1.214
 7604WAT     H223055   0.460   4.183   1.184
 7605WAT      O23056   9.592   5.123   8.173
 7605WAT     H123057   9.685   5.152   8.196
 7605WAT     H223058   9.529   5.198   8.192
 7606WAT      O23059   2.417   1.923   7.733
 7606WAT     H123060   2.357   1.850   7.700
 7606WAT     H223061   2.400   1.939   7.831
 7607WAT      O23062   4.675   1.626   8.735
 7607WAT     H123063   4.677   1.690   8.658
 7607WAT     H223064   4.713   1.539   8.706
 7608WAT      O23065   6.985   6.624   7.646
 7608WAT     H123066   7.031   6.635   7.558
 7608WAT     H223067   6.947   6.531   7.652
 7609WAT      O23068   4.024   1.538   3.751
 7609WAT     H123069   3.952   1.469   3.738
 7609WAT     H223070   4.104   1.495   3.792
 7610WAT      O23071   2.127   0.568   3.098
 7610WAT     H123072   2.121   0.664   3.071
 7610WAT     H223073   2.209   0.527   3.057
 7611WAT      O23074   1.614   3.620   3.884
 7611WAT     H123075   1.647   3.642   3.975
 7611WAT     H223076   1.589   3.523   3.879
 7612WAT      O23077   1.865   3.489   2.296
 7612WAT     H123078   1.857   3.542   2.211
 7612WAT     H223079   1.881   3.393   2.274
 7613WAT      O23080   9.621   4.816   7.600
 7613WAT     H123081   9.664   4.899   7.636
 7613WAT     H223082   9.549   4.786   7.663
 7614WAT      O23083   3.359   8.294   4.995
 7614WAT     H123084   3.330   8.216   5.051
 7614WAT     H223085   3.458   8.289   4.980
 7615WAT      O23086   2.259   5.162   5.381
 7615WAT     H123087   2.197   5.200   5.450
 7615WAT     H223088   2.322   5.234   5.351
 7616WAT      O23089   3.036   3.074   8.288
 7616WAT     H123090   2.969   3.059   8.361
 7616WAT     H223091   3.019   3.162   8.245
 7617WAT      O23092   7.044   7.615   2.027
 7617WAT     H123093   7.027   7.617   2.126
 7617WAT     H223094   7.131   7.659   2.007
 7618WAT      O23095   9.105   1.263   8.764
 7618WAT     H123096   9.026   1.284   8.822
 7618WAT     H223097   9.101   1.167   8.736
 7619WAT      O23098   1.752   8.313   6.638
 7619WAT     H123099   1.736   8.252   6.561
 7619WAT     H223100   1.850   8.318   6.657
 7620WAT      O23101   8.218   4.333   6.533
 7620WAT     H123102   8.134   4.335   6.587
 7620WAT     H223103   8.215   4.256   6.469
 7621WAT      O23104   8.458   6.213   1.542
 7621WAT     H123105   8.427   6.153   1.468
 7621WAT     H223106   8.544   6.178   1.580
 7622WAT      O23107   1.241   2.670   3.940
 7622WAT     H123108   1.331   2.643   3.975
 7622WAT     H223109   1.206   2.746   3.995
 7623WAT      O23110   4.068   4.748   3.210
 7623WAT     H123111   4.095   4.663   3.255
 7623WAT     H223112   3.969   4.759   3.215
 7624WAT      O23113   3.143   8.270   1.392
 7624WAT     H123114   3.128   8.335   1.318
 7624WAT     H223115   3.057   8.255   1.441
 7625WAT      O23116   0.852   0.227   0.330
 7625WAT     H123117   0.932   0.232   0.390
 7625WAT     H223118   0.827   0.132   0.315
 7626WAT      O23119   1.877   8.232   9.486
 7626WAT     H123120   1.972   8.262   9.495
 7626WAT     H223121   1.876   8.133   9.467
 7627WAT      O23122   1.444   5.384   0.520
 7627WAT     H123123   1.465   5.339   0.433
 7627WAT     H223124   1.348   5.367   0.544
 7628WAT      O23125   3.433   6.480   3.480
 7628WAT     H123126   3.479   6.476   3.391
 7628WAT     H223127   3.434   6.574   3.513
 7629WAT      O23128   4.540   0.504   3.903
 7629WAT     H123129   4.447   0.477   3.879
 7629WAT     H223130   4.600   0.488   3.825
 7630WAT      O23131   0.950   4.139   8.782
 7630WAT     H123132   0.972   4.094   8.695
 7630WAT     H223133   0.862   4.105   8.816
 7631WAT      O23134   9.889   9.639   3.868
 7631WAT     H123135   9.844   9.707   3.926
 7631WAT     H223136   9.829   9.560   3.857
 7632WAT      O23137   5.920   6.895   7.504
 7632WAT     H123138   5.997   6.854   7.553
 7632WAT     H223139   5.877   6.964   7.563
 7633WAT      O23140   1.162   4.783   9.235
 7633WAT     H123141   1.212   4.838   9.302
 7633WAT     H223142   1.225   4.718   9.193
 7634WAT      O23143   5.604   2.248   3.346
 7634WAT     H123144   5.693   2.280   3.312
 7634WAT     H223145   5.587   2.156   3.312
 7635WAT      O23146   4.644   9.724   3.699
 7635WAT     H123147   4.723   9.664   3.686
 7635WAT     H223148   4.665   9.815   3.663
 7636WAT      O23149   4.046   1.738   1.425
 7636WAT     H123150   4.088   1.691   1.502
 7636WAT     H223151   4.093   1.712   1.340
 7637WAT      O23152   2.952   6.913   9.183
 7637WAT     H123153   2.949   7.013   9.174
 7637WAT     H223154   2.915   6.887   9.273
 7638WAT      O23155   4.225   3.318   7.750
 7638WAT     H123156   4.315   3.274   7.758
 7638WAT     H223157   4.157   3.264   7.800
 7639WAT      O23158   6.065   6.766   5.000
 7639WAT     H123159   6.131   6.785   5.074
 7639WAT     H223160   5.979   6.812   5.020
 7640WAT      O23161   1.083   3.248   2.166
 7640WAT     H123162   1.019   3.303   2.112
 7640WAT     H223163   1.076   3.274   2.263
 7641WAT      O23164   5.274   0.088   4.948
 7641WAT     H123165   5.227   0.014   4.996
 7641WAT     H223166   5.266   0.172   5.000
 7642WAT      O23167   1.135   6.422   8.533
 7642WAT     H123168   1.182   6.482   8.598
 7642WAT     H223169   1.194   6.345   8.509
 7643WAT      O23170   1.470   2.806   8.031
 7643WAT     H123171   1.443   2.902   8.025
 7643WAT     H223172   1.556   2.798   8.081
 7644WAT      O23173   8.247   8.608   5.687
 7644WAT     H123174   8.162   8.646   5.722
 7644WAT     H223175   8.241   8.600   5.587
 7645WAT      O23176   4.940   8.952   3.852
 7645WAT     H123177   5.008   9.011   3.808
 7645WAT     H223178   4.983   8.867   3.880
 7646WAT      O23179   0.229   8.055   1.676
 7646WAT     H123180   0.304   8.121   1.685
 7646WAT     H223181   0.263   7.974   1.629
 7647WAT      O23182   5.305   3.377   8.664
 7647WAT     H123183   5.338   3.407   8.574
 7647WAT     H223184   5.302   3.455   8.726
 7648WAT      O23185   7.515   9.768   5.452
 7648WAT     H123186   7.597   9.825   5.451
 7648WAT     H223187   7.448   9.807   5.389
 7649WAT      O23188   8.764   3.430   8.963
 7649WAT     H123189   8.845   3.399   8.914
 7649WAT     H223190   8.698   3.467   8.898
 7650WAT      O23191   2.145   2.025   7.666
 7650WAT     H123192   2.213   1.983   7.605
 7650WAT     H223193   2.190   2.056   7.749
 7651WAT      O23194   2.763   2.117   1.422
 7651WAT     H123195   2.678   2.169   1.428
 7651WAT     H223196   2.803   2.131   1.331
 7652WAT      O23197   5.455   4.574   4.080
 7652WAT     H123198   5.364   4.544   4.050
 7652WAT     H223199   5.463   4.673   4.066
 7653WAT      O23200   4.129   8.921   3.993
 7653WAT     H123201   4.161   8.849   3.932
 7653WAT     H223202   4.193   8.998   3.990
 7654WAT      O23203   8.901   2.789   4.855
 7654WAT     H123204   8.966   2.723   4.816
 7654WAT     H223205   8.831   2.740   4.905
 7655WAT      O23206   8.961   2.785   1.249
 7655WAT     H123207   8.946   2.875   1.289
 7655WAT     H223208   9.006   2.726   1.315
 7656WAT      O23209   0.515   6.760   5.322
 7656WAT     H123210   0.538   6.741   5.418
 7656WAT     H223211   0.433   6.818   5.319
 7657WAT      O23212   8.093   5.164   0.518
 7657WAT     H123213   8.185   5.172   0.480
 7657WAT     H223214   8.097   5.166   0.618
 7658WAT      O23215   3.600   6.958   6.499
 7658WAT     H123216   3.518   6.949   6.555
 7658WAT     H223217   3.656   7.034   6.533
 7659WAT      O23218   2.000   7.822   0.430
 7659WAT     H123219   2.000   7.729   0.393
 7659WAT     H223220   2.094   7.856   0.435
 7660WAT      O23221   8.522   7.910   6.881
 7660WAT     H123222   8.504   7.870   6.791
 7660WAT     H223223   8.619   7.935   6.888
 7661WAT      O23224   6.699   5.635   0.870
 7661WAT     H123225   6.696   5.569   0.794
 7661WAT     H223226   6.714   5.585   0.955
 7662WAT      O23227   5.129   4.092   9.097
 7662WAT     H123228   5.219   4.110   9.136
 7662WAT     H223229   5.133   4.102   8.997
 7663WAT      O23230   7.512   0.089   1.935
 7663WAT     H123231   7.452   0.014   1.963
 7663WAT     H223232   7.517   0.157   2.009
 7664WAT      O23233   1.723   0.038   1.519
 7664WAT     H123234   1.805  -0.018   1.524
 7664WAT     H223235   1.686   0.051   1.612
 7665WAT      O23236   3.082   6.831   6.121
 7665WAT     H123237   3.104   6.734   6.135
 7665WAT     H223238   3.003   6.856   6.177
 7666WAT      O23239   2.481   5.451   2.742
 7666WAT     H123240   2.568   5.480   2.702
 7666WAT     H223241   2.490   5.442   2.841
 7667WAT      O23242   9.329   0.944   5.466
 7667WAT     H123243   9.376   0.890   5.397
 7667WAT     H223244   9.386   1.023   5.490
 7668WAT      O23245   7.949   7.916   8.306
 7668WAT     H123246   7.883   7.886   8.238
 7668WAT     H223247   7.999   7.996   8.271
 7669WAT      O23248   3.886   5.920   9.153
 7669WAT     H123249   3.921   5.950   9.241
 7669WAT     H223250   3.796   5.961   9.137
 7670WAT      O23251   5.739   2.092   5.686
 7670WAT     H123252   5.804   2.095   5.610
 7670WAT     H223253   5.788   2.107   5.772
 7671WAT      O23254   2.626   1.793   4.138
 7671WAT     H123255   2.682   1.762   4.060
 7671WAT     H223256   2.596   1.713   4.190
 7672WAT      O23257   7.234   1.951   0.659
 7672WAT     H123258   7.295   1.917   0.588
 7672WAT     H223259   7.232   2.051   0.655
 7673WAT      O23260   1.295   9.050   9.786
 7673WAT     H123261   1.312   8.974   9.849
 7673WAT     H223262   1.207   9.035   9.740
 7674WAT      O23263   9.691   6.703   3.767
 7674WAT     H123264   9.725   6.752   3.847
 7674WAT     H223265   9.709   6.606   3.777
 7675WAT      O23266   0.566   7.129   6.679
 7675WAT     H123267   0.591   7.226   6.682
 7675WAT     H223268   0.638   7.075   6.724
 7676WAT      O23269   8.425   9.369   7.740
 7676WAT     H123270   8.496   9.374   7.810
 7676WAT     H223271   8.466   9.383   7.650
 7677WAT      O23272   5.093   5.332   7.835
 7677WAT     H123273   5.115   5.395   7.761
 7677WAT     H223274   5.073   5.384   7.918
 7678WAT      O23275   9.340   2.696   2.399
 7678WAT     H123276   9.435   2.688   2.369
 7678WAT     H223277   9.285   2.624   2.356
 7679WAT      O23278   0.058   5.049   8.050
 7679WAT     H123279   0.103   4.963   8.024
 7679WAT     H223280   0.062   5.061   8.149
 7680WAT      O23281   3.596   6.133   0.237
 7680WAT     H123282   3.566   6.224   0.263
 7680WAT     H223283   3.548   6.064   0.291
 7681WAT      O23284   7.697   3.251   7.083
 7681WAT     H123285   7.782   3.275   7.035
 7681WAT     H223286   7.620   3.266   7.022
 7682WAT      O23287   6.059   9.609   5.702
 7682WAT     H123288   5.966   9.591   5.671
 7682WAT     H223289   6.098   9.526   5.741
 7683WAT      O23290   6.568   1.701   4.134
 7683WAT     H123291   6.529   1.742   4.052
 7683WAT     H223292   6.516   1.619   4.159
 7684WAT      O23293   9.136   6.255   8.690
 7684WAT     H123294   9.184   6.267   8.603
 7684WAT     H223295   9.196   6.283   8.765
 7685WAT      O23296   1.558   3.971   0.278
 7685WAT     H123297   1.541   4.033   0.355
 7685WAT     H223298   1.595   4.023   0.201
 7686WAT      O23299   0.292   7.612   6.895
 7686WAT     H123300   0.284   7.705   6.860
 7686WAT     H223301   0.238   7.550   6.838
 7687WAT      O23302   8.253   0.272   8.665
 7687WAT     H123303   8.168   0.287   8.716
 7687WAT     H223304   8.232   0.268   8.567
 7688WAT      O23305   1.298   4.469   4.774
 7688WAT     H123306   1.254   4.502   4.857
 7688WAT     H223307   1.331   4.548   4.721
 7689WAT      O23308   6.084   1.287   7.496
 7689WAT     H123309   6.065   1.384   7.486
 7689WAT     H223310   6.182   1.273   7.510
 7690WAT      O23311   3.307   4.141   8.540
 7690WAT     H123312   3.221   4.187   8.561
 7690WAT     H223313   3.364   4.202   8.485
 7691WAT      O23314   0.151   9.841   0.734
 7691WAT     H123315   0.192   9.751   0.736
 7691WAT     H223316   0.185   9.893   0.656
 7692WAT      O23317   4.759   5.919   8.446
 7692WAT     H123318   4.766   5.819   8.443
 7692WAT     H223319   4.775   5.956   8.355
 7693WAT      O23320   9.435   3.842   2.574
 7693WAT     H123321   9.491   3.921   2.549
 7693WAT     H223322   9.365   3.826   2.504
 7694WAT      O23323   9.080   0.156   0.637
 7694WAT     H123324   9.025   0.111   0.707
 7694WAT     H223325   9.109   0.246   0.671
 7695WAT      O23326   2.546   1.681   6.923
 7695WAT     H123327   2.606   1.611   6.963
 7695WAT     H223328   2.459   1.639   6.897
 7696WAT      O23329   7.335   1.302   0.764
 7696WAT     H123330   7.381   1.275   0.848
 7696WAT     H223331   7.365   1.244   0.689
 7697WAT      O23332   6.963   2.716   4.130
 7697WAT     H123333   7.048   2.667   4.147
 7697WAT     H223334   6.973   2.775   4.050
 7698WAT      O23335   0.606   5.514   6.802
 7698WAT     H123336   0.534   5.445   6.803
 7698WAT     H223337   0.576   5.595   6.851
 7699WAT      O23338   4.778   7.297   4.778
 7699WAT     H123339   4.786   7.203   4.810
 7699WAT     H223340   4.747   7.297   4.683
 7700WAT      O23341   8.612   8.101   4.927
 7700WAT     H123342   8.693   8.138   4.973
 7700WAT     H223343   8.632   8.010   4.891
 7701WAT      O23344   5.192   1.279   1.508
 7701WAT     H123345   5.105   1.323   1.530
 7701WAT     H223346   5.226   1.229   1.589
 7702WAT      O23347   1.113   8.218   5.417
 7702WAT     H123348   1.184   8.150   5.432
 7702WAT     H223349   1.027   8.171   5.394
 7703WAT      O23350   0.043   8.337   6.840
 7703WAT     H123351  -0.002   8.283   6.910
 7703WAT     H223352   0.036   8.290   6.752
 7704WAT      O23353   0.171   7.248   5.335
 7704WAT     H123354   0.265   7.221   5.356
 7704WAT     H223355   0.122   7.266   5.421
 7705WAT      O23356   1.900   8.299   4.716
 7705WAT     H123357   1.909   8.335   4.809
 7705WAT     H223358   1.931   8.203   4.715
 7706WAT      O23359   4.968   4.657   2.538
 7706WAT     H123360   5.019   4.693   2.459
 7706WAT     H223361   4.959   4.729   2.607
 7707WAT      O23362   7.044   5.080   0.301
 7707WAT     H123363   7.019   5.043   0.212
 7707WAT     H223364   6.971   5.140   0.333
 7708WAT      O23365   1.645   2.856   8.369
 7708WAT     H123366   1.661   2.810   8.456
 7708WAT     H223367   1.657   2.955   8.380
 7709WAT      O23368   9.667   9.234   4.034
 7709WAT     H123369   9.642   9.238   4.131
 7709WAT     H223370   9.616   9.160   3.990
 7710WAT      O23371   3.948   6.642   0.261
 7710WAT     H123372   4.002   6.609   0.184
 7710WAT     H223373   3.978   6.735   0.285
 7711WAT      O23374   1.461   0.198   5.979
 7711WAT     H123375   1.395   0.254   5.930
 7711WAT     H223376   1.481   0.240   6.068
 7712WAT      O23377   2.519   3.331   9.709
 7712WAT     H123378   2.522   3.257   9.642
 7712WAT     H223379   2.443   3.316   9.772
 7713WAT      O23380   1.152   7.817   0.470
 7713WAT     H123381   1.243   7.854   0.489
 7713WAT     H223382   1.086   7.891   0.464
 7714WAT      O23383   1.365   3.073   0.949
 7714WAT     H123384   1.398   3.166   0.930
 7714WAT     H223385   1.324   3.035   0.866
 7715WAT      O23386   3.503   4.096   5.781
 7715WAT     H123387   3.498   4.133   5.688
 7715WAT     H223388   3.423   4.125   5.833
 7716WAT      O23389   5.761   5.649   6.646
 7716WAT     H123390   5.763   5.669   6.548
 7716WAT     H223391   5.777   5.551   6.660
 7717WAT      O23392   4.911   7.418   8.910
 7717WAT     H123393   4.835   7.462   8.863
 7717WAT     H223394   4.998   7.447   8.868
 7718WAT      O23395   1.391   3.412   1.784
 7718WAT     H123396   1.484   3.400   1.748
 7718WAT     H223397   1.325   3.376   1.718
 7719WAT      O23398   2.525   7.757   9.009
 7719WAT     H123399   2.428   7.737   8.992
 7719WAT     H223400   2.580   7.677   8.989
 7720WAT      O23401   9.255   9.677   3.815
 7720WAT     H123402   9.347   9.711   3.797
 7720WAT     H223403   9.193   9.707   3.742
 7721WAT      O23404   9.777   1.530   5.767
 7721WAT     H123405   9.786   1.439   5.806
 7721WAT     H223406   9.706   1.529   5.696
 7722WAT      O23407   8.149   5.716   6.706
 7722WAT     H123408   8.143   5.632   6.652
 7722WAT     H223409   8.107   5.702   6.795
 7723WAT      O23410   8.148   0.679   2.165
 7723WAT     H123411   8.203   0.748   2.212
 7723WAT     H223412   8.105   0.620   2.232
 7724WAT      O23413   2.058   9.065   6.443
 7724WAT     H123414   2.014   9.054   6.531
 7724WAT     H223415   2.024   8.996   6.379
 7725WAT      O23416   4.567   9.400   2.184
 7725WAT     H123417   4.470   9.395   2.209
 7725WAT     H223418   4.622   9.351   2.252
 7726WAT      O23419   5.395   8.717   8.366
 7726WAT     H123420   5.330   8.758   8.429
 7726WAT     H223421   5.361   8.725   8.273
 7727WAT      O23422   6.420   4.203   6.795
 7727WAT     H123423   6.336   4.165   6.756
 7727WAT     H223424   6.478   4.238   6.722
 7728WAT      O23425   3.234   1.382   1.915
 7728WAT     H123426   3.298   1.458   1.906
 7728WAT     H223427   3.268   1.316   1.983
 7729WAT      O23428   4.218   5.933   4.094
 7729WAT     H123429   4.201   5.958   3.998
 7729WAT     H223430   4.272   6.005   4.137
 7730WAT      O23431   4.657   2.364   7.547
 7730WAT     H123432   4.669   2.463   7.556
 7730WAT     H223433   4.714   2.318   7.615
 7731WAT      O23434   4.400   2.251   7.986
 7731WAT     H123435   4.471   2.320   7.973
 7731WAT     H223436   4.344   2.275   8.065
 7732WAT      O23437   1.327   1.562   9.342
 7732WAT     H123438   1.322   1.643   9.401
 7732WAT     H223439   1.418   1.556   9.301
 7733WAT      O23440   4.089   0.711   7.409
 7733WAT     H123441   4.165   0.759   7.365
 7733WAT     H223442   4.037   0.775   7.465
 7734WAT      O23443   9.721   8.686   4.954
 7734WAT     H123444   9.789   8.738   4.903
 7734WAT     H223445   9.681   8.743   5.026
 7735WAT      O23446   4.351   7.046   5.919
 7735WAT     H123447   4.334   7.133   5.965
 7735WAT     H223448   4.305   6.973   5.970
 7736WAT      O23449   8.528   4.783   2.088
 7736WAT     H123450   8.490   4.857   2.144
 7736WAT     H223451   8.466   4.704   2.091
 7737WAT      O23452   4.571   0.338   5.080
 7737WAT     H123453   4.644   0.394   5.120
 7737WAT     H223454   4.516   0.395   5.019
 7738WAT      O23455   0.746   9.427   5.505
 7738WAT     H123456   0.728   9.469   5.594
 7738WAT     H223457   0.843   9.437   5.483
 7739WAT      O23458   4.403   3.754   5.293
 7739WAT     H123459   4.334   3.775   5.223
 7739WAT     H223460   4.365   3.687   5.357
 7740WAT      O23461   7.129   3.899   4.961
 7740WAT     H123462   7.216   3.854   4.978
 7740WAT     H223463   7.141   3.972   4.894
 7741WAT      O23464   7.360   2.457   8.508
 7741WAT     H123465   7.335   2.467   8.412
 7741WAT     H223466   7.405   2.369   8.521
 7742WAT      O23467   8.829   1.595   6.520
 7742WAT     H123468   8.926   1.605   6.498
 7742WAT     H223469   8.800   1.501   6.502
 7743WAT      O23470   9.379   6.490   3.526
 7743WAT     H123471   9.378   6.443   3.614
 7743WAT     H223472   9.465   6.540   3.516
 7744WAT      O23473   0.005   2.796   2.364
 7744WAT     H123474  -0.055   2.759   2.294
 7744WAT     H223475   0.086   2.835   2.321
 7745WAT      O23476   8.754   0.224   1.765
 7745WAT     H123477   8.826   0.267   1.819
 7745WAT     H223478   8.696   0.295   1.724
 7746WAT      O23479   8.193   0.218   6.694
 7746WAT     H123480   8.189   0.203   6.793
 7746WAT     H223481   8.100   0.225   6.657
 7747WAT      O23482   3.908   5.135   1.480
 7747WAT     H123483   4.006   5.116   1.478
 7747WAT     H223484   3.868   5.110   1.391
 7748WAT      O23485   4.294   5.622   2.570
 7748WAT     H123486   4.264   5.715   2.593
 7748WAT     H223487   4.298   5.567   2.653
 7749WAT      O23488   4.975   2.361   3.442
 7749WAT     H123489   4.899   2.336   3.381
 7749WAT     H223490   4.942   2.371   3.535
 7750WAT      O23491   8.429   9.742   5.646
 7750WAT     H123492   8.330   9.731   5.644
 7750WAT     H223493   8.465   9.735   5.553
 7751WAT      O23494   2.124   7.045   1.526
 7751WAT     H123495   2.065   7.015   1.452
 7751WAT     H223496   2.182   6.968   1.555
 7752WAT      O23497   4.403   8.825   4.804
 7752WAT     H123498   4.325   8.860   4.752
 7752WAT     H223499   4.427   8.734   4.772
 7753WAT      O23500   5.154   5.726   9.058
 7753WAT     H123501   5.084   5.667   9.016
 7753WAT     H223502   5.113   5.778   9.132
 7754WAT      O23503   0.930   5.979   9.290
 7754WAT     H123504   0.975   6.044   9.351
 7754WAT     H223505   0.834   6.004   9.278
 7755WAT      O23506   1.818   5.174   7.763
 7755WAT     H123507   1.723   5.156   7.790
 7755WAT     H223508   1.869   5.088   7.762
 7756WAT      O23509   6.643   5.421   0.182
 7756WAT     H123510   6.699   5.463   0.254
 7756WAT     H223511   6.598   5.340   0.219
 7757WAT      O23512   5.349   1.980   4.840
 7757WAT     H123513   5.310   2.003   4.750
 7757WAT     H223514   5.342   1.882   4.855
 7758WAT      O23515   8.889   3.350   4.208
 7758WAT     H123516   8.857   3.314   4.295
 7758WAT     H223517   8.946   3.431   4.223
 7759WAT      O23518   0.719   7.565   9.246
 7759WAT     H123519   0.750   7.614   9.327
 7759WAT     H223520   0.798   7.538   9.191
 7760WAT      O23521   0.302   2.414   0.543
 7760WAT     H123522   0.336   2.484   0.480
 7760WAT     H223523   0.250   2.345   0.491
 7761WAT      O23524   5.195   5.026   0.026
 7761WAT     H123525   5.276   4.999  -0.025
 7761WAT     H223526   5.222   5.081   0.105
 7762WAT      O23527   6.270   3.887   9.157
 7762WAT     H123528   6.184   3.842   9.180
 7762WAT     H223529   6.253   3.982   9.130
 7763WAT      O23530   0.873   8.548   9.204
 7763WAT     H123531   0.927   8.603   9.267
 7763WAT     H223532   0.797   8.506   9.253
 7764WAT      O23533   9.093   3.103   8.282
 7764WAT     H123534   9.177   3.089   8.229
 7764WAT     H223535   9.090   3.198   8.314
 7765WAT      O23536   8.311   6.183   9.348
 7765WAT     H123537   8.342   6.116   9.415
 7765WAT     H223538   8.343   6.274   9.375
 7766WAT      O23539   4.368   8.599   6.070
 7766WAT     H123540   4.280   8.596   6.116
 7766WAT     H223541   4.437   8.555   6.127
 7767WAT      O23542   6.774   7.559   8.504
 7767WAT     H123543   6.774   7.529   8.408
 7767WAT     H223544   6.791   7.658   8.508
 7768WAT      O23545   1.235   8.253   5.990
 7768WAT     H123546   1.143   8.218   6.005
 7768WAT     H223547   1.231   8.352   5.975
 7769WAT      O23548   4.785   0.523   6.001
 7769WAT     H123549   4.749   0.490   6.088
 7769WAT     H223550   4.829   0.448   5.952
 7770WAT      O23551   9.137   2.587   3.330
 7770WAT     H123552   9.097   2.551   3.414
 7770WAT     H223553   9.151   2.686   3.340
 7771WAT      O23554   6.961   5.463   3.302
 7771WAT     H123555   6.873   5.501   3.275
 7771WAT     H223556   7.012   5.532   3.353
 7772WAT      O23557   6.052   9.429   0.293
 7772WAT     H123558   6.067   9.417   0.195
 7772WAT     H223559   6.083   9.347   0.341
 7773WAT      O23560   1.281   0.085   6.142
 7773WAT     H123561   1.222   0.161   6.170
 7773WAT     H223562   1.326   0.108   6.056
 7774WAT      O23563   4.956   8.616   4.706
 7774WAT     H123564   5.021   8.546   4.677
 7774WAT     H223565   5.005   8.699   4.732
 7775WAT      O23566   8.835   9.200   9.859
 7775WAT     H123567   8.755   9.149   9.827
 7775WAT     H223568   8.900   9.210   9.783
 7776WAT      O23569   5.100   0.723   6.227
 7776WAT     H123570   5.053   0.694   6.144
 7776WAT     H223571   5.091   0.822   6.239
 7777WAT      O23572   9.657   2.271   9.008
 7777WAT     H123573   9.659   2.186   8.956
 7777WAT     H223574   9.744   2.320   8.995
 7778WAT      O23575   3.165   0.803   6.283
 7778WAT     H123576   3.170   0.754   6.196
 7778WAT     H223577   3.242   0.867   6.290
 7779WAT      O23578   8.207   1.683   5.679
 7779WAT     H123579   8.170   1.719   5.765
 7779WAT     H223580   8.217   1.758   5.613
 7780WAT      O23581   3.094   8.657   5.263
 7780WAT     H123582   3.107   8.692   5.171
 7780WAT     H223583   3.158   8.582   5.280
 7781WAT      O23584   6.866   2.097   7.074
 7781WAT     H123585   6.786   2.154   7.092
 7781WAT     H223586   6.903   2.064   7.160
 7782WAT      O23587   9.134   2.352   8.696
 7782WAT     H123588   9.189   2.412   8.639
 7782WAT     H223589   9.184   2.331   8.780
 7783WAT      O23590   6.618   1.437   9.062
 7783WAT     H123591   6.656   1.358   9.111
 7783WAT     H223592   6.585   1.504   9.129
 7784WAT      O23593   3.501   6.241   0.925
 7784WAT     H123594   3.583   6.223   0.980
 7784WAT     H223595   3.456   6.324   0.958
 7785WAT      O23596   0.750   3.648   8.672
 7785WAT     H123597   0.738   3.737   8.628
 7785WAT     H223598   0.795   3.586   8.608
 7786WAT      O23599   6.892   4.258   1.098
 7786WAT     H123600   6.964   4.193   1.122
 7786WAT     H223601   6.871   4.315   1.177
 7787WAT      O23602   9.597   8.895   7.661
 7787WAT     H123603   9.565   8.987   7.638
 7787WAT     H223604   9.521   8.830   7.650
 7788WAT      O23605   0.581   2.556   3.400
 7788WAT     H123606   0.495   2.596   3.433
 7788WAT     H223607   0.583   2.459   3.423
 7789WAT      O23608   5.155   5.009   8.361
 7789WAT     H123609   5.103   4.956   8.427
 7789WAT     H223610   5.105   5.092   8.338
 7790WAT      O23611   5.347   1.407   3.232
 7790WAT     H123612   5.419   1.391   3.164
 7790WAT     H223613   5.257   1.401   3.188
 7791WAT      O23614   2.329   9.348   9.322
 7791WAT     H123615   2.310   9.444   9.305
 7791WAT     H223616   2.246   9.294   9.307
 7792WAT      O23617   8.575   7.554   1.101
 7792WAT     H123618   8.620   7.639   1.129
 7792WAT     H223619   8.536   7.509   1.181
 7793WAT      O23620   9.425   1.100   9.406
 7793WAT     H123621   9.337   1.146   9.400
 7793WAT     H223622   9.451   1.065   9.315
 7794WAT      O23623   2.251   4.923   4.522
 7794WAT     H123624   2.188   4.874   4.583
 7794WAT     H223625   2.344   4.887   4.534
 7795WAT      O23626   8.572   4.186   7.661
 7795WAT     H123627   8.496   4.224   7.608
 7795WAT     H223628   8.554   4.201   7.759
 7796WAT      O23629   2.367   4.743   0.022
 7796WAT     H123630   2.359   4.842   0.033
 7796WAT     H223631   2.291   4.709  -0.033
 7797WAT      O23632   9.854   7.170   1.644
 7797WAT     H123633   9.922   7.113   1.691
 7797WAT     H223634   9.820   7.122   1.564
 7798WAT      O23635   9.607   3.371   4.979
 7798WAT     H123636   9.535   3.380   5.048
 7798WAT     H223637   9.674   3.445   4.991
 7799WAT      O23638   7.858   3.606   9.783
 7799WAT     H123639   7.868   3.531   9.718
 7799WAT     H223640   7.765   3.641   9.781
 7800WAT      O23641   5.900   3.268   7.396
 7800WAT     H123642   5.927   3.355   7.356
 7800WAT     H223643   5.966   3.198   7.371
 7801WAT      O23644   8.283   6.205   5.035
 7801WAT     H123645   8.331   6.120   5.059
 7801WAT     H223646   8.282   6.215   4.936
 7802WAT      O23647   3.135   6.957   8.602
 7802WAT     H123648   3.106   7.027   8.667
 7802WAT     H223649   3.211   6.993   8.546
 7803WAT      O23650   4.038   0.471   7.324
 7803WAT     H123651   4.034   0.567   7.354
 7803WAT     H223652   4.009   0.465   7.229
 7804WAT      O23653   2.469   2.062   5.394
 7804WAT     H123654   2.450   1.996   5.322
 7804WAT     H223655   2.384   2.095   5.434
 7805WAT      O23656   4.820   1.506   6.561
 7805WAT     H123657   4.775   1.511   6.651
 7805WAT     H223658   4.751   1.498   6.490
 7806WAT      O23659   5.127   4.381   0.789
 7806WAT     H123660   5.205   4.326   0.820
 7806WAT     H223661   5.053   4.373   0.856
 7807WAT      O23662   2.827   7.922   5.327
 7807WAT     H123663   2.853   8.018   5.321
 7807WAT     H223664   2.893   7.867   5.276
 7808WAT      O23665   6.547   7.330   4.623
 7808WAT     H123666   6.550   7.402   4.554
 7808WAT     H223667   6.591   7.362   4.707
 7809WAT      O23668   5.064   3.216   6.686
 7809WAT     H123669   5.125   3.151   6.732
 7809WAT     H223670   5.009   3.264   6.755
 7810WAT      O23671   6.375   4.319   6.025
 7810WAT     H123672   6.349   4.354   6.115
 7810WAT     H223673   6.309   4.251   5.995
 7811WAT      O23674   3.829   8.295   2.797
 7811WAT     H123675   3.839   8.200   2.768
 7811WAT     H223676   3.748   8.335   2.753
 7812WAT      O23677   7.470   8.425   0.787
 7812WAT     H123678   7.570   8.421   0.787
 7812WAT     H223679   7.438   8.464   0.873
 7813WAT      O23680   0.008   8.775   5.228
 7813WAT     H123681  -0.083   8.793   5.189
 7813WAT     H223682   0.031   8.848   5.293
 7814WAT      O23683   5.349   0.515   3.404
 7814WAT     H123684   5.265   0.462   3.414
 7814WAT     H223685   5.348   0.564   3.317
 7815WAT      O23686   9.525   2.956   9.431
 7815WAT     H123687   9.472   3.020   9.485
 7815WAT     H223688   9.600   2.919   9.485
 7816WAT      O23689   8.615   4.305   6.000
 7816WAT     H123690   8.572   4.394   6.013
 7816WAT     H223691   8.578   4.263   5.917
 7817WAT      O23692   5.372   9.159   1.535
 7817WAT     H123693   5.438   9.085   1.522
 7817WAT     H223694   5.281   9.128   1.508
 7818WAT      O23695   5.439   2.173   6.053
 7818WAT     H123696   5.408   2.102   5.990
 7818WAT     H223697   5.377   2.251   6.048
 7819WAT      O23698   2.790   2.359   7.703
 7819WAT     H123699   2.857   2.353   7.629
 7819WAT     H223700   2.703   2.394   7.667
 7820WAT      O23701   4.966   1.518   8.083
 7820WAT     H123702   5.036   1.452   8.111
 7820WAT     H223703   5.010   1.603   8.055
 7821WAT      O23704   5.599   0.866   1.155
 7821WAT     H123705   5.499   0.867   1.144
 7821WAT     H223706   5.623   0.802   1.228
 7822WAT      O23707   4.887   6.470   4.635
 7822WAT     H123708   4.915   6.463   4.731
 7822WAT     H223709   4.826   6.395   4.613
 7823WAT      O23710   6.934   6.095   9.235
 7823WAT     H123711   6.981   6.159   9.173
 7823WAT     H223712   6.867   6.042   9.183
 7824WAT      O23713   7.741   0.755   6.481
 7824WAT     H123714   7.793   0.675   6.452
 7824WAT     H223715   7.803   0.821   6.525
 7825WAT      O23716   2.546   9.307   6.375
 7825WAT     H123717   2.472   9.365   6.410
 7825WAT     H223718   2.556   9.322   6.277
 7826WAT      O23719   6.992   8.910   1.921
 7826WAT     H123720   6.992   8.890   1.823
 7826WAT     H223721   7.008   9.007   1.935
 7827WAT      O23722   2.047   2.157   7.091
 7827WAT     H123723   1.995   2.238   7.117
 7827WAT     H223724   2.140   2.163   7.127
 7828WAT      O23725   5.147   3.686   0.926
 7828WAT     H123726   5.208   3.716   0.852
 7828WAT     H223727   5.177   3.725   1.013
 7829WAT      O23728   4.133   9.206   6.741
 7829WAT     H123729   4.050   9.163   6.706
 7829WAT     H223730   4.211   9.146   6.726
 7830WAT      O23731   8.802   9.282   0.921
 7830WAT     H123732   8.789   9.290   1.020
 7830WAT     H223733   8.815   9.372   0.881
 7831WAT      O23734   1.256   8.749   8.274
 7831WAT     H123735   1.287   8.838   8.307
 7831WAT     H223736   1.335   8.691   8.253
 7832WAT      O23737   8.935   8.484   7.540
 7832WAT     H123738   8.898   8.573   7.566
 7832WAT     H223739   8.959   8.433   7.623
 7833WAT      O23740   8.906   3.244   5.102
 7833WAT     H123741   8.886   3.152   5.137
 7833WAT     H223742   8.864   3.312   5.162
 7834WAT      O23743   7.013   4.657   0.195
 7834WAT     H123744   7.026   4.581   0.130
 7834WAT     H223745   7.095   4.667   0.251
 7835WAT      O23746   2.935   0.335   9.683
 7835WAT     H123747   2.920   0.405   9.614
 7835WAT     H223748   2.870   0.349   9.758
 7836WAT      O23749   4.863   4.683   2.211
 7836WAT     H123750   4.932   4.725   2.270
 7836WAT     H223751   4.879   4.585   2.206
 7837WAT      O23752   8.425   1.338   8.930
 7837WAT     H123753   8.438   1.435   8.909
 7837WAT     H223754   8.332   1.311   8.907
 7838WAT      O23755   2.427   4.126   5.862
 7838WAT     H123756   2.443   4.065   5.939
 7838WAT     H223757   2.380   4.209   5.895
 7839WAT      O23758   2.085   6.715   5.063
 7839WAT     H123759   2.133   6.655   4.999
 7839WAT     H223760   1.999   6.745   5.022
 7840WAT      O23761   4.152   4.692   1.894
 7840WAT     H123762   4.209   4.774   1.891
 7840WAT     H223763   4.099   4.692   1.979
 7841WAT      O23764   5.311   5.065   3.607
 7841WAT     H123765   5.360   4.988   3.648
 7841WAT     H223766   5.374   5.141   3.591
 7842WAT      O23767   2.320   0.556   2.406
 7842WAT     H123768   2.308   0.654   2.391
 7842WAT     H223769   2.402   0.540   2.460
 7843WAT      O23770   3.769   0.083   2.348
 7843WAT     H123771   3.721   0.045   2.269
 7843WAT     H223772   3.860   0.114   2.320
 7844WAT      O23773   9.644   6.686   0.432
 7844WAT     H123774   9.617   6.596   0.468
 7844WAT     H223775   9.611   6.696   0.339
 7845WAT      O23776   6.390   1.590   3.712
 7845WAT     H123777   6.396   1.491   3.719
 7845WAT     H223778   6.479   1.631   3.731
 7846WAT      O23779   5.745   6.652   9.372
 7846WAT     H123780   5.835   6.626   9.339
 7846WAT     H223781   5.689   6.570   9.385
 7847WAT      O23782   3.793   0.674   4.363
 7847WAT     H123783   3.794   0.607   4.289
 7847WAT     H223784   3.703   0.717   4.368
 7848WAT      O23785   2.085   9.253   3.673
 7848WAT     H123786   1.995   9.281   3.705
 7848WAT     H223787   2.155   9.289   3.736
 7849WAT      O23788   4.524   3.304   3.829
 7849WAT     H123789   4.488   3.240   3.897
 7849WAT     H223790   4.547   3.254   3.746
 7850WAT      O23791   6.723   3.304   0.566
 7850WAT     H123792   6.763   3.395   0.554
 7850WAT     H223793   6.629   3.304   0.532
 7851WAT      O23794   3.357   1.226   2.097
 7851WAT     H123795   3.330   1.247   2.190
 7851WAT     H223796   3.437   1.165   2.098
 7852WAT      O23797   9.725   1.937   1.499
 7852WAT     H123798   9.675   2.019   1.470
 7852WAT     H223799   9.803   1.963   1.555
 7853WAT      O23800   0.636   0.944   4.373
 7853WAT     H123801   0.633   1.018   4.306
 7853WAT     H223802   0.730   0.910   4.381
 7854WAT      O23803   8.705   4.388   5.332
 7854WAT     H123804   8.682   4.333   5.413
 7854WAT     H223805   8.631   4.454   5.315
 7855WAT      O23806   6.310   5.740   3.476
 7855WAT     H123807   6.337   5.836   3.478
 7855WAT     H223808   6.211   5.733   3.484
 7856WAT      O23809   6.956   3.447   4.694
 7856WAT     H123810   6.859   3.469   4.698
 7856WAT     H223811   7.010   3.532   4.691
 7857WAT      O23812   7.391   1.149   1.075
 7857WAT     H123813   7.303   1.145   1.123
 7857WAT     H223814   7.458   1.196   1.131
 7858WAT      O23815   7.783   6.958   4.925
 7858WAT     H123816   7.862   6.922   4.974
 7858WAT     H223817   7.812   6.992   4.835
 7859WAT      O23818   8.171   4.874   0.054
 7859WAT     H123819   8.244   4.921   0.005
 7859WAT     H223820   8.174   4.899   0.151
 7860WAT      O23821   5.208   8.574   8.875
 7860WAT     H123822   5.120   8.544   8.839
 7860WAT     H223823   5.266   8.495   8.895
 7861WAT      O23824   8.694   2.956   8.444
 7861WAT     H123825   8.602   2.984   8.417
 7861WAT     H223826   8.753   3.036   8.449
 7862WAT      O23827   9.582   2.400   5.374
 7862WAT     H123828   9.488   2.426   5.351
 7862WAT     H223829   9.595   2.302   5.355
 7863WAT      O23830   5.096   9.084   8.044
 7863WAT     H123831   5.047   9.172   8.042
 7863WAT     H223832   5.180   9.092   7.990
 7864WAT      O23833   5.326   0.337   9.138
 7864WAT     H123834   5.378   0.412   9.097
 7864WAT     H223835   5.372   0.250   9.118
 7865WAT      O23836   7.691   0.218   8.954
 7865WAT     H123837   7.714   0.201   9.050
 7865WAT     H223838   7.682   0.130   8.907
 7866WAT      O23839   4.189   7.071   1.590
 7866WAT     H123840   4.199   7.007   1.667
 7866WAT     H223841   4.255   7.145   1.600
 7867WAT      O23842   5.822   5.741   3.135
 7867WAT     H123843   5.899   5.774   3.080
 7867WAT     H223844   5.742   5.799   3.118
 7868WAT      O23845   8.817   0.175   4.352
 7868WAT     H123846   8.718   0.168   4.364
 7868WAT     H223847   8.849   0.096   4.300
 7869WAT      O23848   5.027   3.751   6.233
 7869WAT     H123849   4.976   3.835   6.249
 7869WAT     H223850   5.114   3.773   6.189
 7870WAT      O23851   4.992   6.041   4.635
 7870WAT     H123852   4.910   6.032   4.691
 7870WAT     H223853   5.001   6.136   4.604
 7871WAT      O23854   6.719   4.259   3.286
 7871WAT     H123855   6.632   4.222   3.253
 7871WAT     H223856   6.785   4.185   3.295
 7872WAT      O23857   1.550   4.552   4.978
 7872WAT     H123858   1.510   4.463   5.000
 7872WAT     H223859   1.634   4.539   4.926
 7873WAT      O23860   3.716   8.718   3.315
 7873WAT     H123861   3.727   8.701   3.412
 7873WAT     H223862   3.799   8.690   3.266
 7874WAT      O23863   0.998   0.107   6.414
 7874WAT     H123864   1.041   0.017   6.422
 7874WAT     H223865   1.017   0.160   6.497
 7875WAT      O23866   9.346   6.641   7.248
 7875WAT     H123867   9.416   6.573   7.267
 7875WAT     H223868   9.300   6.667   7.333
 7876WAT      O23869   2.209   1.185   2.591
 7876WAT     H123870   2.141   1.137   2.535
 7876WAT     H223871   2.287   1.125   2.607
 7877WAT      O23872   1.142   4.914   2.277
 7877WAT     H123873   1.228   4.885   2.319
 7877WAT     H223874   1.090   4.834   2.247
 7878WAT      O23875   7.694   5.398   1.013
 7878WAT     H123876   7.608   5.350   0.993
 7878WAT     H223877   7.744   5.413   0.927
 7879WAT      O23878   6.689   8.666   1.460
 7879WAT     H123879   6.629   8.746   1.457
 7879WAT     H223880   6.737   8.664   1.548
 7880WAT      O23881   5.828   2.418   0.757
 7880WAT     H123882   5.824   2.341   0.820
 7880WAT     H223883   5.923   2.444   0.741
 7881WAT      O23884   3.042   8.439   9.003
 7881WAT     H123885   3.002   8.351   8.979
 7881WAT     H223886   2.992   8.480   9.079
 7882WAT      O23887   7.972   6.070   2.582
 7882WAT     H123888   8.012   6.027   2.663
 7882WAT     H223889   7.898   6.132   2.609
 7883WAT      O23890   6.291   5.765   0.866
 7883WAT     H123891   6.292   5.728   0.959
 7883WAT     H223892   6.203   5.808   0.848
 7884WAT      O23893   5.934   1.072   8.752
 7884WAT     H123894   5.980   1.040   8.670
 7884WAT     H223895   5.990   1.142   8.797
 7885WAT      O23896   2.579   0.891   1.612
 7885WAT     H123897   2.612   0.887   1.517
 7885WAT     H223898   2.568   0.986   1.639
 7886WAT      O23899   1.506   7.666   6.294
 7886WAT     H123900   1.485   7.712   6.207
 7886WAT     H223901   1.424   7.665   6.351
 7887WAT      O23902   2.889   5.468   4.933
 7887WAT     H123903   2.810   5.520   4.967
 7887WAT     H223904   2.929   5.417   5.009
 7888WAT      O23905   6.737   3.929   0.913
 7888WAT     H123906   6.647   3.935   0.955
 7888WAT     H223907   6.771   3.835   0.920
 7889WAT      O23908   1.794   0.571   9.821
 7889WAT     H123909   1.736   0.574   9.740
 7889WAT     H223910   1.741   0.534   9.898
 7890WAT      O23911   4.211   1.956   9.486
 7890WAT     H123912   4.199   1.860   9.460
 7890WAT     H223913   4.128   2.007   9.464
 7891WAT      O23914   5.285   6.379   0.796
 7891WAT     H123915   5.215   6.420   0.853
 7891WAT     H223916   5.308   6.442   0.721
 7892WAT      O23917   0.582   9.193   2.758
 7892WAT     H123918   0.586   9.156   2.666
 7892WAT     H223919   0.671   9.185   2.802
 7893WAT      O23920   2.541   2.480   1.877
 7893WAT     H123921   2.571   2.395   1.834
 7893WAT     H223922   2.457   2.513   1.831
 7894WAT      O23923   2.619   7.742   5.915
 7894WAT     H123924   2.696   7.690   5.953
 7894WAT     H223925   2.652   7.829   5.879
 7895WAT      O23926   2.781   3.397   7.387
 7895WAT     H123927   2.720   3.406   7.308
 7895WAT     H223928   2.743   3.329   7.450
 7896WAT      O23929   5.691   3.632   8.283
 7896WAT     H123930   5.613   3.572   8.305
 7896WAT     H223931   5.683   3.664   8.189
 7897WAT      O23932   5.938   2.940   9.722
 7897WAT     H123933   5.855   2.901   9.682
 7897WAT     H223934   6.013   2.932   9.656
 7898WAT      O23935   6.518   9.108   2.919
 7898WAT     H123936   6.606   9.062   2.924
 7898WAT     H223937   6.532   9.207   2.921
 7899WAT      O23938   7.592   4.420   0.700
 7899WAT     H123939   7.689   4.432   0.680
 7899WAT     H223940   7.561   4.332   0.663
 7900WAT      O23941   5.599   0.502   3.791
 7900WAT     H123942   5.523   0.453   3.750
 7900WAT     H223943   5.665   0.528   3.720
 7901WAT      O23944   5.615   0.745   6.412
 7901WAT     H123945   5.598   0.834   6.370
 7901WAT     H223946   5.533   0.688   6.405
 7902WAT      O23947   1.114   4.556   9.033
 7902WAT     H123948   1.194   4.611   9.057
 7902WAT     H223949   1.081   4.507   9.115
 7903WAT      O23950   2.715   9.149   6.720
 7903WAT     H123951   2.732   9.159   6.622
 7903WAT     H223952   2.797   9.113   6.764
 7904WAT      O23953   0.297   7.091   9.285
 7904WAT     H123954   0.280   7.131   9.194
 7904WAT     H223955   0.282   7.161   9.355
 7905WAT      O23956   2.815   6.062   1.708
 7905WAT     H123957   2.739   6.121   1.736
 7905WAT     H223958   2.825   5.987   1.774
 7906WAT      O23959   8.992   9.341   1.818
 7906WAT     H123960   9.057   9.307   1.751
 7906WAT     H223961   8.914   9.279   1.824
 7907WAT      O23962   9.848   6.143   1.364
 7907WAT     H123963   9.843   6.173   1.459
 7907WAT     H223964   9.933   6.178   1.323
 7908WAT      O23965   2.793   8.597   4.487
 7908WAT     H123966   2.883   8.640   4.483
 7908WAT     H223967   2.750   8.600   4.397
 7909WAT      O23968   5.332   8.966   0.820
 7909WAT     H123969   5.347   9.034   0.892
 7909WAT     H223970   5.371   8.879   0.848
 7910WAT      O23971   4.234   1.998   2.926
 7910WAT     H123972   4.188   1.924   2.877
 7910WAT     H223973   4.184   2.019   3.010
 7911WAT      O23974   4.433   1.609   8.523
 7911WAT     H123975   4.511   1.670   8.539
 7911WAT     H223976   4.409   1.611   8.426
 7912WAT      O23977   3.648   3.823   9.263
 7912WAT     H123978   3.741   3.831   9.226
 7912WAT     H223979   3.584   3.873   9.204
 7913WAT      O23980   9.715   6.399   7.527
 7913WAT     H123981   9.705   6.303   7.553
 7913WAT     H223982   9.624   6.437   7.508
 7914WAT      O23983   8.813   9.233   9.108
 7914WAT     H123984   8.892   9.256   9.164
 7914WAT     H223985   8.760   9.160   9.152
 7915WAT      O23986   4.011   6.772   3.616
 7915WAT     H123987   4.011   6.872   3.625
 7915WAT     H223988   4.062   6.746   3.535
 7916WAT      O23989   1.968   6.588   8.175
 7916WAT     H123990   1.971   6.488   8.167
 7916WAT     H223991   1.959   6.613   8.271
 7917WAT      O23992   8.183   3.401   9.845
 7917WAT     H123993   8.174   3.305   9.873
 7917WAT     H223994   8.140   3.460   9.914
 7918WAT      O23995   7.593   2.930   2.590
 7918WAT     H123996   7.606   3.027   2.570
 7918WAT     H223997   7.677   2.892   2.626
 7919WAT      O23998   7.907   0.692   2.762
 7919WAT     H123999   7.902   0.746   2.846
 7919WAT     H224000   7.825   0.635   2.754
 7920WAT      O24001   6.518   5.880   2.611
 7920WAT     H124002   6.616   5.888   2.594
 7920WAT     H224003   6.479   5.812   2.549
 7921WAT      O24004   9.677   4.682   8.813
 7921WAT     H124005   9.671   4.764   8.756
 7921WAT     H224006   9.773   4.664   8.834
 7922WAT      O24007   0.987   8.166   3.183
 7922WAT     H124008   1.057   8.237   3.186
 7922WAT     H224009   0.969   8.133   3.276
 7923WAT      O24010   7.533   1.270   6.428
 7923WAT     H124011   7.596   1.206   6.472
 7923WAT     H224012   7.584   1.344   6.385
 7924WAT      O24013   4.710   7.576   4.821
 7924WAT     H124014   4.776   7.502   4.819
 7924WAT     H224015   4.623   7.546   4.781
 7925WAT      O24016   3.039   5.141   2.968
 7925WAT     H124017   3.117   5.202   2.956
 7925WAT     H224018   3.063   5.049   2.935
 7926WAT      O24019   8.148   2.091   6.466
 7926WAT     H124020   8.166   2.151   6.388
 7926WAT     H224021   8.057   2.112   6.504
 7927WAT      O24022   6.831   7.730   2.959
 7927WAT     H124023   6.764   7.699   2.891
 7927WAT     H224024   6.827   7.671   3.039
 7928WAT      O24025   5.285   7.841   7.576
 7928WAT     H124026   5.371   7.802   7.545
 7928WAT     H224027   5.253   7.908   7.508
 7929WAT      O24028   0.728   8.441   8.826
 7929WAT     H124029   0.764   8.533   8.841
 7929WAT     H224030   0.798   8.373   8.845
 7930WAT      O24031   7.969   6.887   7.278
 7930WAT     H124032   7.974   6.955   7.351
 7930WAT     H224033   8.038   6.906   7.209
 7931WAT      O24034   7.801   6.358   7.980
 7931WAT     H124035   7.777   6.295   8.054
 7931WAT     H224036   7.803   6.308   7.893
 7932WAT      O24037   7.122   5.256   4.441
 7932WAT     H124038   7.039   5.310   4.452
 7932WAT     H224039   7.130   5.191   4.516
 7933WAT      O24040   8.964   6.525   0.652
 7933WAT     H124041   8.925   6.550   0.741
 7933WAT     H224042   9.060   6.501   0.663
 7934WAT      O24043   2.289   6.663   4.119
 7934WAT     H124044   2.340   6.637   4.037
 7934WAT     H224045   2.245   6.752   4.105
 7935WAT      O24046   4.308   8.831   9.770
 7935WAT     H124047   4.338   8.909   9.716
 7935WAT     H224048   4.387   8.780   9.804
 7936WAT      O24049   4.247   3.473   6.406
 7936WAT     H124050   4.249   3.533   6.325
 7936WAT     H224051   4.217   3.382   6.378
 7937WAT      O24052   4.766   2.277   9.601
 7937WAT     H124053   4.697   2.312   9.537
 7937WAT     H224054   4.725   2.207   9.660
 7938WAT      O24055   5.818   9.209   1.749
 7938WAT     H124056   5.763   9.145   1.802
 7938WAT     H224057   5.914   9.181   1.751
 7939WAT      O24058   5.131   1.049   7.455
 7939WAT     H124059   5.144   1.140   7.495
 7939WAT     H224060   5.092   0.988   7.524
 7940WAT      O24061   7.162   4.818   6.468
 7940WAT     H124062   7.220   4.888   6.425
 7940WAT     H224063   7.154   4.739   6.408
 7941WAT      O24064   7.218   7.252   3.978
 7941WAT     H124065   7.290   7.302   4.027
 7941WAT     H224066   7.173   7.189   4.041
 7942WAT      O24067   4.768   0.493   5.210
 7942WAT     H124068   4.703   0.499   5.285
 7942WAT     H224069   4.854   0.454   5.243
 7943WAT      O24070   6.099   9.272   8.110
 7943WAT     H124071   6.125   9.366   8.132
 7943WAT     H224072   6.180   9.213   8.111
 7944WAT      O24073   1.567   6.517   0.862
 7944WAT     H124074   1.513   6.599   0.841
 7944WAT     H224075   1.505   6.440   0.880
 7945WAT      O24076   3.011   6.616   3.282
 7945WAT     H124077   3.055   6.558   3.214
 7945WAT     H224078   3.042   6.590   3.374
 7946WAT      O24079   3.214   3.552   3.673
 7946WAT     H124080   3.157   3.629   3.646
 7946WAT     H224081   3.263   3.574   3.757
 7947WAT      O24082   3.586   5.778   6.906
 7947WAT     H124083   3.662   5.736   6.956
 7947WAT     H224084   3.604   5.774   6.808
 7948WAT      O24085   5.632   7.511   1.742
 7948WAT     H124086   5.639   7.413   1.723
 7948WAT     H224087   5.711   7.540   1.796
 7949WAT      O24088   1.977   7.661   5.204
 7949WAT     H124089   1.899   7.600   5.190
 7949WAT     H224090   2.004   7.701   5.116
 7950WAT      O24091   0.604   2.688   0.716
 7950WAT     H124092   0.537   2.670   0.645
 7950WAT     H224093   0.595   2.783   0.747
 7951WAT      O24094   4.074   7.609   3.330
 7951WAT     H124095   4.060   7.544   3.256
 7951WAT     H224096   3.989   7.622   3.381
 7952WAT      O24097   9.078   8.140   5.940
 7952WAT     H124098   9.097   8.215   5.877
 7952WAT     H224099   9.072   8.054   5.890
 7953WAT      O24100   4.096   4.958   9.469
 7953WAT     H124101   4.155   5.025   9.515
 7953WAT     H224102   4.115   4.867   9.506
 7954WAT      O24103   1.067   7.422   1.925
 7954WAT     H124104   1.141   7.356   1.930
 7954WAT     H224105   1.102   7.508   1.888
 7955WAT      O24106   1.246   3.300   1.593
 7955WAT     H124107   1.252   3.328   1.497
 7955WAT     H224108   1.261   3.202   1.600
 7956WAT      O24109   3.724   7.527   2.842
 7956WAT     H124110   3.693   7.432   2.831
 7956WAT     H224111   3.729   7.550   2.939
 7957WAT      O24112   7.193   5.010   0.615
 7957WAT     H124113   7.201   5.109   0.625
 7957WAT     H224114   7.191   4.986   0.518
 7958WAT      O24115   5.933   0.832   3.949
 7958WAT     H124116   5.991   0.905   3.985
 7958WAT     H224117   5.967   0.805   3.859
 7959WAT      O24118   4.204   7.142   0.683
 7959WAT     H124119   4.285   7.199   0.668
 7959WAT     H224120   4.128   7.198   0.716
 7960WAT      O24121   2.448   3.841   4.822
 7960WAT     H124122   2.400   3.795   4.896
 7960WAT     H224123   2.531   3.885   4.857
 7961WAT      O24124   1.278   5.330   8.816
 7961WAT     H124125   1.204   5.265   8.801
 7961WAT     H224126   1.246   5.405   8.873
 7962WAT      O24127   7.139   8.083   0.471
 7962WAT     H124128   7.182   7.998   0.439
 7962WAT     H224129   7.050   8.062   0.511
 7963WAT      O24130   9.349   9.319   6.621
 7963WAT     H124131   9.352   9.395   6.557
 7963WAT     H224132   9.424   9.256   6.601
 7964WAT      O24133   0.185   2.767   8.808
 7964WAT     H124134   0.122   2.764   8.731
 7964WAT     H224135   0.173   2.853   8.858
 7965WAT      O24136   2.559   9.584   3.433
 7965WAT     H124137   2.515   9.510   3.382
 7965WAT     H224138   2.625   9.545   3.498
 7966WAT      O24139   9.572   3.998   8.760
 7966WAT     H124140   9.551   4.058   8.837
 7966WAT     H224141   9.665   3.963   8.769
 7967WAT      O24142   8.572   0.065   0.610
 7967WAT     H124143   8.492   0.095   0.559
 7967WAT     H224144   8.544   0.023   0.696
 7968WAT      O24145   3.064   8.224   9.469
 7968WAT     H124146   3.126   8.164   9.418
 7968WAT     H224147   2.969   8.206   9.442
 7969WAT      O24148   8.309   4.611   7.425
 7969WAT     H124149   8.314   4.516   7.457
 7969WAT     H224150   8.214   4.642   7.430
 7970WAT      O24151   1.625   5.667   8.286
 7970WAT     H124152   1.683   5.602   8.337
 7970WAT     H224153   1.529   5.645   8.301
 7971WAT      O24154   7.207   7.530   4.342
 7971WAT     H124155   7.217   7.434   4.313
 7971WAT     H224156   7.232   7.538   4.438
 7972WAT      O24157   5.212   0.833   9.227
 7972WAT     H124158   5.302   0.788   9.227
 7972WAT     H224159   5.152   0.788   9.293
 7973WAT      O24160   4.053   1.199   5.876
 7973WAT     H124161   4.058   1.287   5.922
 7973WAT     H224162   3.968   1.153   5.902
 7974WAT      O24163   6.479   2.547   7.751
 7974WAT     H124164   6.487   2.498   7.838
 7974WAT     H224165   6.383   2.571   7.735
 7975WAT      O24166   8.180   6.452   3.884
 7975WAT     H124167   8.172   6.421   3.789
 7975WAT     H224168   8.255   6.518   3.891
 7976WAT      O24169   0.069   8.026   1.259
 7976WAT     H124170   0.085   8.048   1.162
 7976WAT     H224171  -0.006   8.083   1.293
 7977WAT      O24172   6.681   1.590   9.561
 7977WAT     H124173   6.596   1.640   9.576
 7977WAT     H224174   6.756   1.637   9.607
 7978WAT      O24175   3.292   0.365   1.313
 7978WAT     H124176   3.264   0.319   1.229
 7978WAT     H224177   3.229   0.440   1.333
 7979WAT      O24178   4.358   6.978   4.163
 7979WAT     H124179   4.404   6.906   4.112
 7979WAT     H224180   4.412   7.062   4.159
 7980WAT      O24181   8.105   1.978   8.613
 7980WAT     H124182   8.132   2.034   8.692
 7980WAT     H224183   8.103   2.035   8.531
 7981WAT      O24184   4.085   3.169   5.492
 7981WAT     H124185   4.180   3.140   5.490
 7981WAT     H224186   4.027   3.099   5.451
 7982WAT      O24187   3.626   4.908   6.905
 7982WAT     H124188   3.567   4.902   6.825
 7982WAT     H224189   3.695   4.836   6.901
 7983WAT      O24190   6.266   6.579   2.610
 7983WAT     H124191   6.317   6.518   2.672
 7983WAT     H224192   6.169   6.557   2.614
 7984WAT      O24193   5.650   3.963   6.504
 7984WAT     H124194   5.577   3.926   6.447
 7984WAT     H224195   5.610   3.999   6.588
 7985WAT      O24196   4.904   6.678   4.449
 7985WAT     H124197   5.001   6.697   4.440
 7985WAT     H224198   4.892   6.587   4.491
 7986WAT      O24199   5.839   6.019   6.647
 7986WAT     H124200   5.786   5.978   6.721
 7986WAT     H224201   5.851   5.953   6.573
 7987WAT      O24202   3.829   7.586   3.472
 7987WAT     H124203   3.734   7.578   3.440
 7987WAT     H224204   3.830   7.597   3.571
 7988WAT      O24205   5.198   5.625   3.599
 7988WAT     H124206   5.253   5.554   3.554
 7988WAT     H224207   5.101   5.603   3.586
 7989WAT      O24208   3.673   6.474   2.901
 7989WAT     H124209   3.632   6.499   2.814
 7989WAT     H224210   3.771   6.456   2.889
 7990WAT      O24211   9.455   8.370   0.305
 7990WAT     H124212   9.389   8.339   0.373
 7990WAT     H224213   9.486   8.463   0.328
 7991WAT      O24214   3.474   8.791   0.202
 7991WAT     H124215   3.484   8.783   0.301
 7991WAT     H224216   3.377   8.787   0.178
 7992WAT      O24217   9.400   5.387   4.296
 7992WAT     H124218   9.451   5.414   4.215
 7992WAT     H224219   9.413   5.454   4.368
 7993WAT      O24220   9.732   9.403   7.090
 7993WAT     H124221   9.754   9.455   7.172
 7993WAT     H224222   9.657   9.447   7.041
 7994WAT      O24223   5.981   1.135   9.426
 7994WAT     H124224   5.963   1.089   9.339
 7994WAT     H224225   6.058   1.197   9.416
 7995WAT      O24226   9.317   6.540   5.549
 7995WAT     H124227   9.385   6.595   5.596
 7995WAT     H224228   9.230   6.545   5.598
 7996WAT      O24229   2.378   4.639   5.770
 7996WAT     H124230   2.388   4.724   5.718
 7996WAT     H224231   2.303   4.585   5.731
 7997WAT      O24232   3.851   1.841   8.971
 7997WAT     H124233   3.799   1.845   8.885
 7997WAT     H224234   3.797   1.881   9.045
 7998WAT      O24235   4.176   7.703   8.396
 7998WAT     H124236   4.148   7.681   8.489
 7998WAT     H224237   4.112   7.661   8.331
 7999WAT      O24238   7.898   5.083   9.655
 7999WAT     H124239   7.915   5.177   9.684
 7999WAT     H224240   7.931   5.071   9.561
 8000WAT      O24241   4.532   5.836   0.504
 8000WAT     H124242   4.464   5.888   0.451
 8000WAT     H224243   4.613   5.893   0.518
 8001WAT      O24244   9.133   6.665   2.142
 8001WAT     H124245   9.163   6.570   2.136
 8001WAT     H224246   9.169   6.707   2.225
 8002WAT      O24247   7.297   4.936   6.728
 8002WAT     H124248   7.257   4.875   6.659
 8002WAT     H224249   7.345   4.882   6.797
 8003WAT      O24250   6.643   7.459   1.635
 8003WAT     H124251   6.571   7.423   1.576
 8003WAT     H224252   6.606   7.534   1.690
 8004WAT      O24253   2.060   4.714   2.923
 8004WAT     H124254   2.128   4.644   2.905
 8004WAT     H224255   1.968   4.677   2.906
 8005WAT      O24256   3.492   3.267   7.081
 8005WAT     H124257   3.540   3.355   7.082
 8005WAT     H224258   3.461   3.245   7.174
 8006WAT      O24259   9.280   8.721   2.584
 8006WAT     H124260   9.271   8.793   2.653
 8006WAT     H224261   9.226   8.642   2.611
 8007WAT      O24262   3.799   5.342   8.271
 8007WAT     H124263   3.755   5.335   8.360
 8007WAT     H224264   3.748   5.286   8.205
 8008WAT      O24265   9.420   0.128   8.736
 8008WAT     H124266   9.476   0.102   8.814
 8008WAT     H224267   9.474   0.182   8.672
 8009WAT      O24268   7.604   6.861   3.019
 8009WAT     H124269   7.592   6.762   3.027
 8009WAT     H224270   7.667   6.882   2.944
 8010WAT      O24271   9.680   0.357   7.089
 8010WAT     H124272   9.659   0.263   7.061
 8010WAT     H224273   9.601   0.415   7.071
 8011WAT      O24274   7.979   1.347   5.259
 8011WAT     H124275   7.881   1.352   5.240
 8011WAT     H224276   7.996   1.371   5.354
 8012WAT      O24277   9.779   6.107   8.170
 8012WAT     H124278   9.814   6.013   8.166
 8012WAT     H224279   9.691   6.111   8.121
 8013WAT      O24280   9.536   9.091   7.462
 8013WAT     H124281   9.462   9.131   7.409
 8013WAT     H224282   9.619   9.088   7.407
 8014WAT      O24283   8.449   3.847   2.806
 8014WAT     H124284   8.427   3.861   2.709
 8014WAT     H224285   8.436   3.933   2.855
 8015WAT      O24286   4.595   4.459   5.345
 8015WAT     H124287   4.684   4.492   5.314
 8015WAT     H224288   4.607   4.397   5.422
 8016WAT      O24289   9.503   8.394   9.631
 8016WAT     H124290   9.516   8.375   9.533
 8016WAT     H224291   9.530   8.314   9.684
 8017WAT      O24292   6.205   5.452   0.829
 8017WAT     H124293   6.112   5.445   0.793
 8017WAT     H224294   6.269   5.414   0.761
 8018WAT      O24295   3.956   3.625   7.708
 8018WAT     H124296   3.917   3.715   7.690
 8018WAT     H224297   4.056   3.629   7.696
 8019WAT      O24298   4.912   5.426   3.786
 8019WAT     H124299   4.925   5.491   3.711
 8019WAT     H224300   4.820   5.437   3.824
 8020WAT      O24301   8.718   1.652   9.376
 8020WAT     H124302   8.759   1.736   9.340
 8020WAT     H224303   8.627   1.640   9.337
 8021WAT      O24304   7.849   7.739   4.029
 8021WAT     H124305   7.821   7.668   3.964
 8021WAT     H224306   7.897   7.696   4.105
 8022WAT      O24307   6.878   5.436   4.195
 8022WAT     H124308   6.899   5.514   4.254
 8022WAT     H224309   6.834   5.468   4.112
 8023WAT      O24310   5.769   6.828   3.979
 8023WAT     H124311   5.785   6.745   4.032
 8023WAT     H224312   5.781   6.909   4.037
 8024WAT      O24313   4.544   5.983   5.489
 8024WAT     H124314   4.631   5.982   5.538
 8024WAT     H224315   4.483   6.052   5.528
 8025WAT      O24316   0.258   5.252   0.002
 8025WAT     H124317   0.276   5.343   0.039
 8025WAT     H224318   0.303   5.184   0.060
 8026WAT      O24319   0.354   2.331   9.585
 8026WAT     H124320   0.396   2.346   9.496
 8026WAT     H224321   0.409   2.376   9.656
 8027WAT      O24322   5.188   8.044   4.220
 8027WAT     H124323   5.149   8.008   4.135
 8027WAT     H224324   5.287   8.051   4.210
 8028WAT      O24325   7.751   3.743   8.810
 8028WAT     H124326   7.732   3.832   8.850
 8028WAT     H224327   7.669   3.709   8.763
 8029WAT      O24328   6.578   5.862   8.358
 8029WAT     H124329   6.657   5.921   8.341
 8029WAT     H224330   6.507   5.913   8.407
 8030WAT      O24331   2.529   0.879   7.601
 8030WAT     H124332   2.505   0.783   7.584
 8030WAT     H224333   2.583   0.885   7.685
 8031WAT      O24334   1.451   4.314   5.104
 8031WAT     H124335   1.429   4.227   5.059
 8031WAT     H224336   1.396   4.324   5.186
 8032WAT      O24337   7.075   5.809   1.722
 8032WAT     H124338   7.040   5.715   1.728
 8032WAT     H224339   7.092   5.844   1.814
 8033WAT      O24340   2.324   5.547   3.689
 8033WAT     H124341   2.358   5.460   3.653
 8033WAT     H224342   2.226   5.555   3.671
 8034WAT      O24343   7.778   4.600   6.117
 8034WAT     H124344   7.836   4.520   6.104
 8034WAT     H224345   7.720   4.611   6.036
 8035WAT      O24346   2.740   4.128   5.495
 8035WAT     H124347   2.809   4.200   5.493
 8035WAT     H224348   2.690   4.133   5.582
 8036WAT      O24349   0.257   4.275   2.050
 8036WAT     H124350   0.188   4.210   2.018
 8036WAT     H224351   0.279   4.339   1.977
 8037WAT      O24352   4.844   7.350   6.211
 8037WAT     H124353   4.924   7.403   6.181
 8037WAT     H224354   4.776   7.348   6.137
 8038WAT      O24355   0.046   8.363   3.645
 8038WAT     H124356   0.139   8.389   3.619
 8038WAT     H224357  -0.004   8.443   3.675
 8039WAT      O24358   4.019   1.162   4.680
 8039WAT     H124359   4.094   1.133   4.620
 8039WAT     H224360   4.050   1.237   4.739
 8040WAT      O24361   8.805   5.176   1.128
 8040WAT     H124362   8.761   5.117   1.060
 8040WAT     H224363   8.741   5.247   1.157
 8041WAT      O24364   2.817   3.602   8.177
 8041WAT     H124365   2.909   3.640   8.167
 8041WAT     H224366   2.787   3.565   8.089
 8042WAT      O24367   8.236   1.912   4.764
 8042WAT     H124368   8.249   1.844   4.836
 8042WAT     H224369   8.321   1.925   4.714
 8043WAT      O24370   5.084   7.736   0.075
 8043WAT     H124371   5.168   7.768   0.032
 8043WAT     H224372   5.008   7.742   0.010
 8044WAT      O24373   5.261   5.705   6.667
 8044WAT     H124374   5.214   5.626   6.707
 8044WAT     H224375   5.201   5.785   6.674
 8045WAT      O24376   5.236   8.480   8.377
 8045WAT     H124377   5.299   8.539   8.327
 8045WAT     H224378   5.276   8.455   8.465
 8046WAT      O24379   4.824   1.723   6.284
 8046WAT     H124380   4.850   1.782   6.361
 8046WAT     H224381   4.757   1.656   6.316
 8047WAT      O24382   2.286   8.735   5.260
 8047WAT     H124383   2.262   8.712   5.354
 8047WAT     H224384   2.292   8.652   5.205
 8048WAT      O24385   2.024   6.802   5.453
 8048WAT     H124386   2.114   6.788   5.411
 8048WAT     H224387   2.006   6.900   5.460
 8049WAT      O24388   1.274   7.440   8.731
 8049WAT     H124389   1.325   7.489   8.661
 8049WAT     H224390   1.239   7.354   8.694
 8050WAT      O24391   7.118   2.350   2.853
 8050WAT     H124392   7.160   2.432   2.815
 8050WAT     H224393   7.051   2.376   2.922
 8051WAT      O24394   9.441   2.413   2.103
 8051WAT     H124395   9.423   2.347   2.176
 8051WAT     H224396   9.515   2.379   2.045
 8052WAT      O24397   5.476   1.338   2.989
 8052WAT     H124398   5.535   1.257   2.990
 8052WAT     H224399   5.421   1.338   2.906
 8053WAT      O24400   3.451   4.897   4.338
 8053WAT     H124401   3.366   4.897   4.285
 8053WAT     H224402   3.526   4.930   4.280
 8054WAT      O24403   5.104   0.986   5.555
 8054WAT     H124404   5.169   0.926   5.508
 8054WAT     H224405   5.151   1.034   5.629
 8055WAT      O24406   8.004   2.712   2.226
 8055WAT     H124407   8.024   2.630   2.172
 8055WAT     H224408   8.025   2.694   2.322
 8056WAT      O24409   5.043   5.147   7.496
 8056WAT     H124410   5.130   5.160   7.545
 8056WAT     H224411   5.058   5.089   7.416
 8057WAT      O24412   0.209   6.202   1.944
 8057WAT     H124413   0.280   6.269   1.965
 8057WAT     H224414   0.191   6.146   2.025
 8058WAT      O24415   3.871   2.560   8.576
 8058WAT     H124416   3.796   2.499   8.603
 8058WAT     H224417   3.928   2.514   8.509
 8059WAT      O24418   3.149   5.864   7.748
 8059WAT     H124419   3.244   5.888   7.766
 8059WAT     H224420   3.138   5.841   7.651
 8060WAT      O24421   7.644   4.764   6.538
 8060WAT     H124422   7.678   4.836   6.597
 8060WAT     H224423   7.674   4.781   6.444
 8061WAT      O24424   2.291   0.820   2.355
 8061WAT     H124425   2.297   0.897   2.419
 8061WAT     H224426   2.253   0.851   2.268
 8062WAT      O24427   1.120   1.102   5.618
 8062WAT     H124428   1.184   1.029   5.594
 8062WAT     H224429   1.134   1.180   5.557
 8063WAT      O24430   1.997   6.456   2.763
 8063WAT     H124431   1.919   6.393   2.762
 8063WAT     H224432   2.080   6.406   2.786
 8064WAT      O24433   0.492   0.117   9.632
 8064WAT     H124434   0.557   0.041   9.644
 8064WAT     H224435   0.439   0.102   9.549
 8065WAT      O24436   7.128   9.352   4.671
 8065WAT     H124437   7.063   9.426   4.687
 8065WAT     H224438   7.133   9.293   4.751
 8066WAT      O24439   5.844   6.803   1.294
 8066WAT     H124440   5.906   6.873   1.258
 8066WAT     H224441   5.895   6.719   1.312
 8067WAT      O24442   4.561   7.800   3.201
 8067WAT     H124443   4.485   7.805   3.135
 8067WAT     H224444   4.612   7.886   3.199
 8068WAT      O24445   5.019   2.296   7.151
 8068WAT     H124446   4.956   2.289   7.228
 8068WAT     H224447   4.989   2.237   7.077
 8069WAT      O24448   9.088   6.458   3.128
 8069WAT     H124449   9.165   6.504   3.084
 8069WAT     H224450   9.121   6.408   3.208
 8070WAT      O24451   5.268   1.388   8.052
 8070WAT     H124452   5.295   1.292   8.055
 8070WAT     H224453   5.321   1.435   7.981
 8071WAT      O24454   2.558   4.898   9.127
 8071WAT     H124455   2.491   4.943   9.185
 8071WAT     H224456   2.534   4.802   9.117
 8072WAT      O24457   7.169   1.578   7.834
 8072WAT     H124458   7.210   1.522   7.761
 8072WAT     H224459   7.213   1.556   7.921
 8073WAT      O24460   1.833   4.819   3.415
 8073WAT     H124461   1.903   4.833   3.346
 8073WAT     H224462   1.870   4.842   3.505
 8074WAT      O24463   2.268   7.674   8.975
 8074WAT     H124464   2.222   7.638   9.056
 8074WAT     H224465   2.213   7.655   8.894
 8075WAT      O24466   6.265   1.260   4.535
 8075WAT     H124467   6.185   1.255   4.474
 8075WAT     H224468   6.246   1.324   4.609
 8076WAT      O24469   2.154   1.794   1.607
 8076WAT     H124470   2.236   1.849   1.591
 8076WAT     H224471   2.114   1.768   1.519
 8077WAT      O24472   1.393   0.247   2.009
 8077WAT     H124473   1.340   0.164   2.023
 8077WAT     H224474   1.412   0.290   2.098
 8078WAT      O24475   4.012   0.393   6.009
 8078WAT     H124476   3.928   0.425   5.966
 8078WAT     H224477   4.081   0.465   6.004
 8079WAT      O24478   9.049   5.684   9.259
 8079WAT     H124479   9.003   5.712   9.174
 8079WAT     H224480   9.118   5.752   9.284
 8080WAT      O24481   3.084   6.330   7.920
 8080WAT     H124482   3.058   6.369   7.831
 8080WAT     H224483   3.005   6.284   7.960
 8081WAT      O24484   3.006   1.590   6.988
 8081WAT     H124485   3.082   1.615   7.048
 8081WAT     H224486   3.039   1.530   6.916
 8082WAT      O24487   8.536   4.139   1.400
 8082WAT     H124488   8.504   4.172   1.311
 8082WAT     H224489   8.539   4.039   1.400
 8083WAT      O24490   4.879   1.419   5.774
 8083WAT     H124491   4.813   1.440   5.846
 8083WAT     H224492   4.899   1.503   5.722
 8084WAT      O24493   1.874   6.714   2.367
 8084WAT     H124494   1.838   6.639   2.422
 8084WAT     H224495   1.867   6.691   2.270
 8085WAT      O24496   7.723   6.059   8.708
 8085WAT     H124497   7.798   6.046   8.642
 8085WAT     H224498   7.654   5.988   8.694
 8086WAT      O24499   8.947   6.875   3.660
 8086WAT     H124500   8.940   6.781   3.695
 8086WAT     H224501   9.042   6.896   3.638
 8087WAT      O24502   0.174   2.040   2.279
 8087WAT     H124503   0.142   2.015   2.370
 8087WAT     H224504   0.272   2.062   2.283
 8088WAT      O24505   2.446   2.770   7.200
 8088WAT     H124506   2.389   2.697   7.237
 8088WAT     H224507   2.420   2.786   7.104
 8089WAT      O24508   4.961   4.734   6.804
 8089WAT     H124509   4.952   4.808   6.737
 8089WAT     H224510   5.026   4.761   6.875
 8090WAT      O24511   3.528   5.007   0.167
 8090WAT     H124512   3.458   4.947   0.204
 8090WAT     H224513   3.617   4.960   0.169
 8091WAT      O24514   5.885   7.183   1.796
 8091WAT     H124515   5.900   7.201   1.893
 8091WAT     H224516   5.794   7.216   1.770
 8092WAT      O24517   7.819   0.569   0.319
 8092WAT     H124518   7.905   0.619   0.329
 8092WAT     H224519   7.746   0.632   0.294
 8093WAT      O24520   2.449   1.232   6.010
 8093WAT     H124521   2.413   1.139   6.019
 8093WAT     H224522   2.546   1.228   5.983
 8094WAT      O24523   2.327   9.710   7.192
 8094WAT     H124524   2.264   9.639   7.224
 8094WAT     H224525   2.406   9.667   7.149
 8095WAT      O24526   4.577   3.020   0.223
 8095WAT     H124527   4.591   3.115   0.253
 8095WAT     H224528   4.665   2.981   0.196
 8096WAT      O24529   2.053   4.399   4.138
 8096WAT     H124530   2.030   4.489   4.177
 8096WAT     H224531   2.011   4.327   4.193
 8097WAT      O24532   9.371   1.800   6.923
 8097WAT     H124533   9.297   1.747   6.964
 8097WAT     H224534   9.459   1.761   6.950
 8098WAT      O24535   9.429   3.919   5.860
 8098WAT     H124536   9.453   3.822   5.864
 8098WAT     H224537   9.334   3.931   5.888
 8099WAT      O24538   8.884   6.065   1.028
 8099WAT     H124539   8.873   6.139   0.962
 8099WAT     H224540   8.829   6.084   1.109
 8100WAT      O24541   7.817   5.082   2.843
 8100WAT     H124542   7.778   5.172   2.865
 8100WAT     H224543   7.797   5.059   2.748
 8101WAT      O24544   3.536   5.872   1.375
 8101WAT     H124545   3.575   5.892   1.285
 8101WAT     H224546   3.608   5.844   1.438
 8102WAT      O24547   7.585   5.747   1.163
 8102WAT     H124548   7.571   5.832   1.113
 8102WAT     H224549   7.674   5.708   1.140
 8103WAT      O24550   4.414   0.128   5.489
 8103WAT     H124551   4.384   0.039   5.454
 8103WAT     H224552   4.410   0.196   5.416
 8104WAT      O24553   5.401   9.506   3.944
 8104WAT     H124554   5.424   9.572   3.872
 8104WAT     H224555   5.302   9.507   3.960
 8105WAT      O24556   4.118   4.687   4.029
 8105WAT     H124557   4.142   4.724   4.119
 8105WAT     H224558   4.131   4.588   4.029
 8106WAT      O24559   3.745   2.658   4.554
 8106WAT     H124560   3.732   2.737   4.615
 8106WAT     H224561   3.658   2.610   4.542
 8107WAT      O24562   8.891   1.301   8.922
 8107WAT     H124563   8.920   1.382   8.972
 8107WAT     H224564   8.829   1.246   8.978
 8108WAT      O24565   3.952   1.602   0.580
 8108WAT     H124566   3.905   1.514   0.571
 8108WAT     H224567   3.892   1.667   0.625
 8109WAT      O24568   7.414   7.296   9.762
 8109WAT     H124569   7.393   7.204   9.730
 8109WAT     H224570   7.467   7.290   9.847
 8110WAT      O24571   6.258   4.052   7.207
 8110WAT     H124572   6.242   4.080   7.302
 8110WAT     H224573   6.280   3.955   7.203
 8111WAT      O24574   3.692   7.238   4.733
 8111WAT     H124575   3.681   7.256   4.831
 8111WAT     H224576   3.689   7.139   4.717
 8112WAT      O24577   7.962   3.470   5.017
 8112WAT     H124578   7.951   3.488   4.920
 8112WAT     H224579   8.040   3.522   5.052
 8113WAT      O24580   7.797   5.646   7.702
 8113WAT     H124581   7.836   5.609   7.787
 8113WAT     H224582   7.740   5.576   7.659
 8114WAT      O24583   2.665   4.097   5.139
 8114WAT     H124584   2.567   4.088   5.157
 8114WAT     H224585   2.684   4.187   5.100
 8115WAT      O24586   1.238   3.586   5.076
 8115WAT     H124587   1.148   3.609   5.038
 8115WAT     H224588   1.292   3.670   5.084
 8116WAT      O24589   7.227   7.064   2.833
 8116WAT     H124590   7.249   6.988   2.894
 8116WAT     H224591   7.141   7.106   2.860
 8117WAT      O24592   3.295   0.037   2.436
 8117WAT     H124593   3.315  -0.041   2.495
 8117WAT     H224594   3.322   0.122   2.481
 8118WAT      O24595   7.893   1.552   2.226
 8118WAT     H124596   7.871   1.630   2.284
 8118WAT     H224597   7.992   1.538   2.224
 8119WAT      O24598   3.864   0.748   0.766
 8119WAT     H124599   3.811   0.663   0.761
 8119WAT     H224600   3.803   0.826   0.774
 8120WAT      O24601   2.990   5.641   1.735
 8120WAT     H124602   2.959   5.547   1.719
 8120WAT     H224603   3.070   5.659   1.678
 8121WAT      O24604   4.340   7.454   0.504
 8121WAT     H124605   4.334   7.442   0.603
 8121WAT     H224606   4.405   7.388   0.466
 8122WAT      O24607   7.719   6.809   1.065
 8122WAT     H124608   7.653   6.851   1.128
 8122WAT     H224609   7.776   6.744   1.115
 8123WAT      O24610   1.230   7.020   2.956
 8123WAT     H124611   1.187   6.948   3.010
 8123WAT     H224612   1.159   7.078   2.916
 8124WAT      O24613   6.596   6.790   8.685
 8124WAT     H124614   6.521   6.804   8.620
 8124WAT     H224615   6.560   6.755   8.771
 8125WAT      O24616   7.903   5.746   0.002
 8125WAT     H124617   7.907   5.719   0.098
 8125WAT     H224618   7.987   5.718  -0.044
 8126WAT      O24619  -0.005   0.718   4.796
 8126WAT     H124620   0.048   0.657   4.855
 8126WAT     H224621   0.056   0.764   4.732
 8127WAT      O24622   1.803   2.201   0.628
 8127WAT     H124623   1.848   2.115   0.606
 8127WAT     H224624   1.849   2.276   0.582
 8128WAT      O24625   3.643   1.679   7.972
 8128WAT     H124626   3.707   1.606   7.951
 8128WAT     H224627   3.550   1.641   7.979
 8129WAT      O24628   8.035   7.527   8.591
 8129WAT     H124629   8.011   7.590   8.665
 8129WAT     H224630   7.984   7.442   8.603
 8130WAT      O24631   3.499   5.054   8.041
 8130WAT     H124632   3.436   5.123   8.077
 8130WAT     H224633   3.522   5.076   7.946
 8131WAT      O24634   8.372   5.915   2.278
 8131WAT     H124635   8.452   5.974   2.265
 8131WAT     H224636   8.311   5.924   2.199
 8132WAT      O24637   7.767   2.041   4.352
 8132WAT     H124638   7.773   1.970   4.281
 8132WAT     H224639   7.855   2.088   4.358
 8133WAT      O24640   4.515   5.636   3.385
 8133WAT     H124641   4.431   5.592   3.351
 8133WAT     H224642   4.533   5.605   3.478
 8134WAT      O24643   6.682   9.359   5.877
 8134WAT     H124644   6.683   9.302   5.795
 8134WAT     H224645   6.664   9.454   5.851
 8135WAT      O24646   2.486   0.660   6.151
 8135WAT     H124647   2.559   0.674   6.218
 8135WAT     H224648   2.397   0.680   6.194
 8136WAT      O24649   2.279   5.989   7.690
 8136WAT     H124650   2.195   5.974   7.741
 8136WAT     H224651   2.305   5.905   7.642
 8137WAT      O24652   1.241   9.561   6.599
 8137WAT     H124653   1.313   9.501   6.566
 8137WAT     H224654   1.168   9.507   6.641
 8138WAT      O24655   4.659   7.237   1.301
 8138WAT     H124656   4.599   7.158   1.294
 8138WAT     H224657   4.754   7.207   1.299
 8139WAT      O24658   4.385   8.104   2.430
 8139WAT     H124659   4.329   8.187   2.420
 8139WAT     H224660   4.418   8.097   2.524
 8140WAT      O24661   6.550   1.256   7.027
 8140WAT     H124662   6.585   1.347   7.004
 8140WAT     H224663   6.478   1.264   7.096
 8141WAT      O24664   5.193   0.488   2.237
 8141WAT     H124665   5.214   0.569   2.183
 8141WAT     H224666   5.124   0.512   2.306
 8142WAT      O24667   4.736   4.839   0.763
 8142WAT     H124668   4.717   4.888   0.848
 8142WAT     H224669   4.722   4.741   0.777
 8143WAT      O24670   7.808   1.143   5.890
 8143WAT     H124671   7.814   1.184   5.981
 8143WAT     H224672   7.714   1.114   5.872
 8144WAT      O24673   1.361   6.829   9.755
 8144WAT     H124674   1.336   6.900   9.690
 8144WAT     H224675   1.290   6.820   9.825
 8145WAT      O24676   2.483   2.380   0.151
 8145WAT     H124677   2.448   2.383   0.057
 8145WAT     H224678   2.543   2.301   0.161
 8146WAT      O24679   6.915   5.218   9.704
 8146WAT     H124680   6.888   5.303   9.750
 8146WAT     H224681   6.875   5.140   9.752
 8147WAT      O24682   9.413   2.460   8.810
 8147WAT     H124683   9.440   2.478   8.904
 8147WAT     H224684   9.374   2.542   8.769
 8148WAT      O24685   4.004   9.634   6.046
 8148WAT     H124686   3.976   9.697   6.119
 8148WAT     H224687   4.086   9.585   6.075
 8149WAT      O24688   0.681   0.211   7.513
 8149WAT     H124689   0.668   0.306   7.487
 8149WAT     H224690   0.747   0.168   7.450
 8150WAT      O24691   3.286   0.712   2.036
 8150WAT     H124692   3.225   0.702   1.958
 8150WAT     H224693   3.239   0.684   2.119
 8151WAT      O24694   2.347   2.764   5.343
 8151WAT     H124695   2.356   2.730   5.249
 8151WAT     H224696   2.420   2.725   5.400
 8152WAT      O24697   6.243   8.900   4.051
 8152WAT     H124698   6.178   8.925   4.123
 8152WAT     H224699   6.292   8.817   4.078
 8153WAT      O24700   2.340   0.076   5.680
 8153WAT     H124701   2.374   0.120   5.762
 8153WAT     H224702   2.396  -0.003   5.658
 8154WAT      O24703   1.100   6.124   5.176
 8154WAT     H124704   1.147   6.210   5.154
 8154WAT     H224705   1.139   6.051   5.121
 8155WAT      O24706   6.469   1.820   0.204
 8155WAT     H124707   6.398   1.885   0.179
 8155WAT     H224708   6.478   1.751   0.133
 8156WAT      O24709   1.198   6.451   4.236
 8156WAT     H124710   1.218   6.483   4.328
 8156WAT     H224711   1.141   6.519   4.189
 8157WAT      O24712   4.288   4.048   8.347
 8157WAT     H124713   4.289   3.955   8.382
 8157WAT     H224714   4.354   4.104   8.397
 8158WAT      O24715   7.061   9.460   6.904
 8158WAT     H124716   7.125   9.389   6.934
 8158WAT     H224717   7.023   9.506   6.984
 8159WAT      O24718   9.505   3.624   4.457
 8159WAT     H124719   9.564   3.618   4.537
 8159WAT     H224720   9.560   3.646   4.377
 8160WAT      O24721   8.631   7.824   8.460
 8160WAT     H124722   8.594   7.844   8.369
 8160WAT     H224723   8.662   7.909   8.503
 8161WAT      O24724   6.904   2.625   0.122
 8161WAT     H124725   6.983   2.637   0.061
 8161WAT     H224726   6.857   2.713   0.133
 8162WAT      O24727   6.995   0.511   4.812
 8162WAT     H124728   7.035   0.493   4.902
 8162WAT     H224729   6.912   0.566   4.823
 8163WAT      O24730   8.932   0.572   2.583
 8163WAT     H124731   8.962   0.555   2.678
 8163WAT     H224732   8.865   0.646   2.582
 8164WAT      O24733   3.280   9.591   9.882
 8164WAT     H124734   3.371   9.550   9.887
 8164WAT     H224735   3.256   9.609   9.787
 8165WAT      O24736   0.367   5.148   4.024
 8165WAT     H124737   0.439   5.118   3.962
 8165WAT     H224738   0.399   5.225   4.079
 8166WAT      O24739   0.845   0.785   1.198
 8166WAT     H124740   0.876   0.848   1.126
 8166WAT     H224741   0.924   0.750   1.248
 8167WAT      O24742   1.857   4.111   8.179
 8167WAT     H124743   1.812   4.199   8.173
 8167WAT     H224744   1.872   4.075   8.086
 8168WAT      O24745   8.092   8.774   2.810
 8168WAT     H124746   8.069   8.693   2.864
 8168WAT     H224747   8.008   8.821   2.783
 8169WAT      O24748   5.350   3.722   9.129
 8169WAT     H124749   5.277   3.657   9.110
 8169WAT     H224750   5.357   3.739   9.227
 8170WAT      O24751   3.109   2.495   2.094
 8170WAT     H124752   3.181   2.531   2.035
 8170WAT     H224753   3.121   2.532   2.187
 8171WAT      O24754   8.844   6.329   3.107
 8171WAT     H124755   8.823   6.371   3.196
 8171WAT     H224756   8.935   6.357   3.077
 8172WAT      O24757   3.517   3.126   0.306
 8172WAT     H124758   3.524   3.060   0.381
 8172WAT     H224759   3.608   3.152   0.276
 8173WAT      O24760   7.487   6.213   2.939
 8173WAT     H124761   7.410   6.171   2.986
 8173WAT     H224762   7.563   6.149   2.934
 8174WAT      O24763   7.748   3.868   4.246
 8174WAT     H124764   7.729   3.951   4.299
 8174WAT     H224765   7.818   3.815   4.293
 8175WAT      O24766   7.185   6.561   8.133
 8175WAT     H124767   7.261   6.570   8.070
 8175WAT     H224768   7.212   6.595   8.223
 8176WAT      O24769   0.421   4.836   0.971
 8176WAT     H124770   0.437   4.742   1.001
 8176WAT     H224771   0.386   4.890   1.048
 8177WAT      O24772   0.457   7.786   9.329
 8177WAT     H124773   0.483   7.866   9.275
 8177WAT     H224774   0.376   7.744   9.289
 8178WAT      O24775   9.796   7.250   3.322
 8178WAT     H124776   9.700   7.232   3.300
 8178WAT     H224777   9.817   7.347   3.303
 8179WAT      O24778   5.492   7.581   8.138
 8179WAT     H124779   5.483   7.481   8.141
 8179WAT     H224780   5.431   7.621   8.205
 8180WAT      O24781   1.961   3.347   1.035
 8180WAT     H124782   2.006   3.304   1.113
 8180WAT     H224783   1.863   3.353   1.051
 8181WAT      O24784   1.241   2.304   5.886
 8181WAT     H124785   1.291   2.293   5.972
 8181WAT     H224786   1.145   2.326   5.906
 8182WAT      O24787   6.770   4.015   5.614
 8182WAT     H124788   6.780   3.984   5.519
 8182WAT     H224789   6.807   4.108   5.622
 8183WAT      O24790   2.320   4.205   2.842
 8183WAT     H124791   2.274   4.289   2.868
 8183WAT     H224792   2.410   4.227   2.802
 8184WAT      O24793   9.557   8.819   2.538
 8184WAT     H124794   9.473   8.769   2.517
 8184WAT     H224795   9.598   8.853   2.454
 8185WAT      O24796   1.726   3.761   3.162
 8185WAT     H124797   1.745   3.748   3.065
 8185WAT     H224798   1.795   3.714   3.217
 8186WAT      O24799   7.152   9.117   3.698
 8186WAT     H124800   7.088   9.051   3.738
 8186WAT     H224801   7.225   9.136   3.764
 8187WAT      O24802   4.631   2.381   2.987
 8187WAT     H124803   4.641   2.385   2.888
 8187WAT     H224804   4.614   2.287   3.016
 8188WAT      O24805   2.428   8.877   3.141
 8188WAT     H124806   2.501   8.886   3.073
 8188WAT     H224807   2.431   8.786   3.182
 8189WAT      O24808   0.892   2.772   1.593
 8189WAT     H124809   0.843   2.845   1.640
 8189WAT     H224810   0.957   2.811   1.528
 8190WAT      O24811   6.903   2.322   2.562
 8190WAT     H124812   6.944   2.412   2.578
 8190WAT     H224813   6.932   2.288   2.473
 8191WAT      O24814   4.612   2.664   1.686
 8191WAT     H124815   4.683   2.653   1.618
 8191WAT     H224816   4.651   2.657   1.778
 8192WAT      O24817   9.476   3.001   5.393
 8192WAT     H124818   9.453   2.925   5.332
 8192WAT     H224819   9.513   2.965   5.478
 8193WAT      O24820   6.510   6.640   9.860
 8193WAT     H124821   6.570   6.696   9.917
 8193WAT     H224822   6.482   6.559   9.910
 8194WAT      O24823   5.879   7.682   4.786
 8194WAT     H124824   5.793   7.658   4.831
 8194WAT     H224825   5.876   7.654   4.690
 8195WAT      O24826   2.397   5.190   6.422
 8195WAT     H124827   2.404   5.223   6.517
 8195WAT     H224828   2.335   5.112   6.419
 8196WAT      O24829   4.864   5.478   0.238
 8196WAT     H124830   4.822   5.559   0.279
 8196WAT     H224831   4.855   5.483   0.138
 8197WAT      O24832   2.182   0.139   9.054
 8197WAT     H124833   2.184   0.216   9.117
 8197WAT     H224834   2.274   0.104   9.041
 8198WAT      O24835   4.385   3.124   1.474
 8198WAT     H124836   4.485   3.114   1.479
 8198WAT     H224837   4.356   3.195   1.539
 8199WAT      O24838   3.202   2.883   5.200
 8199WAT     H124839   3.209   2.981   5.220
 8199WAT     H224840   3.294   2.846   5.188
 8200WAT      O24841   0.217   4.335   7.067
 8200WAT     H124842   0.266   4.299   6.987
 8200WAT     H224843   0.121   4.350   7.043
 8201WAT      O24844   6.996   6.564   8.980
 8201WAT     H124845   6.919   6.565   9.044
 8201WAT     H224846   7.075   6.608   9.023
 8202WAT      O24847   4.328   4.258   6.152
 8202WAT     H124848   4.376   4.280   6.238
 8202WAT     H224849   4.238   4.222   6.172
 8203WAT      O24850   2.302   6.978   9.424
 8203WAT     H124851   2.209   7.011   9.440
 8203WAT     H224852   2.342   7.027   9.346
 8204WAT      O24853   1.927   0.008   1.083
 8204WAT     H124854   1.987  -0.062   1.121
 8204WAT     H224855   1.941   0.094   1.133
 8205WAT      O24856   5.952   1.919   1.620
 8205WAT     H124857   6.009   1.963   1.689
 8205WAT     H224858   5.897   1.847   1.664
 8206WAT      O24859   3.195   6.495   6.916
 8206WAT     H124860   3.129   6.566   6.941
 8206WAT     H224861   3.155   6.436   6.846
 8207WAT      O24862   0.305   0.552   5.308
 8207WAT     H124863   0.394   0.543   5.352
 8207WAT     H224864   0.245   0.608   5.365
 8208WAT      O24865   8.849   3.798   8.219
 8208WAT     H124866   8.871   3.707   8.183
 8208WAT     H224867   8.892   3.867   8.162
 8209WAT      O24868   1.186   5.520   4.569
 8209WAT     H124869   1.166   5.564   4.657
 8209WAT     H224870   1.139   5.432   4.565
 8210WAT      O24871   7.585   1.784   9.712
 8210WAT     H124872   7.550   1.725   9.785
 8210WAT     H224873   7.670   1.746   9.675
 8211WAT      O24874   2.704   9.087   7.007
 8211WAT     H124875   2.667   9.099   6.915
 8211WAT     H224876   2.778   9.020   7.005
 8212WAT      O24877   9.443   5.475   9.311
 8212WAT     H124878   9.344   5.459   9.304
 8212WAT     H224879   9.474   5.525   9.230
 8213WAT      O24880   9.375   3.294   3.144
 8213WAT     H124881   9.362   3.393   3.145
 8213WAT     H224882   9.471   3.274   3.123
 8214WAT      O24883   6.749   7.877   7.497
 8214WAT     H124884   6.771   7.850   7.590
 8214WAT     H224885   6.752   7.977   7.488
 8215WAT      O24886   3.502   9.579   2.488
 8215WAT     H124887   3.425   9.612   2.542
 8215WAT     H224888   3.582   9.636   2.506
 8216WAT      O24889   1.569   0.940   3.556
 8216WAT     H124890   1.592   0.947   3.653
 8216WAT     H224891   1.648   0.969   3.501
 8217WAT      O24892   1.323   3.518   9.637
 8217WAT     H124893   1.377   3.531   9.553
 8217WAT     H224894   1.244   3.461   9.617
 8218WAT      O24895   3.189   8.778   4.604
 8218WAT     H124896   3.121   8.851   4.613
 8218WAT     H224897   3.149   8.702   4.551
 8219WAT      O24898   6.407   3.011   8.840
 8219WAT     H124899   6.492   2.959   8.833
 8219WAT     H224900   6.329   2.949   8.836
 8220WAT      O24901   1.366   6.221   2.724
 8220WAT     H124902   1.274   6.259   2.729
 8220WAT     H224903   1.366   6.131   2.767
 8221WAT      O24904   9.801   3.088   6.308
 8221WAT     H124905   9.836   3.181   6.302
 8221WAT     H224906   9.706   3.086   6.278
 8222WAT      O24907   7.368   0.410   1.592
 8222WAT     H124908   7.431   0.335   1.572
 8222WAT     H224909   7.421   0.494   1.605
 8223WAT      O24910   0.444   8.910   3.546
 8223WAT     H124911   0.351   8.886   3.517
 8223WAT     H224912   0.495   8.945   3.467
 8224WAT      O24913   8.406   2.158   1.338
 8224WAT     H124914   8.341   2.234   1.336
 8224WAT     H224915   8.396   2.104   1.254
 8225WAT      O24916   3.817   0.368   3.427
 8225WAT     H124917   3.765   0.323   3.500
 8225WAT     H224918   3.758   0.385   3.349
 8226WAT      O24919   4.222   6.532   6.314
 8226WAT     H124920   4.299   6.468   6.310
 8226WAT     H224921   4.257   6.625   6.312
 8227WAT      O24922   3.120   2.559   8.736
 8227WAT     H124923   3.086   2.568   8.830
 8227WAT     H224924   3.061   2.612   8.675
 8228WAT      O24925   7.228   8.476   2.453
 8228WAT     H124926   7.278   8.404   2.500
 8228WAT     H224927   7.247   8.564   2.497
 8229WAT      O24928   3.983   7.305   4.585
 8229WAT     H124929   3.975   7.232   4.652
 8229WAT     H224930   3.902   7.364   4.590
 8230WAT      O24931   5.721   1.170   7.352
 8230WAT     H124932   5.720   1.270   7.343
 8230WAT     H224933   5.805   1.142   7.400
 8231WAT      O24934   2.243   8.319   3.462
 8231WAT     H124935   2.325   8.319   3.519
 8231WAT     H224936   2.269   8.303   3.367
 8232WAT      O24937   6.228   5.143   7.520
 8232WAT     H124938   6.194   5.168   7.610
 8232WAT     H224939   6.204   5.048   7.500
 8233WAT      O24940   9.451   2.582   6.412
 8233WAT     H124941   9.407   2.555   6.498
 8233WAT     H224942   9.395   2.652   6.367
 8234WAT      O24943   5.328   8.908   5.977
 8234WAT     H124944   5.270   8.982   6.009
 8234WAT     H224945   5.287   8.867   5.895
 8235WAT      O24946   0.025   0.122   8.593
 8235WAT     H124947  -0.020   0.188   8.533
 8235WAT     H224948   0.076   0.170   8.664
 8236WAT      O24949   1.440   9.333   2.665
 8236WAT     H124950   1.471   9.422   2.631
 8236WAT     H224951   1.405   9.343   2.758
 8237WAT      O24952   6.435   5.149   1.964
 8237WAT     H124953   6.502   5.107   1.903
 8237WAT     H224954   6.481   5.186   2.045
 8238WAT      O24955   3.234   7.955   5.340
 8238WAT     H124956   3.154   7.899   5.322
 8238WAT     H224957   3.239   8.029   5.272
 8239WAT      O24958   8.939   7.342   9.260
 8239WAT     H124959   8.918   7.309   9.352
 8239WAT     H224960   8.892   7.428   9.244
 8240WAT      O24961   8.414   7.345   5.905
 8240WAT     H124962   8.508   7.321   5.931
 8240WAT     H224963   8.393   7.304   5.816
 8241WAT      O24964   8.152   4.428   2.715
 8241WAT     H124965   8.123   4.422   2.811
 8241WAT     H224966   8.099   4.364   2.660
 8242WAT      O24967   1.166   4.214   5.976
 8242WAT     H124968   1.139   4.121   5.951
 8242WAT     H224969   1.093   4.255   6.031
 8243WAT      O24970   3.688   7.798   7.090
 8243WAT     H124971   3.766   7.857   7.073
 8243WAT     H224972   3.657   7.810   7.185
 8244WAT      O24973   8.097   4.221   5.440
 8244WAT     H124974   8.138   4.130   5.425
 8244WAT     H224975   8.109   4.246   5.536
 8245WAT      O24976   6.581   6.381   7.610
 8245WAT     H124977   6.589   6.388   7.710
 8245WAT     H224978   6.485   6.367   7.586
 8246WAT      O24979   2.183   1.542   1.031
 8246WAT     H124980   2.103   1.483   1.035
 8246WAT     H224981   2.254   1.498   0.976
 8247WAT      O24982   5.433   3.489   7.696
 8247WAT     H124983   5.434   3.403   7.748
 8247WAT     H224984   5.527   3.517   7.678
 8248WAT      O24985   3.752   5.941   1.565
 8248WAT     H124986   3.822   5.913   1.630
 8248WAT     H224987   3.762   6.039   1.545
 8249WAT      O24988   7.578   6.716   0.853
 8249WAT     H124989   7.616   6.750   0.939
 8249WAT     H224990   7.650   6.675   0.799
 8250WAT      O24991   3.426   1.906   0.010
 8250WAT     H124992   3.396   2.002   0.003
 8250WAT     H224993   3.348   1.849   0.036
 8251WAT      O24994   9.818   9.213   1.598
 8251WAT     H124995   9.753   9.256   1.534
 8251WAT     H224996   9.904   9.194   1.550
 8252WAT      O24997   4.322   1.963   2.141
 8252WAT     H124998   4.411   1.933   2.107
 8252WAT     H224999   4.329   1.983   2.239
 8253WAT      O25000   2.330   1.903   8.727
 8253WAT     H125001   2.289   1.912   8.818
 8253WAT     H225002   2.294   1.821   8.683
 8254WAT      O25003   1.357   3.408   4.840
 8254WAT     H125004   1.265   3.371   4.831
 8254WAT     H225005   1.356   3.485   4.904
 8255WAT      O25006   8.580   1.578   8.559
 8255WAT     H125007   8.585   1.671   8.596
 8255WAT     H225008   8.648   1.520   8.604
 8256WAT      O25009   1.993   0.537   4.437
 8256WAT     H125010   1.910   0.563   4.389
 8256WAT     H225011   2.035   0.458   4.393
 8257WAT      O25012   6.908   8.554   8.028
 8257WAT     H125013   6.992   8.573   7.976
 8257WAT     H225014   6.839   8.623   8.007
 8258WAT      O25015   0.135   5.593   9.345
 8258WAT     H125016   0.170   5.566   9.256
 8258WAT     H225017   0.208   5.586   9.413
 8259WAT      O25018   4.891   5.141   1.961
 8259WAT     H125019   4.810   5.196   1.980
 8259WAT     H225020   4.936   5.175   1.879
 8260WAT      O25021   8.809   4.147   8.256
 8260WAT     H125022   8.770   4.193   8.336
 8260WAT     H225023   8.748   4.075   8.225
 8261WAT      O25024   3.764   2.553   7.758
 8261WAT     H125025   3.790   2.599   7.843
 8261WAT     H225026   3.670   2.578   7.735
 8262WAT      O25027   9.207   5.798   4.972
 8262WAT     H125028   9.212   5.849   5.058
 8262WAT     H225029   9.180   5.703   4.992
 8263WAT      O25030   8.835   5.961   9.445
 8263WAT     H125031   8.758   5.998   9.497
 8263WAT     H225032   8.859   5.871   9.481
 8264WAT      O25033   3.438   6.179   6.523
 8264WAT     H125034   3.406   6.137   6.608
 8264WAT     H225035   3.396   6.269   6.512
 8265WAT      O25036   0.672   5.287   5.094
 8265WAT     H125037   0.716   5.222   5.157
 8265WAT     H225038   0.729   5.298   5.013
 8266WAT      O25039   6.351   8.551   2.188
 8266WAT     H125040   6.318   8.541   2.282
 8266WAT     H225041   6.339   8.646   2.159
 8267WAT      O25042   5.737   4.774   4.237
 8267WAT     H125043   5.769   4.795   4.329
 8267WAT     H225044   5.713   4.677   4.231
 8268WAT      O25045   2.435   6.703   1.260
 8268WAT     H125046   2.357   6.707   1.198
 8268WAT     H225047   2.503   6.771   1.233
 8269WAT      O25048   2.337   6.191   2.223
 8269WAT     H125049   2.393   6.127   2.275
 8269WAT     H225050   2.268   6.140   2.171
 8270WAT      O25051   9.463   9.341   6.154
 8270WAT     H125052   9.400   9.275   6.112
 8270WAT     H225053   9.547   9.346   6.099
 8271WAT      O25054   9.485   8.517   8.777
 8271WAT     H125055   9.484   8.565   8.689
 8271WAT     H225056   9.507   8.581   8.850
 8272WAT      O25057   1.000   7.286   6.301
 8272WAT     H125058   0.935   7.251   6.233
 8272WAT     H225059   1.080   7.227   6.304
 8273WAT      O25060   6.543   6.411   5.349
 8273WAT     H125061   6.609   6.485   5.338
 8273WAT     H225062   6.589   6.331   5.387
 8274WAT      O25063   9.243   9.335   2.403
 8274WAT     H125064   9.223   9.266   2.473
 8274WAT     H225065   9.342   9.350   2.399
 8275WAT      O25066   0.678   3.853   7.634
 8275WAT     H125067   0.587   3.848   7.593
 8275WAT     H225068   0.670   3.848   7.734
 8276WAT      O25069   1.687   7.562   3.531
 8276WAT     H125070   1.637   7.523   3.454
 8276WAT     H225071   1.668   7.507   3.613
 8277WAT      O25072   5.600   3.269   7.824
 8277WAT     H125073   5.683   3.318   7.851
 8277WAT     H225074   5.601   3.252   7.726
 8278WAT      O25075   9.873   1.460   7.673
 8278WAT     H125076   9.920   1.387   7.623
 8278WAT     H225077   9.938   1.504   7.735
 8279WAT      O25078   3.545   7.036   3.571
 8279WAT     H125079   3.606   7.114   3.586
 8279WAT     H225080   3.590   6.968   3.514
 8280WAT      O25081   7.391   0.388   1.069
 8280WAT     H125082   7.371   0.305   1.016
 8280WAT     H225083   7.352   0.467   1.021
 8281WAT      O25084   4.773   1.166   2.634
 8281WAT     H125085   4.749   1.072   2.611
 8281WAT     H225086   4.726   1.228   2.571
 8282WAT      O25087   6.759   8.127   8.341
 8282WAT     H125088   6.726   8.108   8.249
 8282WAT     H225089   6.857   8.148   8.338
 8283WAT      O25090   8.479   7.499   3.619
 8283WAT     H125091   8.480   7.574   3.553
 8283WAT     H225092   8.543   7.520   3.693
 8284WAT      O25093   0.353   0.033   8.431
 8284WAT     H125094   0.282   0.027   8.361
 8284WAT     H225095   0.436   0.071   8.390
 8285WAT      O25096   8.562   7.063   2.557
 8285WAT     H125097   8.641   7.124   2.547
 8285WAT     H225098   8.557   7.031   2.652
 8286WAT      O25099   4.467   6.472   2.269
 8286WAT     H125100   4.492   6.417   2.348
 8286WAT     H225101   4.546   6.528   2.241
 8287WAT      O25102   3.861   4.263   5.607
 8287WAT     H125103   3.885   4.340   5.548
 8287WAT     H225104   3.850   4.181   5.551
 8288WAT      O25105   9.574   3.908   9.403
 8288WAT     H125106   9.590   3.984   9.466
 8288WAT     H225107   9.481   3.914   9.366
 8289WAT      O25108   4.786   1.899   1.106
 8289WAT     H125109   4.698   1.897   1.154
 8289WAT     H225110   4.771   1.927   1.011
 8290WAT      O25111   6.444   3.270   7.331
 8290WAT     H125112   6.401   3.292   7.418
 8290WAT     H225113   6.542   3.259   7.343
 8291WAT      O25114   2.036   2.361   8.470
 8291WAT     H125115   1.995   2.270   8.478
 8291WAT     H225116   1.981   2.417   8.408
 8292WAT      O25117   2.459   5.975   0.969
 8292WAT     H125118   2.453   5.893   0.912
 8292WAT     H225119   2.550   5.979   1.011
 8293WAT      O25120   0.946   7.150   9.565
 8293WAT     H125121   0.964   7.159   9.467
 8293WAT     H225122   0.856   7.187   9.586
 8294WAT      O25123   0.160   1.408   5.779
 8294WAT     H125124   0.096   1.358   5.836
 8294WAT     H225125   0.147   1.507   5.793
 8295WAT      O25126   9.014   3.542   4.348
 8295WAT     H125127   9.080   3.592   4.290
 8295WAT     H225128   8.938   3.603   4.371
 8296WAT      O25129   1.967   0.640   4.685
 8296WAT     H125130   2.059   0.641   4.724
 8296WAT     H225131   1.966   0.586   4.601
 8297WAT      O25132   2.570   2.788   9.428
 8297WAT     H125133   2.629   2.709   9.410
 8297WAT     H225134   2.575   2.851   9.350
 8298WAT      O25135   5.003   3.601   7.542
 8298WAT     H125136   4.930   3.662   7.514
 8298WAT     H225137   5.089   3.629   7.499
 8299WAT      O25138   0.455   8.627   0.242
 8299WAT     H125139   0.474   8.693   0.315
 8299WAT     H225140   0.382   8.566   0.272
 8300WAT      O25141   4.852   2.626   6.371
 8300WAT     H125142   4.837   2.533   6.404
 8300WAT     H225143   4.896   2.623   6.282
 8301WAT      O25144   8.150   5.287   9.185
 8301WAT     H125145   8.231   5.232   9.201
 8301WAT     H225146   8.166   5.381   9.218
 8302WAT      O25147   6.945   8.482   8.313
 8302WAT     H125148   6.942   8.383   8.322
 8302WAT     H225149   6.963   8.507   8.218
 8303WAT      O25150   8.253   2.488   6.160
 8303WAT     H125151   8.324   2.558   6.155
 8303WAT     H225152   8.177   2.514   6.101
 8304WAT      O25153   0.146   2.623   4.668
 8304WAT     H125154   0.240   2.600   4.646
 8304WAT     H225155   0.084   2.573   4.608
 8305WAT      O25156   4.393   0.695   0.085
 8305WAT     H125157   4.431   0.613   0.127
 8305WAT     H225158   4.303   0.673   0.046
 8306WAT      O25159   0.577   9.225   7.766
 8306WAT     H125160   0.593   9.182   7.855
 8306WAT     H225161   0.644   9.298   7.751
 8307WAT      O25162   7.815   2.442   9.392
 8307WAT     H125163   7.852   2.375   9.328
 8307WAT     H225164   7.833   2.534   9.358
 8308WAT      O25165   2.253   2.034   1.271
 8308WAT     H125166   2.352   2.046   1.265
 8308WAT     H225167   2.215   2.104   1.331
 8309WAT      O25168   4.517   9.294   3.704
 8309WAT     H125169   4.463   9.266   3.625
 8309WAT     H225170   4.459   9.344   3.769
 8310WAT      O25171   5.888   2.719   4.115
 8310WAT     H125172   5.856   2.778   4.042
 8310WAT     H225173   5.819   2.714   4.187
 8311WAT      O25174   4.370   8.746   2.694
 8311WAT     H125175   4.461   8.764   2.658
 8311WAT     H225176   4.315   8.829   2.689
 8312WAT      O25177   1.136   2.131   8.951
 8312WAT     H125178   1.220   2.128   8.895
 8312WAT     H225179   1.159   2.163   9.043
 8313WAT      O25180   1.794   0.485   3.880
 8313WAT     H125181   1.820   0.579   3.903
 8313WAT     H225182   1.695   0.476   3.883
 8314WAT      O25183   7.293   8.639   2.197
 8314WAT     H125184   7.274   8.566   2.263
 8314WAT     H225185   7.208   8.667   2.153
 8315WAT      O25186   2.480   8.627   3.212
 8315WAT     H125187   2.482   8.547   3.152
 8315WAT     H225188   2.545   8.615   3.287
 8316WAT      O25189   8.157   8.050   1.983
 8316WAT     H125190   8.138   7.986   2.058
 8316WAT     H225191   8.151   8.144   2.017
 8317WAT      O25192   5.648   2.837   2.492
 8317WAT     H125193   5.661   2.741   2.466
 8317WAT     H225194   5.550   2.856   2.499
 8318WAT      O25195   5.662   4.677   1.906
 8318WAT     H125196   5.609   4.600   1.941
 8318WAT     H225197   5.630   4.701   1.815
 8319WAT      O25198   2.153   9.763   6.380
 8319WAT     H125199   2.191   9.721   6.298
 8319WAT     H225200   2.140   9.693   6.451
 8320WAT      O25201   5.277   7.644   7.197
 8320WAT     H125202   5.302   7.719   7.136
 8320WAT     H225203   5.351   7.577   7.201
 8321WAT      O25204   4.833   7.897   7.680
 8321WAT     H125205   4.775   7.861   7.753
 8321WAT     H225206   4.851   7.825   7.613
 8322WAT      O25207   3.127   3.397   4.066
 8322WAT     H125208   3.063   3.386   3.990
 8322WAT     H225209   3.182   3.479   4.051
 8323WAT      O25210   8.142   4.244   8.535
 8323WAT     H125211   8.141   4.152   8.496
 8323WAT     H225212   8.115   4.240   8.631
 8324WAT      O25213   6.434   0.328   6.332
 8324WAT     H125214   6.393   0.283   6.252
 8324WAT     H225215   6.419   0.271   6.413
 8325WAT      O25216   1.702   3.385   1.083
 8325WAT     H125217   1.642   3.331   1.143
 8325WAT     H225218   1.691   3.482   1.103
 8326WAT      O25219   1.154   3.167   5.004
 8326WAT     H125220   1.251   3.143   5.004
 8326WAT     H225221   1.099   3.085   5.022
 8327WAT      O25222   5.480   3.732   5.813
 8327WAT     H125223   5.569   3.724   5.769
 8327WAT     H225224   5.474   3.667   5.889
 8328WAT      O25225   2.752   1.563   8.015
 8328WAT     H125226   2.847   1.566   8.046
 8328WAT     H225227   2.742   1.614   7.930
 8329WAT      O25228   9.441   8.841   2.101
 8329WAT     H125229   9.475   8.801   2.016
 8329WAT     H225230   9.518   8.866   2.160
 8330WAT      O25231   2.978   8.415   2.052
 8330WAT     H125232   3.012   8.327   2.017
 8330WAT     H225233   2.936   8.466   1.977
 8331WAT      O25234   1.038   3.223   3.892
 8331WAT     H125235   0.963   3.158   3.882
 8331WAT     H225236   1.125   3.176   3.874
 8332WAT      O25237   4.063   4.569   9.073
 8332WAT     H125238   3.987   4.630   9.097
 8332WAT     H225239   4.027   4.494   9.017
 8333WAT      O25240   7.958   1.736   7.230
 8333WAT     H125241   7.905   1.666   7.181
 8333WAT     H225242   8.052   1.704   7.242
 8334WAT      O25243   2.027   5.902   6.081
 8334WAT     H125244   1.958   5.892   6.153
 8334WAT     H225245   2.042   5.999   6.062
 8335WAT      O25246   5.418   7.707   2.849
 8335WAT     H125247   5.435   7.778   2.781
 8335WAT     H225248   5.319   7.695   2.861
 8336WAT      O25249   0.674   5.016   6.742
 8336WAT     H125250   0.757   5.068   6.722
 8336WAT     H225251   0.696   4.937   6.799
 8337WAT      O25252   8.190   9.261   0.748
 8337WAT     H125253   8.196   9.320   0.828
 8337WAT     H225254   8.252   9.183   0.759
 8338WAT      O25255   3.007   3.921   6.538
 8338WAT     H125256   2.956   3.953   6.458
 8338WAT     H225257   3.105   3.932   6.522
 8339WAT      O25258   2.177   9.238   3.960
 8339WAT     H125259   2.169   9.332   3.994
 8339WAT     H225260   2.271   9.206   3.976
 8340WAT      O25261   2.173   9.564   0.526
 8340WAT     H125262   2.141   9.605   0.611
 8340WAT     H225263   2.202   9.470   0.543
 8341WAT      O25264   1.392   1.329   9.633
 8341WAT     H125265   1.418   1.419   9.667
 8341WAT     H225266   1.292   1.323   9.628
 8342WAT      O25267   1.691   8.260   3.669
 8342WAT     H125268   1.736   8.330   3.725
 8342WAT     H225269   1.750   8.179   3.663
 8343WAT      O25270   9.541   4.266   7.634
 8343WAT     H125271   9.639   4.268   7.654
 8343WAT     H225272   9.528   4.277   7.536
 8344WAT      O25273   4.626   3.750   2.938
 8344WAT     H125274   4.549   3.693   2.966
 8344WAT     H225275   4.682   3.774   3.017
 8345WAT      O25276   0.530   7.436   1.769
 8345WAT     H125277   0.627   7.412   1.776
 8345WAT     H225278   0.506   7.501   1.842
 8346WAT      O25279   4.131   6.396   3.362
 8346WAT     H125280   4.210   6.456   3.376
 8346WAT     H225281   4.050   6.451   3.345
 8347WAT      O25282   9.262   6.500   0.648
 8347WAT     H125283   9.329   6.550   0.703
 8347WAT     H225284   9.258   6.539   0.556
 8348WAT      O25285   7.261   1.574   4.271
 8348WAT     H125286   7.275   1.475   4.264
 8348WAT     H225287   7.345   1.622   4.246
 8349WAT      O25288   9.521   6.601   9.249
 8349WAT     H125289   9.430   6.569   9.275
 8349WAT     H225290   9.590   6.542   9.291
 8350WAT      O25291   7.340   8.202   9.792
 8350WAT     H125292   7.316   8.286   9.744
 8350WAT     H225293   7.342   8.218   9.890
 8351WAT      O25294   6.141   7.543   7.039
 8351WAT     H125295   6.190   7.552   6.952
 8351WAT     H225296   6.069   7.613   7.044
 8352WAT      O25297   8.606   7.089   1.895
 8352WAT     H125298   8.694   7.077   1.849
 8352WAT     H225299   8.543   7.137   1.834
 8353WAT      O25300   2.291   1.594   6.852
 8353WAT     H125301   2.271   1.523   6.920
 8353WAT     H225302   2.220   1.664   6.855
 8354WAT      O25303   8.376   9.795   9.394
 8354WAT     H125304   8.463   9.812   9.347
 8354WAT     H225305   8.323   9.880   9.396
 8355WAT      O25306   4.099   7.562   3.926
 8355WAT     H125307   4.117   7.651   3.969
 8355WAT     H225308   4.025   7.516   3.975
 8356WAT      O25309   9.479   8.024   0.552
 8356WAT     H125310   9.578   8.025   0.567
 8356WAT     H225311   9.435   8.092   0.611
 8357WAT      O25312   5.622   3.687   5.578
 8357WAT     H125313   5.662   3.766   5.533
 8357WAT     H225314   5.576   3.630   5.509
 8358WAT      O25315   0.114   5.624   4.287
 8358WAT     H125316   0.073   5.598   4.374
 8358WAT     H225317   0.046   5.616   4.214
 8359WAT      O25318   1.747   2.232   9.225
 8359WAT     H125319   1.844   2.251   9.239
 8359WAT     H225320   1.711   2.182   9.304
 8360WAT      O25321   5.928   7.740   2.373
 8360WAT     H125322   5.996   7.702   2.436
 8360WAT     H225323   5.968   7.818   2.325
 8361WAT      O25324   2.213   9.789   5.984
 8361WAT     H125325   2.193   9.741   5.898
 8361WAT     H225326   2.252   9.724   6.049
 8362WAT      O25327   0.717   5.434   8.641
 8362WAT     H125328   0.682   5.354   8.690
 8362WAT     H225329   0.738   5.506   8.707
 8363WAT      O25330   2.065   4.597   8.749
 8363WAT     H125331   2.030   4.687   8.726
 8363WAT     H225332   2.123   4.563   8.674
 8364WAT      O25333   8.887   2.998   0.397
 8364WAT     H125334   8.928   3.084   0.429
 8364WAT     H225335   8.958   2.928   0.389
 8365WAT      O25336   0.291   6.269   0.466
 8365WAT     H125337   0.324   6.328   0.393
 8365WAT     H225338   0.353   6.274   0.544
 8366WAT      O25339   5.029   6.509   3.927
 8366WAT     H125340   4.944   6.527   3.876
 8366WAT     H225341   5.102   6.565   3.889
 8367WAT      O25342   9.156   7.939   7.606
 8367WAT     H125343   9.078   7.995   7.579
 8367WAT     H225344   9.215   7.924   7.527
 8368WAT      O25345   0.708   4.215   9.422
 8368WAT     H125346   0.778   4.168   9.476
 8368WAT     H225347   0.660   4.280   9.480
 8369WAT      O25348   4.237   0.661   2.743
 8369WAT     H125349   4.187   0.591   2.692
 8369WAT     H225350   4.173   0.716   2.796
 8370WAT      O25351   8.359   4.715   7.721
 8370WAT     H125352   8.327   4.713   7.626
 8370WAT     H225353   8.308   4.647   7.774
 8371WAT      O25354   6.508   5.967   3.725
 8371WAT     H125355   6.527   5.899   3.796
 8371WAT     H225356   6.589   6.023   3.710
 8372WAT      O25357   6.331   2.813   9.658
 8372WAT     H125358   6.280   2.800   9.573
 8372WAT     H225359   6.392   2.735   9.672
 8373WAT      O25360   7.251   8.470   8.430
 8373WAT     H125361   7.267   8.377   8.462
 8373WAT     H225362   7.255   8.472   8.330
 8374WAT      O25363   5.900   2.259   5.500
 8374WAT     H125364   5.962   2.237   5.424
 8374WAT     H225365   5.812   2.290   5.463
 8375WAT      O25366   4.543   1.471   1.047
 8375WAT     H125367   4.444   1.487   1.051
 8375WAT     H225368   4.582   1.522   0.971
 8376WAT      O25369   1.696   1.306   7.988
 8376WAT     H125370   1.672   1.348   7.901
 8376WAT     H225371   1.632   1.337   8.059
 8377WAT      O25372   6.451   9.570   2.438
 8377WAT     H125373   6.415   9.638   2.374
 8377WAT     H225374   6.377   9.533   2.494
 8378WAT      O25375   1.092   6.219   2.924
 8378WAT     H125376   1.071   6.317   2.914
 8378WAT     H225377   1.171   6.208   2.985
 8379WAT      O25378   9.458   4.436   4.240
 8379WAT     H125379   9.515   4.389   4.306
 8379WAT     H225380   9.513   4.502   4.188
 8380WAT      O25381   5.662   0.380   9.742
 8380WAT     H125382   5.608   0.350   9.664
 8380WAT     H225383   5.646   0.319   9.820
 8381WAT      O25384   9.608   7.290   3.821
 8381WAT     H125385   9.658   7.273   3.736
 8381WAT     H225386   9.592   7.203   3.868
 8382WAT      O25387   3.895   3.523   1.054
 8382WAT     H125388   3.871   3.594   0.988
 8382WAT     H225389   3.866   3.434   1.020
 8383WAT      O25390   5.520   0.163   8.348
 8383WAT     H125391   5.479   0.177   8.258
 8383WAT     H225392   5.604   0.108   8.338
 8384WAT      O25393   8.023   2.328   0.308
 8384WAT     H125394   7.995   2.325   0.212
 8384WAT     H225395   7.955   2.378   0.361
 8385WAT      O25396   7.561   5.459   3.090
 8385WAT     H125397   7.563   5.448   3.190
 8385WAT     H225398   7.630   5.400   3.048
 8386WAT      O25399   1.498   0.594   7.613
 8386WAT     H125400   1.493   0.495   7.597
 8386WAT     H225401   1.408   0.635   7.601
 8387WAT      O25402   5.929   3.387   5.701
 8387WAT     H125403   5.967   3.428   5.617
 8387WAT     H225404   5.923   3.288   5.690
 8388WAT      O25405   5.128   5.627   9.854
 8388WAT     H125406   5.031   5.603   9.857
 8388WAT     H225407   5.162   5.642   9.946
 8389WAT      O25408   4.354   8.257   3.319
 8389WAT     H125409   4.387   8.352   3.319
 8389WAT     H225410   4.398   8.206   3.393
 8390WAT      O25411   0.347   0.589   7.955
 8390WAT     H125412   0.386   0.663   7.900
 8390WAT     H225413   0.320   0.513   7.895
 8391WAT      O25414   2.439   1.236   7.149
 8391WAT     H125415   2.501   1.274   7.217
 8391WAT     H225416   2.413   1.143   7.175
 8392WAT      O25417   5.731   3.271   2.187
 8392WAT     H125418   5.639   3.240   2.211
 8392WAT     H225419   5.792   3.192   2.180
 8393WAT      O25420   5.990   3.538   4.680
 8393WAT     H125421   6.049   3.577   4.609
 8393WAT     H225422   5.971   3.607   4.750
 8394WAT      O25423   0.797   7.598   4.429
 8394WAT     H125424   0.746   7.640   4.354
 8394WAT     H225425   0.838   7.512   4.399
 8395WAT      O25426   4.588   6.447   4.697
 8395WAT     H125427   4.650   6.380   4.657
 8395WAT     H225428   4.536   6.406   4.772
 8396WAT      O25429   1.888   2.034   9.525
 8396WAT     H125430   1.857   2.010   9.617
 8396WAT     H225431   1.986   2.018   9.518
 8397WAT      O25432   5.448   0.596   1.921
 8397WAT     H125433   5.391   0.548   1.855
 8397WAT     H225434   5.461   0.538   2.002
 8398WAT      O25435   8.932   0.493   3.611
 8398WAT     H125436   8.852   0.498   3.551
 8398WAT     H225437   8.925   0.563   3.681
 8399WAT      O25438   9.044   4.923   3.123
 8399WAT     H125439   9.083   4.850   3.180
 8399WAT     H225440   9.015   4.884   3.035
 8400WAT      O25441   4.791   7.599   6.727
 8400WAT     H125442   4.865   7.599   6.795
 8400WAT     H225443   4.818   7.545   6.648
 8401WAT      O25444   4.728   2.037   5.212
 8401WAT     H125445   4.696   1.943   5.218
 8401WAT     H225446   4.670   2.088   5.149
 8402WAT      O25447   4.191   5.989   5.428
 8402WAT     H125448   4.110   6.044   5.408
 8402WAT     H225449   4.265   6.049   5.461
 8403WAT      O25450   2.621   3.909   2.038
 8403WAT     H125451   2.633   3.869   2.129
 8403WAT     H225452   2.710   3.928   1.998
 8404WAT      O25453   7.100   7.299   9.393
 8404WAT     H125454   7.155   7.291   9.310
 8404WAT     H225455   7.143   7.363   9.456
 8405WAT      O25456   9.269   5.669   4.097
 8405WAT     H125457   9.327   5.610   4.041
 8405WAT     H225458   9.174   5.659   4.069
 8406WAT      O25459   0.996   3.889   0.411
 8406WAT     H125460   1.001   3.975   0.463
 8406WAT     H225461   1.079   3.836   0.427
 8407WAT      O25462   4.741   5.456   2.326
 8407WAT     H125463   4.746   5.527   2.396
 8407WAT     H225464   4.821   5.397   2.332
 8408WAT      O25465   2.220   4.857   3.316
 8408WAT     H125466   2.216   4.937   3.375
 8408WAT     H225467   2.263   4.882   3.229
 8409WAT      O25468   0.900   8.082   6.999
 8409WAT     H125469   0.825   8.122   7.050
 8409WAT     H225470   0.981   8.077   7.056
 8410WAT      O25471   3.906   3.204   9.728
 8410WAT     H125472   3.858   3.125   9.765
 8410WAT     H225473   3.840   3.267   9.686
 8411WAT      O25474   4.025   8.590   8.989
 8411WAT     H125475   4.078   8.516   9.029
 8411WAT     H225476   3.946   8.610   9.046
 8412WAT      O25477   1.919   3.447   8.123
 8412WAT     H125478   2.006   3.399   8.126
 8412WAT     H225479   1.902   3.480   8.030
 8413WAT      O25480   2.030   4.658   4.969
 8413WAT     H125481   2.051   4.756   4.971
 8413WAT     H225482   2.111   4.605   4.993
 8414WAT      O25483   4.538   9.224   3.229
 8414WAT     H125484   4.629   9.253   3.260
 8414WAT     H225485   4.485   9.192   3.307
 8415WAT      O25486   0.682   3.166   3.392
 8415WAT     H125487   0.710   3.234   3.324
 8415WAT     H225488   0.740   3.085   3.385
 8416WAT      O25489   0.463   5.789   0.602
 8416WAT     H125490   0.369   5.806   0.571
 8416WAT     H225491   0.471   5.816   0.698
 8417WAT      O25492   9.194   2.226   8.407
 8417WAT     H125493   9.157   2.179   8.487
 8417WAT     H225494   9.293   2.235   8.416
 8418WAT      O25495   8.692   8.043   8.888
 8418WAT     H125496   8.646   7.965   8.846
 8418WAT     H225497   8.655   8.128   8.850
 8419WAT      O25498   6.564   6.693   6.536
 8419WAT     H125499   6.635   6.693   6.607
 8419WAT     H225500   6.593   6.750   6.460
 8420WAT      O25501   8.187   6.314   9.868
 8420WAT     H125502   8.216   6.296   9.962
 8420WAT     H225503   8.167   6.411   9.858
 8421WAT      O25504   9.099   4.620   0.159
 8421WAT     H125505   9.016   4.671   0.179
 8421WAT     H225506   9.178   4.680   0.169
 8422WAT      O25507   6.549   8.961   6.350
 8422WAT     H125508   6.539   9.037   6.414
 8422WAT     H225509   6.608   8.891   6.390
 8423WAT      O25510   0.626   9.155   5.802
 8423WAT     H125511   0.655   9.185   5.893
 8423WAT     H225512   0.705   9.155   5.740
 8424WAT      O25513   2.529   5.738   7.143
 8424WAT     H125514   2.531   5.645   7.105
 8424WAT     H225515   2.525   5.804   7.069
 8425WAT      O25516   9.768   6.464   3.834
 8425WAT     H125517   9.857   6.486   3.873
 8425WAT     H225518   9.779   6.396   3.762
 8426WAT      O25519   3.316   0.898   0.593
 8426WAT     H125520   3.261   0.815   0.599
 8426WAT     H225521   3.365   0.913   0.679
 8427WAT      O25522   4.231   4.318   3.432
 8427WAT     H125523   4.281   4.348   3.513
 8427WAT     H225524   4.201   4.224   3.444
 8428WAT      O25525   8.932   4.629   9.268
 8428WAT     H125526   8.920   4.543   9.217
 8428WAT     H225527   8.990   4.612   9.348
 8429WAT      O25528   1.956   8.496   4.495
 8429WAT     H125529   2.020   8.463   4.426
 8429WAT     H225530   1.951   8.430   4.570
 8430WAT      O25531   7.390   4.765   2.932
 8430WAT     H125532   7.376   4.757   3.031
 8430WAT     H225533   7.486   4.788   2.914
 8431WAT      O25534   5.510   0.932   5.634
 8431WAT     H125535   5.488   0.893   5.723
 8431WAT     H225536   5.439   0.906   5.568
 8432WAT      O25537   3.779   4.546   7.127
 8432WAT     H125538   3.831   4.582   7.050
 8432WAT     H225539   3.807   4.593   7.211
 8433WAT      O25540   3.608   0.006   1.865
 8433WAT     H125541   3.521  -0.042   1.856
 8433WAT     H225542   3.600   0.097   1.825
 8434WAT      O25543   7.266   0.107   8.399
 8434WAT     H125544   7.205   0.110   8.479
 8434WAT     H225545   7.351   0.154   8.420
 8435WAT      O25546   9.384   0.324   0.484
 8435WAT     H125547   9.366   0.344   0.388
 8435WAT     H225548   9.432   0.402   0.526
 8436WAT      O25549   7.108   4.978   0.037
 8436WAT     H125550   7.034   4.959  -0.028
 8436WAT     H225551   7.169   5.048  -0.001
 8437WAT      O25552   1.351   9.318   3.171
 8437WAT     H125553   1.353   9.352   3.077
 8437WAT     H225554   1.269   9.264   3.185
 8438WAT      O25555   8.265   8.055   0.201
 8438WAT     H125556   8.332   8.032   0.130
 8438WAT     H225557   8.174   8.029   0.171
 8439WAT      O25558   9.755   7.551   0.076
 8439WAT     H125559   9.851   7.558   0.106
 8439WAT     H225560   9.743   7.605  -0.007
 8440WAT      O25561   2.179   2.382   4.245
 8440WAT     H125562   2.118   2.303   4.233
 8440WAT     H225563   2.244   2.386   4.170
 8441WAT      O25564   0.788   4.797   6.863
 8441WAT     H125565   0.875   4.841   6.884
 8441WAT     H225566   0.804   4.720   6.802
 8442WAT      O25567   1.138   7.459   4.283
 8442WAT     H125568   1.051   7.419   4.256
 8442WAT     H225569   1.191   7.392   4.334
 8443WAT      O25570   6.137   3.613   1.032
 8443WAT     H125571   6.154   3.583   0.938
 8443WAT     H225572   6.218   3.658   1.068
 8444WAT      O25573   5.611   9.670   3.405
 8444WAT     H125574   5.698   9.640   3.446
 8444WAT     H225575   5.579   9.752   3.451
 8445WAT      O25576   0.220   2.604   4.243
 8445WAT     H125577   0.229   2.701   4.263
 8445WAT     H225578   0.311   2.564   4.231
 8446WAT      O25579   0.685   5.115   2.505
 8446WAT     H125580   0.754   5.146   2.570
 8446WAT     H225581   0.595   5.120   2.546
 8447WAT      O25582   6.075   1.269   8.859
 8447WAT     H125583   6.116   1.308   8.942
 8447WAT     H225584   6.061   1.340   8.791
 8448WAT      O25585   0.425   2.626   4.849
 8448WAT     H125586   0.364   2.563   4.897
 8448WAT     H225587   0.428   2.602   4.752
 8449WAT      O25588   6.096   7.202   3.591
 8449WAT     H125589   6.114   7.107   3.616
 8449WAT     H225590   6.038   7.205   3.510
 8450WAT      O25591   6.335   7.671   9.461
 8450WAT     H125592   6.239   7.656   9.484
 8450WAT     H225593   6.390   7.597   9.500
 8451WAT      O25594   3.845   0.074   7.197
 8451WAT     H125595   3.894   0.024   7.124
 8451WAT     H225596   3.828   0.168   7.168
 8452WAT      O25597   3.261   0.506   3.918
 8452WAT     H125598   3.277   0.604   3.924
 8452WAT     H225599   3.184   0.488   3.857
 8453WAT      O25600   0.749   4.476   3.496
 8453WAT     H125601   0.849   4.486   3.495
 8453WAT     H225602   0.712   4.506   3.408
 8454WAT      O25603   4.906   4.499   6.668
 8454WAT     H125604   4.917   4.598   6.667
 8454WAT     H225605   4.996   4.455   6.666
 8455WAT      O25606   2.996   9.202   9.832
 8455WAT     H125607   3.051   9.249   9.902
 8455WAT     H225608   3.054   9.180   9.753
 8456WAT      O25609   1.418   6.709   1.162
 8456WAT     H125610   1.372   6.629   1.201
 8456WAT     H225611   1.400   6.713   1.064
 8457WAT      O25612   0.671   6.930   0.871
 8457WAT     H125613   0.635   6.837   0.875
 8457WAT     H225614   0.699   6.950   0.777
 8458WAT      O25615   1.615   3.931   8.162
 8458WAT     H125616   1.554   3.993   8.112
 8458WAT     H225617   1.708   3.970   8.163
 8459WAT      O25618   7.061   6.716   5.298
 8459WAT     H125619   7.148   6.687   5.257
 8459WAT     H225620   7.048   6.668   5.385
 8460WAT      O25621   1.702   8.874   3.338
 8460WAT     H125622   1.646   8.954   3.317
 8460WAT     H225623   1.646   8.807   3.387
 8461WAT      O25624   0.752   8.688   5.224
 8461WAT     H125625   0.794   8.779   5.224
 8461WAT     H225626   0.817   8.622   5.260
 8462WAT      O25627   4.031   5.994   5.884
 8462WAT     H125628   4.049   5.943   5.968
 8462WAT     H225629   4.074   5.947   5.807
 8463WAT      O25630   8.220   2.641   1.033
 8463WAT     H125631   8.171   2.710   1.087
 8463WAT     H225632   8.318   2.661   1.034
 8464WAT      O25633   7.111   0.404   9.555
 8464WAT     H125634   7.075   0.497   9.557
 8464WAT     H225635   7.091   0.362   9.467
 8465WAT      O25636   5.985   1.356   4.757
 8465WAT     H125637   5.929   1.343   4.839
 8465WAT     H225638   5.928   1.348   4.675
 8466WAT      O25639   3.135   3.570   7.688
 8466WAT     H125640   3.043   3.538   7.707
 8466WAT     H225641   3.178   3.601   7.773
 8467WAT      O25642   1.594   8.302   1.047
 8467WAT     H125643   1.654   8.369   1.003
 8467WAT     H225644   1.615   8.211   1.013
 8468WAT      O25645   3.627   0.202   6.748
 8468WAT     H125646   3.701   0.139   6.726
 8468WAT     H225647   3.599   0.251   6.665
 8469WAT      O25648   2.006   8.598   1.066
 8469WAT     H125649   2.066   8.644   1.132
 8469WAT     H225650   2.050   8.514   1.034
 8470WAT      O25651   9.450   1.100   6.492
 8470WAT     H125652   9.448   1.192   6.451
 8470WAT     H225653   9.375   1.046   6.454
 8471WAT      O25654   1.741   0.423   2.075
 8471WAT     H125655   1.727   0.325   2.085
 8471WAT     H225656   1.836   0.441   2.050
 8472WAT      O25657   6.138   6.915   3.655
 8472WAT     H125658   6.116   6.841   3.718
 8472WAT     H225659   6.236   6.937   3.662
 8473WAT      O25660   8.257   3.935   9.870
 8473WAT     H125661   8.192   3.875   9.823
 8473WAT     H225662   8.274   3.901   9.962
 8474WAT      O25663   1.388   1.771   1.749
 8474WAT     H125664   1.467   1.737   1.800
 8474WAT     H225665   1.408   1.770   1.651
 8475WAT      O25666   6.013   8.832   0.220
 8475WAT     H125667   6.096   8.865   0.265
 8475WAT     H225668   5.940   8.899   0.231
 8476WAT      O25669   9.778   1.047   7.806
 8476WAT     H125670   9.860   1.063   7.861
 8476WAT     H225671   9.729   1.133   7.795
 8477WAT      O25672   9.607   6.396   1.664
 8477WAT     H125673   9.543   6.387   1.741
 8477WAT     H225674   9.558   6.387   1.578
 8478WAT      O25675   4.104   8.286   5.207
 8478WAT     H125676   4.174   8.234   5.159
 8478WAT     H225677   4.137   8.378   5.227
 8479WAT      O25678   5.280   8.028   5.559
 8479WAT     H125679   5.237   8.096   5.619
 8479WAT     H225680   5.304   7.947   5.611
 8480WAT      O25681   9.485   1.235   1.522
 8480WAT     H125682   9.521   1.300   1.455
 8480WAT     H225683   9.387   1.251   1.535
 8481WAT      O25684   6.421   1.557   7.764
 8481WAT     H125685   6.481   1.543   7.685
 8481WAT     H225686   6.394   1.468   7.801
 8482WAT      O25687   1.833   1.285   3.518
 8482WAT     H125688   1.873   1.195   3.498
 8482WAT     H225689   1.770   1.278   3.596
 8483WAT      O25690   7.769   4.623   3.018
 8483WAT     H125691   7.762   4.599   3.115
 8483WAT     H225692   7.733   4.548   2.962
 8484WAT      O25693   3.766   6.688   8.260
 8484WAT     H125694   3.853   6.699   8.309
 8484WAT     H225695   3.698   6.647   8.321
 8485WAT      O25696   4.144   2.728   6.139
 8485WAT     H125697   4.045   2.727   6.155
 8485WAT     H225698   4.188   2.658   6.195
 8486WAT      O25699   1.665   9.438   8.573
 8486WAT     H125700   1.719   9.448   8.657
 8486WAT     H225701   1.620   9.525   8.552
 8487WAT      O25702   7.589   2.508   4.445
 8487WAT     H125703   7.673   2.563   4.438
 8487WAT     H225704   7.537   2.517   4.360
 8488WAT      O25705   4.078   4.291   7.681
 8488WAT     H125706   4.160   4.280   7.737
 8488WAT     H225707   4.073   4.385   7.647
 8489WAT      O25708   8.034   5.847   9.559
 8489WAT     H125709   8.064   5.831   9.465
 8489WAT     H225710   8.113   5.861   9.617
 8490WAT      O25711   0.873   4.865   5.418
 8490WAT     H125712   0.869   4.785   5.478
 8490WAT     H225713   0.908   4.943   5.470
 8491WAT      O25714   0.656   5.391   1.463
 8491WAT     H125715   0.597   5.311   1.456
 8491WAT     H225716   0.636   5.440   1.548
 8492WAT      O25717   1.522   8.304   3.023
 8492WAT     H125718   1.577   8.241   3.078
 8492WAT     H225719   1.582   8.358   2.965
 8493WAT      O25720   0.946   0.842   0.173
 8493WAT     H125721   0.910   0.931   0.143
 8493WAT     H225722   0.948   0.779   0.096
 8494WAT      O25723   3.616   0.061   5.766
 8494WAT     H125724   3.626   0.026   5.859
 8494WAT     H225725   3.564  -0.005   5.712
 8495WAT      O25726   4.252   9.315   2.690
 8495WAT     H125727   4.253   9.339   2.787
 8495WAT     H225728   4.316   9.241   2.672
 8496WAT      O25729   6.224   5.223   1.189
 8496WAT     H125730   6.294   5.281   1.148
 8496WAT     H225731   6.133   5.258   1.164
 8497WAT      O25732   3.650   1.955   9.132
 8497WAT     H125733   3.628   1.952   9.230
 8497WAT     H225734   3.583   2.013   9.085
 8498WAT      O25735   6.259   7.872   7.173
 8498WAT     H125736   6.243   7.890   7.076
 8498WAT     H225737   6.357   7.871   7.191
 8499WAT      O25738   8.055   8.160   8.239
 8499WAT     H125739   8.025   8.157   8.143
 8499WAT     H225740   8.006   8.233   8.286
 8500WAT      O25741   8.956   1.735   3.548
 8500WAT     H125742   8.995   1.778   3.630
 8500WAT     H225743   9.028   1.722   3.480
 8501WAT      O25744   4.356   0.206   2.218
 8501WAT     H125745   4.305   0.121   2.201
 8501WAT     H225746   4.423   0.190   2.290
 8502WAT      O25747   6.907   6.249   7.335
 8502WAT     H125748   6.919   6.329   7.275
 8502WAT     H225749   6.846   6.184   7.290
 8503WAT      O25750   1.036   7.712   4.253
 8503WAT     H125751   1.068   7.619   4.273
 8503WAT     H225752   0.952   7.730   4.304
 8504WAT      O25753   9.310   7.863   9.670
 8504WAT     H125754   9.329   7.933   9.601
 8504WAT     H225755   9.306   7.905   9.760
 8505WAT      O25756   8.617   1.014   6.042
 8505WAT     H125757   8.530   1.036   6.086
 8505WAT     H225758   8.641   1.086   5.977
 8506WAT      O25759   5.472   4.750   0.844
 8506WAT     H125760   5.387   4.800   0.827
 8506WAT     H225761   5.460   4.692   0.925
 8507WAT      O25762   8.732   5.685   8.044
 8507WAT     H125763   8.820   5.659   8.084
 8507WAT     H225764   8.729   5.784   8.032
 8508WAT      O25765   1.984   3.860   5.630
 8508WAT     H125766   1.980   3.761   5.638
 8508WAT     H225767   2.037   3.897   5.706
 8509WAT      O25768   0.908   7.933   9.524
 8509WAT     H125769   1.001   7.924   9.560
 8509WAT     H225770   0.844   7.946   9.599
 8510WAT      O25771   1.149   2.723   4.508
 8510WAT     H125772   1.160   2.804   4.566
 8510WAT     H225773   1.075   2.740   4.443
 8511WAT      O25774   1.633   3.605   2.424
 8511WAT     H125775   1.623   3.578   2.520
 8511WAT     H225776   1.687   3.538   2.375
 8512WAT      O25777   0.628   4.654   3.649
 8512WAT     H125778   0.647   4.585   3.580
 8512WAT     H225779   0.667   4.625   3.737
 8513WAT      O25780   9.754   7.612   4.980
 8513WAT     H125781   9.820   7.681   4.952
 8513WAT     H225782   9.700   7.648   5.057
 8514WAT      O25783   7.587   1.573   3.660
 8514WAT     H125784   7.503   1.533   3.697
 8514WAT     H225785   7.648   1.597   3.735
 8515WAT      O25786   6.675   0.348   7.864
 8515WAT     H125787   6.600   0.409   7.889
 8515WAT     H225788   6.739   0.397   7.804
 8516WAT      O25789   6.915   8.223   8.849
 8516WAT     H125790   7.005   8.221   8.806
 8516WAT     H225791   6.844   8.215   8.778
 8517WAT      O25792   3.537   0.607   4.596
 8517WAT     H125793   3.578   0.568   4.678
 8517WAT     H225794   3.542   0.541   4.521
 8518WAT      O25795   2.346   0.361   7.551
 8518WAT     H125796   2.283   0.381   7.476
 8518WAT     H225797   2.416   0.298   7.519
 8519WAT      O25798   7.306   5.445   8.980
 8519WAT     H125799   7.289   5.537   8.943
 8519WAT     H225800   7.269   5.377   8.917
 8520WAT      O25801   0.018   4.788   9.402
 8520WAT     H125802  -0.048   4.765   9.330
 8520WAT     H225803   0.097   4.727   9.394
 8521WAT      O25804   5.200   5.703   5.508
 8521WAT     H125805   5.164   5.793   5.533
 8521WAT     H225806   5.238   5.707   5.415
 8522WAT      O25807   1.547   1.848   6.241
 8522WAT     H125808   1.566   1.789   6.319
 8522WAT     H225809   1.489   1.800   6.176
 8523WAT      O25810   1.403   2.463   6.997
 8523WAT     H125811   1.398   2.494   6.903
 8523WAT     H225812   1.485   2.500   7.041
 8524WAT      O25813   7.972   7.940   0.091
 8524WAT     H125814   7.981   7.894   0.179
 8524WAT     H225815   7.889   7.908   0.045
 8525WAT      O25816   5.473   5.629   9.442
 8525WAT     H125817   5.449   5.642   9.345
 8525WAT     H225818   5.404   5.674   9.499
 8526WAT      O25819   9.079   9.796   6.293
 8526WAT     H125820   9.098   9.712   6.344
 8526WAT     H225821   9.008   9.777   6.225
 8527WAT      O25822   4.449   8.603   4.640
 8527WAT     H125823   4.467   8.628   4.545
 8527WAT     H225824   4.515   8.535   4.671
 8528WAT      O25825   5.176   0.510   6.705
 8528WAT     H125826   5.138   0.515   6.613
 8528WAT     H225827   5.186   0.603   6.741
 8529WAT      O25828   4.290   3.200   6.124
 8529WAT     H125829   4.243   3.118   6.090
 8529WAT     H225830   4.255   3.224   6.214
 8530WAT      O25831   4.046   2.572   9.735
 8530WAT     H125832   3.960   2.620   9.723
 8530WAT     H225833   4.094   2.610   9.814
 8531WAT      O25834   1.667   8.641   1.504
 8531WAT     H125835   1.589   8.678   1.454
 8531WAT     H225836   1.726   8.591   1.441
 8532WAT      O25837   8.531   0.830   7.438
 8532WAT     H125838   8.449   0.798   7.390
 8532WAT     H225839   8.504   0.872   7.524
 8533WAT      O25840   3.522   0.781   0.423
 8533WAT     H125841   3.442   0.788   0.364
 8533WAT     H225842   3.557   0.873   0.442
 8534WAT      O25843   9.423   4.767   6.485
 8534WAT     H125844   9.521   4.780   6.472
 8534WAT     H225845   9.401   4.670   6.476
 8535WAT      O25846   7.168   1.529   0.837
 8535WAT     H125847   7.131   1.494   0.924
 8535WAT     H225848   7.220   1.457   0.792
 8536WAT      O25849   1.071   0.304   9.021
 8536WAT     H125850   1.077   0.400   9.051
 8536WAT     H225851   1.142   0.286   8.952
 8537WAT      O25852   5.901   9.228   4.347
 8537WAT     H125853   5.907   9.324   4.375
 8537WAT     H225854   5.914   9.222   4.248
 8538WAT      O25855   6.645   3.321   9.375
 8538WAT     H125856   6.576   3.392   9.358
 8538WAT     H225857   6.640   3.252   9.302
 8539WAT      O25858   3.395   1.711   2.144
 8539WAT     H125859   3.413   1.685   2.049
 8539WAT     H225860   3.423   1.806   2.158
 8540WAT      O25861   5.978   2.225   2.450
 8540WAT     H125862   6.000   2.310   2.403
 8540WAT     H225863   5.879   2.212   2.453
 8541WAT      O25864   1.601   6.289   8.305
 8541WAT     H125865   1.509   6.318   8.278
 8541WAT     H225866   1.654   6.369   8.332
 8542WAT      O25867   6.082   1.841   6.995
 8542WAT     H125868   6.014   1.911   6.976
 8542WAT     H225869   6.085   1.823   7.094
 8543WAT      O25870   7.234   4.829   2.250
 8543WAT     H125871   7.142   4.834   2.211
 8543WAT     H225872   7.300   4.861   2.182
 8544WAT      O25873   7.928   3.320   6.960
 8544WAT     H125874   8.003   3.358   7.013
 8544WAT     H225875   7.964   3.262   6.887
 8545WAT      O25876   0.062   3.196   5.233
 8545WAT     H125877   0.075   3.296   5.232
 8545WAT     H225878   0.036   3.166   5.141
 8546WAT      O25879   7.600   4.464   8.651
 8546WAT     H125880   7.660   4.535   8.614
 8546WAT     H225881   7.543   4.426   8.578
 8547WAT      O25882   0.582   8.893   7.762
 8547WAT     H125883   0.650   8.942   7.818
 8547WAT     H225884   0.502   8.872   7.818
 8548WAT      O25885   6.298   9.161   6.621
 8548WAT     H125886   6.208   9.128   6.648
 8548WAT     H225887   6.289   9.225   6.545
 8549WAT      O25888   0.093   0.512   3.305
 8549WAT     H125889   0.150   0.543   3.381
 8549WAT     H225890   0.150   0.473   3.234
 8550WAT      O25891   7.479   5.461   5.623
 8550WAT     H125892   7.460   5.533   5.556
 8550WAT     H225893   7.438   5.486   5.711
 8551WAT      O25894   3.490   6.719   4.758
 8551WAT     H125895   3.537   6.804   4.737
 8551WAT     H225896   3.557   6.649   4.785
 8552WAT      O25897   6.463   9.122   3.304
 8552WAT     H125898   6.484   9.041   3.250
 8552WAT     H225899   6.507   9.202   3.263
 8553WAT      O25900   6.475   9.514   8.956
 8553WAT     H125901   6.521   9.596   8.991
 8553WAT     H225902   6.445   9.458   9.034
 8554WAT      O25903   9.851   8.845   4.057
 8554WAT     H125904   9.884   8.937   4.077
 8554WAT     H225905   9.758   8.834   4.093
 8555WAT      O25906   7.246   9.163   6.505
 8555WAT     H125907   7.253   9.160   6.605
 8555WAT     H225908   7.150   9.151   6.478
 8556WAT      O25909   6.993   8.446   1.871
 8556WAT     H125910   7.062   8.518   1.860
 8556WAT     H225911   6.923   8.476   1.936
 8557WAT      O25912   9.614   9.142   4.719
 8557WAT     H125913   9.540   9.203   4.688
 8557WAT     H225914   9.656   9.098   4.640
 8558WAT      O25915   4.418   8.851   9.438
 8558WAT     H125916   4.473   8.774   9.469
 8558WAT     H225917   4.439   8.932   9.493
 8559WAT      O25918   7.532   1.012   1.465
 8559WAT     H125919   7.494   1.090   1.515
 8559WAT     H225920   7.630   1.026   1.450
 8560WAT      O25921   9.647   2.080   2.935
 8560WAT     H125922   9.715   2.103   3.004
 8560WAT     H225923   9.607   2.165   2.899
 8561WAT      O25924   3.474   5.847   9.236
 8561WAT     H125925   3.533   5.825   9.314
 8561WAT     H225926   3.382   5.868   9.270
 8562WAT      O25927   8.935   7.523   5.161
 8562WAT     H125928   8.895   7.434   5.139
 8562WAT     H225929   8.979   7.561   5.080
 8563WAT      O25930   7.362   3.075   9.762
 8563WAT     H125931   7.330   3.151   9.819
 8563WAT     H225932   7.392   3.111   9.674
 8564WAT      O25933   2.140   7.751   6.177
 8564WAT     H125934   2.109   7.721   6.087
 8564WAT     H225935   2.141   7.673   6.240
 8565WAT      O25936   0.050   2.988   0.010
 8565WAT     H125937   0.058   2.902  -0.041
 8565WAT     H225938  -0.018   2.977   0.083
 8566WAT      O25939   0.320   8.252   7.635
 8566WAT     H125940   0.356   8.345   7.638
 8566WAT     H225941   0.302   8.221   7.729
 8567WAT      O25942   0.077   9.764   2.312
 8567WAT     H125943   0.120   9.786   2.399
 8567WAT     H225944  -0.016   9.731   2.329
 8568WAT      O25945   0.549   0.944   0.737
 8568WAT     H125946   0.489   0.865   0.720
 8568WAT     H225947   0.496   1.028   0.727
 8569WAT      O25948   4.611   8.165   8.337
 8569WAT     H125949   4.539   8.232   8.319
 8569WAT     H225950   4.624   8.107   8.256
 8570WAT      O25951   9.316   4.562   9.825
 8570WAT     H125952   9.314   4.557   9.925
 8570WAT     H225953   9.393   4.619   9.797
 8571WAT      O25954   2.580   7.152   0.829
 8571WAT     H125955   2.538   7.237   0.800
 8571WAT     H225956   2.592   7.092   0.751
 8572WAT      O25957   8.293   7.579   2.900
 8572WAT     H125958   8.298   7.540   2.809
 8572WAT     H225959   8.363   7.650   2.910
 8573WAT      O25960   2.588   1.886   3.792
 8573WAT     H125961   2.533   1.866   3.873
 8573WAT     H225962   2.533   1.873   3.710
 8574WAT      O25963   5.514   5.988   9.559
 8574WAT     H125964   5.533   5.925   9.635
 8574WAT     H225965   5.463   5.940   9.489
 8575WAT      O25966   7.639   9.226   2.492
 8575WAT     H125967   7.651   9.128   2.482
 8575WAT     H225968   7.648   9.271   2.403
 8576WAT      O25969   9.391   4.329   8.222
 8576WAT     H125970   9.359   4.404   8.281
 8576WAT     H225971   9.312   4.288   8.175
 8577WAT      O25972   6.844   4.071   3.710
 8577WAT     H125973   6.932   4.088   3.755
 8577WAT     H225974   6.837   4.127   3.628
 8578WAT      O25975   7.893   0.169   6.662
 8578WAT     H125976   7.898   0.083   6.712
 8578WAT     H225977   7.848   0.238   6.718
 8579WAT      O25978   5.802   0.823   4.373
 8579WAT     H125979   5.878   0.834   4.437
 8579WAT     H225980   5.754   0.911   4.364
 8580WAT      O25981   8.895   3.055   1.372
 8580WAT     H125982   8.994   3.055   1.384
 8580WAT     H225983   8.851   3.081   1.459
 8581WAT      O25984   7.852   8.829   9.421
 8581WAT     H125985   7.776   8.779   9.461
 8581WAT     H225986   7.925   8.765   9.397
 8582WAT      O25987   9.617   3.290   6.778
 8582WAT     H125988   9.695   3.267   6.721
 8582WAT     H225989   9.576   3.207   6.815
 8583WAT      O25990   5.540   8.740   7.380
 8583WAT     H125991   5.583   8.699   7.460
 8583WAT     H225992   5.554   8.839   7.381
 8584WAT      O25993   1.685   0.640   1.406
 8584WAT     H125994   1.751   0.571   1.438
 8584WAT     H225995   1.608   0.644   1.470
 8585WAT      O25996   3.192   3.578   6.638
 8585WAT     H125997   3.286   3.543   6.633
 8585WAT     H225998   3.159   3.600   6.546
 8586WAT      O25999   8.054   6.207   0.972
 8586WAT     H126000   8.120   6.275   1.004
 8586WAT     H226001   7.992   6.183   1.046
 8587WAT      O26002   7.642   6.898   2.070
 8587WAT     H126003   7.655   6.934   2.162
 8587WAT     H226004   7.687   6.958   2.004
 8588WAT      O26005   4.933   5.738   2.230
 8588WAT     H126006   4.852   5.790   2.260
 8588WAT     H226007   4.962   5.678   2.305
 8589WAT      O26008   3.382   8.497   1.085
 8589WAT     H126009   3.348   8.422   1.028
 8589WAT     H226010   3.310   8.527   1.148
 8590WAT      O26011   5.118   9.032   8.315
 8590WAT     H126012   5.103   9.073   8.225
 8590WAT     H226013   5.212   9.050   8.344
 8591WAT      O26014   0.327   4.128   1.093
 8591WAT     H126015   0.247   4.182   1.118
 8591WAT     H226016   0.331   4.119   0.993
 8592WAT      O26017   2.923   7.537   7.278
 8592WAT     H126018   2.881   7.615   7.324
 8592WAT     H226019   3.020   7.532   7.303
 8593WAT      O26020   7.515   0.884   0.189
 8593WAT     H126021   7.426   0.922   0.164
 8593WAT     H226022   7.573   0.881   0.108
 8594WAT      O26023   0.953   6.750   1.861
 8594WAT     H126024   0.874   6.771   1.803
 8594WAT     H226025   0.990   6.835   1.899
 8595WAT      O26026   1.470   5.935   2.452
 8595WAT     H126027   1.395   5.916   2.515
 8595WAT     H226028   1.435   5.987   2.374
 8596WAT      O26029   6.543   9.648   4.218
 8596WAT     H126030   6.465   9.689   4.265
 8596WAT     H226031   6.521   9.639   4.120
 8597WAT      O26032   1.191   1.741   5.648
 8597WAT     H126033   1.243   1.758   5.732
 8597WAT     H226034   1.097   1.715   5.672
 8598WAT      O26035   3.633   4.820   8.050
 8598WAT     H126036   3.572   4.899   8.057
 8598WAT     H226037   3.587   4.746   8.001
 8599WAT      O26038   8.638   4.711   3.700
 8599WAT     H126039   8.581   4.637   3.666
 8599WAT     H226040   8.587   4.797   3.699
 8600WAT      O26041   2.487   7.430   8.799
 8600WAT     H126042   2.461   7.513   8.749
 8600WAT     H226043   2.485   7.352   8.736
 8601WAT      O26044   9.323   2.050   6.643
 8601WAT     H126045   9.247   2.001   6.601
 8601WAT     H226046   9.384   2.084   6.571
 8602WAT      O26047   3.534   3.387   3.645
 8602WAT     H126048   3.460   3.372   3.711
 8602WAT     H226049   3.622   3.388   3.693
 8603WAT      O26050   1.588   6.843   8.929
 8603WAT     H126051   1.533   6.926   8.926
 8603WAT     H226052   1.682   6.864   8.902
 8604WAT      O26053   3.255   5.616   6.192
 8604WAT     H126054   3.168   5.591   6.237
 8604WAT     H226055   3.289   5.538   6.140
 8605WAT      O26056   5.534   3.076   1.029
 8605WAT     H126057   5.586   3.086   1.114
 8605WAT     H226058   5.564   3.145   0.963
 8606WAT      O26059   8.041   4.167   8.774
 8606WAT     H126060   8.127   4.116   8.770
 8606WAT     H226061   7.971   4.119   8.722
 8607WAT      O26062   0.092   0.158   9.030
 8607WAT     H126063   0.002   0.189   9.060
 8607WAT     H226064   0.159   0.230   9.047
 8608WAT      O26065   2.726   9.015   5.131
 8608WAT     H126066   2.702   9.089   5.070
 8608WAT     H226067   2.647   8.955   5.145
 8609WAT      O26068   5.660   1.118   0.080
 8609WAT     H126069   5.640   1.208   0.119
 8609WAT     H226070   5.633   1.116  -0.016
 8610WAT      O26071   7.802   0.845   0.817
 8610WAT     H126072   7.749   0.929   0.810
 8610WAT     H226073   7.811   0.820   0.914
 8611WAT      O26074   5.896   8.449   2.339
 8611WAT     H126075   5.905   8.514   2.263
 8611WAT     H226076   5.987   8.419   2.369
 8612WAT      O26077   0.429   3.874   3.333
 8612WAT     H126078   0.363   3.839   3.399
 8612WAT     H226079   0.389   3.873   3.242
 8613WAT      O26080   3.174   6.268   1.962
 8613WAT     H126081   3.250   6.314   1.917
 8613WAT     H226082   3.138   6.326   2.035
 8614WAT      O26083   8.096   2.404   9.694
 8614WAT     H126084   8.092   2.394   9.595
 8614WAT     H226085   8.169   2.468   9.719
 8615WAT      O26086   3.037   1.774   8.922
 8615WAT     H126087   3.121   1.829   8.925
 8615WAT     H226088   2.997   1.769   9.013
 8616WAT      O26089   6.744   8.147   7.754
 8616WAT     H126090   6.789   8.203   7.824
 8616WAT     H226091   6.808   8.133   7.678
 8617WAT      O26092   6.317   8.828   6.814
 8617WAT     H126093   6.236   8.849   6.759
 8617WAT     H226094   6.326   8.729   6.822
 8618WAT      O26095   7.198   1.693   9.561
 8618WAT     H126096   7.259   1.621   9.527
 8618WAT     H226097   7.226   1.781   9.523
 8619WAT      O26098   8.060   8.300   1.579
 8619WAT     H126099   8.035   8.376   1.519
 8619WAT     H226100   8.044   8.213   1.531
 8620WAT      O26101   4.016   2.449   8.020
 8620WAT     H126102   3.950   2.523   8.028
 8620WAT     H226103   4.098   2.482   7.974
 8621WAT      O26104   4.831   9.395   4.019
 8621WAT     H126105   4.770   9.317   4.013
 8621WAT     H226106   4.799   9.457   4.091
 8622WAT      O26107   6.158   7.547   9.807
 8622WAT     H126108   6.175   7.643   9.827
 8622WAT     H226109   6.209   7.490   9.872
 8623WAT      O26110   2.417   0.495   2.159
 8623WAT     H126111   2.372   0.499   2.248
 8623WAT     H226112   2.434   0.588   2.126
 8624WAT      O26113   4.302   7.262   3.210
 8624WAT     H126114   4.302   7.177   3.158
 8624WAT     H226115   4.397   7.290   3.227
 8625WAT      O26116   3.132   0.666   3.341
 8625WAT     H126117   3.118   0.685   3.438
 8625WAT     H226118   3.068   0.595   3.312
 8626WAT      O26119   1.590   6.815   3.025
 8626WAT     H126120   1.577   6.811   3.124
 8626WAT     H226121   1.640   6.898   3.000
 8627WAT      O26122   0.397   4.325   3.732
 8627WAT     H126123   0.377   4.256   3.801
 8627WAT     H226124   0.329   4.399   3.738
 8628WAT      O26125   2.973   3.576   5.357
 8628WAT     H126126   2.955   3.610   5.264
 8628WAT     H226127   3.068   3.596   5.382
 8629WAT      O26128   7.059   3.470   4.410
 8629WAT     H126129   7.128   3.445   4.341
 8629WAT     H226130   7.104   3.508   4.490
 8630WAT      O26131   2.536   5.074   8.298
 8630WAT     H126132   2.594   5.155   8.287
 8630WAT     H226133   2.594   4.993   8.304
 8631WAT      O26134   5.510   7.079   6.765
 8631WAT     H126135   5.541   7.065   6.671
 8631WAT     H226136   5.477   7.173   6.776
 8632WAT      O26137   2.918   3.993   2.155
 8632WAT     H126138   3.010   3.959   2.133
 8632WAT     H226139   2.922   4.091   2.176
 8633WAT      O26140   5.369   2.426   1.853
 8633WAT     H126141   5.272   2.415   1.875
 8633WAT     H226142   5.388   2.381   1.766
 8634WAT      O26143   2.301   5.633   6.743
 8634WAT     H126144   2.366   5.627   6.819
 8634WAT     H226145   2.208   5.639   6.778
 8635WAT      O26146   1.616   3.687   2.018
 8635WAT     H126147   1.687   3.744   2.059
 8635WAT     H226148   1.607   3.711   1.921
 8636WAT      O26149   4.533   5.946   3.910
 8636WAT     H126150   4.464   5.882   3.877
 8636WAT     H226151   4.624   5.905   3.898
 8637WAT      O26152   3.398   3.467   8.784
 8637WAT     H126153   3.308   3.459   8.827
 8637WAT     H226154   3.469   3.446   8.852
 8638WAT      O26155   2.022   1.043   2.453
 8638WAT     H126156   1.957   1.006   2.518
 8638WAT     H226157   1.986   1.035   2.360
 8639WAT      O26158   8.760   3.989   8.597
 8639WAT     H126159   8.849   3.974   8.555
 8639WAT     H226160   8.715   4.067   8.553
 8640WAT      O26161   8.331   1.134   1.472
 8640WAT     H126162   8.316   1.072   1.394
 8640WAT     H226163   8.398   1.203   1.446
 8641WAT      O26164   2.728   6.109   7.015
 8641WAT     H126165   2.712   6.032   7.077
 8641WAT     H226166   2.663   6.182   7.034
 8642WAT      O26167   7.744   8.729   0.465
 8642WAT     H126168   7.672   8.679   0.513
 8642WAT     H226169   7.705   8.773   0.385
 8643WAT      O26170   0.807   7.363   6.527
 8643WAT     H126171   0.846   7.303   6.456
 8643WAT     H226172   0.714   7.387   6.501
 8644WAT      O26173   7.283   3.864   0.874
 8644WAT     H126174   7.280   3.765   0.868
 8644WAT     H226175   7.314   3.891   0.966
 8645WAT      O26176   6.987   7.111   4.626
 8645WAT     H126177   6.961   7.100   4.721
 8645WAT     H226178   6.998   7.209   4.606
 8646WAT      O26179   1.661   1.996   9.885
 8646WAT     H126180   1.572   1.971   9.847
 8646WAT     H226181   1.665   2.095   9.900
 8647WAT      O26182   4.108   3.235   0.038
 8647WAT     H126183   4.025   3.232  -0.017
 8647WAT     H226184   4.187   3.216  -0.021
 8648WAT      O26185   6.919   1.236   7.100
 8648WAT     H126186   6.963   1.274   7.019
 8648WAT     H226187   6.988   1.203   7.164
 8649WAT      O26188   4.467   2.418   0.084
 8649WAT     H126189   4.531   2.491   0.060
 8649WAT     H226190   4.398   2.410   0.013
 8650WAT      O26191   9.426   2.828   9.198
 8650WAT     H126192   9.451   2.848   9.293
 8650WAT     H226193   9.508   2.814   9.143
 8651WAT      O26194   1.152   4.673   9.559
 8651WAT     H126195   1.098   4.643   9.481
 8651WAT     H226196   1.093   4.680   9.640
 8652WAT      O26197   3.394   5.994   7.791
 8652WAT     H126198   3.491   5.974   7.790
 8652WAT     H226199   3.373   6.054   7.868
 8653WAT      O26200   5.546   7.121   9.814
 8653WAT     H126201   5.635   7.101   9.855
 8653WAT     H226202   5.475   7.116   9.884
 8654WAT      O26203   9.355   2.521   3.002
 8654WAT     H126204   9.353   2.611   2.958
 8654WAT     H226205   9.425   2.521   3.074
 8655WAT      O26206   9.142   0.206   3.883
 8655WAT     H126207   9.113   0.129   3.826
 8655WAT     H226208   9.062   0.255   3.916
 8656WAT      O26209   3.313   7.563   8.627
 8656WAT     H126210   3.370   7.625   8.572
 8656WAT     H226211   3.372   7.502   8.680
 8657WAT      O26212   0.220   7.955   6.346
 8657WAT     H126213   0.228   7.943   6.248
 8657WAT     H226214   0.259   8.043   6.373
 8658WAT      O26215   3.977   1.391   1.547
 8658WAT     H126216   4.046   1.462   1.560
 8658WAT     H226217   3.990   1.348   1.458
 8659WAT      O26218   6.545   3.647   7.445
 8659WAT     H126219   6.530   3.728   7.501
 8659WAT     H226220   6.478   3.576   7.469
 8660WAT      O26221   9.847   0.847   0.883
 8660WAT     H126222   9.939   0.868   0.849
 8660WAT     H226223   9.852   0.821   0.979
 8661WAT      O26224   2.113   9.169   3.398
 8661WAT     H126225   2.135   9.073   3.411
 8661WAT     H226226   2.090   9.211   3.486
 8662WAT      O26227   7.662   7.443   3.247
 8662WAT     H126228   7.607   7.456   3.330
 8662WAT     H226229   7.724   7.521   3.235
 8663WAT      O26230   1.295   5.564   1.020
 8663WAT     H126231   1.234   5.487   1.000
 8663WAT     H226232   1.342   5.592   0.937
 8664WAT      O26233   1.633   1.962   4.119
 8664WAT     H126234   1.570   2.039   4.127
 8664WAT     H226235   1.665   1.955   4.024
 8665WAT      O26236   2.992   1.206   9.763
 8665WAT     H126237   2.957   1.185   9.672
 8665WAT     H226238   2.957   1.140   9.829
 8666WAT      O26239   8.483   9.028   2.253
 8666WAT     H126240   8.406   8.969   2.274
 8666WAT     H226241   8.524   9.063   2.338
 8667WAT      O26242   1.051   1.951   4.759
 8667WAT     H126243   0.953   1.965   4.768
 8667WAT     H226244   1.095   1.966   4.848
 8668WAT      O26245   3.956   4.811   4.662
 8668WAT     H126246   3.899   4.892   4.676
 8668WAT     H226247   4.040   4.819   4.715
 8669WAT      O26248   4.253   7.200   6.862
 8669WAT     H126249   4.345   7.237   6.848
 8669WAT     H226250   4.226   7.214   6.957
 8670WAT      O26251   3.221   3.328   0.535
 8670WAT     H126252   3.257   3.333   0.629
 8670WAT     H226253   3.293   3.354   0.471
 8671WAT      O26254   5.374   5.766   5.941
 8671WAT     H126255   5.422   5.852   5.962
 8671WAT     H226256   5.321   5.737   6.020
 8672WAT      O26257   1.385   6.759   0.868
 8672WAT     H126258   1.300   6.741   0.819
 8672WAT     H226259   1.416   6.851   0.847
 8673WAT      O26260   6.804   1.042   7.642
 8673WAT     H126261   6.752   1.086   7.569
 8673WAT     H226262   6.902   1.048   7.620
 8674WAT      O26263   5.703   7.376   9.698
 8674WAT     H126264   5.631   7.310   9.721
 8674WAT     H226265   5.746   7.410   9.782
 8675WAT      O26266   3.591   0.095   0.724
 8675WAT     H126267   3.587   0.169   0.792
 8675WAT     H226268   3.589   0.134   0.632
 8676WAT      O26269   6.073   2.247   0.926
 8676WAT     H126270   6.114   2.323   0.875
 8676WAT     H226271   6.145   2.193   0.969
 8677WAT      O26272   5.670   1.680   0.739
 8677WAT     H126273   5.659   1.727   0.651
 8677WAT     H226274   5.703   1.745   0.808
 8678WAT      O26275   1.387   6.153   7.721
 8678WAT     H126276   1.436   6.217   7.780
 8678WAT     H226277   1.444   6.073   7.704
 8679WAT      O26278   3.782   6.192   0.945
 8679WAT     H126279   3.816   6.255   1.014
 8679WAT     H226280   3.853   6.124   0.925
 8680WAT      O26281   6.297   7.141   1.641
 8680WAT     H126282   6.244   7.079   1.583
 8680WAT     H226283   6.334   7.089   1.719
 8681WAT      O26284   0.085   8.604   7.545
 8681WAT     H126285   0.117   8.580   7.454
 8681WAT     H226286   0.159   8.588   7.611
 8682WAT      O26287   8.797   7.918   3.685
 8682WAT     H126288   8.890   7.955   3.689
 8682WAT     H226289   8.765   7.895   3.777
 8683WAT      O26290   6.563   8.629   7.026
 8683WAT     H126291   6.569   8.561   7.100
 8683WAT     H226292   6.651   8.633   6.978
 8684WAT      O26293   0.096   9.789   7.140
 8684WAT     H126294   0.108   9.863   7.206
 8684WAT     H226295   0.067   9.826   7.052
 8685WAT      O26296   8.528   2.995   2.488
 8685WAT     H126297   8.461   3.054   2.533
 8685WAT     H226298   8.509   2.992   2.390
 8686WAT      O26299   3.642   4.402   1.974
 8686WAT     H126300   3.664   4.423   2.069
 8686WAT     H226301   3.688   4.466   1.914
 8687WAT      O26302   0.778   4.179   9.767
 8687WAT     H126303   0.841   4.143   9.698
 8687WAT     H226304   0.830   4.229   9.836
 8688WAT      O26305   6.716   2.840   7.196
 8688WAT     H126306   6.798   2.848   7.140
 8688WAT     H226307   6.713   2.915   7.261
 8689WAT      O26308   7.273   4.026   6.400
 8689WAT     H126309   7.286   3.951   6.336
 8689WAT     H226310   7.318   4.108   6.366
 8690WAT      O26311   5.083   5.929   7.599
 8690WAT     H126312   5.024   6.005   7.626
 8690WAT     H226313   5.063   5.904   7.504
 8691WAT      O26314   8.509   4.702   6.395
 8691WAT     H126315   8.435   4.714   6.329
 8691WAT     H226316   8.592   4.674   6.348
 8692WAT      O26317   1.014   1.280   4.603
 8692WAT     H126318   1.013   1.227   4.688
 8692WAT     H226319   1.101   1.266   4.556
 8693WAT      O26320   5.415   4.517   2.524
 8693WAT     H126321   5.319   4.495   2.540
 8693WAT     H226322   5.424   4.568   2.438
 8694WAT      O26323   6.555   6.533   6.985
 8694WAT     H126324   6.608   6.505   7.065
 8694WAT     H226325   6.613   6.589   6.925
 8695WAT      O26326   6.524   7.821   2.222
 8695WAT     H126327   6.536   7.727   2.253
 8695WAT     H226328   6.446   7.862   2.269
 8696WAT      O26329   5.960   7.594   2.935
 8696WAT     H126330   5.998   7.512   2.978
 8696WAT     H226331   5.898   7.639   2.998
 8697WAT      O26332   6.212   6.457   6.697
 8697WAT     H126333   6.246   6.365   6.720
 8697WAT     H226334   6.223   6.517   6.776
 8698WAT      O26335   5.576   3.428   4.872
 8698WAT     H126336   5.530   3.497   4.928
 8698WAT     H226337   5.507   3.371   4.828
 8699WAT      O26338   2.614   0.064   4.567
 8699WAT     H126339   2.591  -0.006   4.500
 8699WAT     H226340   2.545   0.065   4.640
 8700WAT      O26341   2.804   0.111   6.672
 8700WAT     H126342   2.892   0.119   6.718
 8700WAT     H226343   2.813   0.053   6.591
 8701WAT      O26344   9.316   8.227   5.607
 8701WAT     H126345   9.249   8.294   5.640
 8701WAT     H226346   9.346   8.252   5.515
 8702WAT      O26347   3.845   8.082   0.658
 8702WAT     H126348   3.852   8.098   0.757
 8702WAT     H226349   3.764   8.026   0.639
 8703WAT      O26350   8.422   1.611   8.889
 8703WAT     H126351   8.489   1.659   8.946
 8703WAT     H226352   8.396   1.669   8.812
 8704WAT      O26353   4.664   9.672   7.442
 8704WAT     H126354   4.687   9.727   7.521
 8704WAT     H226355   4.732   9.686   7.370
 8705WAT      O26356   7.518   0.394   7.452
 8705WAT     H126357   7.573   0.310   7.446
 8705WAT     H226358   7.579   0.473   7.456
 8706WAT      O26359   5.240   4.183   2.029
 8706WAT     H126360   5.189   4.258   1.988
 8706WAT     H226361   5.308   4.149   1.964
 8707WAT      O26362   5.153   7.328   7.470
 8707WAT     H126363   5.137   7.276   7.385
 8707WAT     H226364   5.155   7.426   7.449
 8708WAT      O26365   7.556   3.358   1.039
 8708WAT     H126366   7.605   3.338   1.124
 8708WAT     H226367   7.458   3.366   1.057
 8709WAT      O26368   2.574   9.241   5.021
 8709WAT     H126369   2.604   9.276   4.933
 8709WAT     H226370   2.476   9.221   5.017
 8710WAT      O26371   8.188   1.477   3.319
 8710WAT     H126372   8.214   1.457   3.414
 8710WAT     H226373   8.089   1.493   3.314
 8711WAT      O26374   8.460   0.918   5.150
 8711WAT     H126375   8.535   0.970   5.109
 8711WAT     H226376   8.411   0.867   5.079
 8712WAT      O26377   4.881   5.556   5.148
 8712WAT     H126378   4.981   5.565   5.148
 8712WAT     H226379   4.849   5.538   5.241
 8713WAT      O26380   5.503   6.034   4.961
 8713WAT     H126381   5.581   6.001   5.015
 8713WAT     H226382   5.421   6.033   5.018
 8714WAT      O26383   3.428   2.740   5.889
 8714WAT     H126384   3.404   2.645   5.908
 8714WAT     H226385   3.478   2.745   5.802
 8715WAT      O26386   2.129   6.124   3.551
 8715WAT     H126387   2.152   6.199   3.613
 8715WAT     H226388   2.097   6.046   3.604
 8716WAT      O26389   1.907   1.600   2.686
 8716WAT     H126390   1.845   1.586   2.609
 8716WAT     H226391   1.968   1.521   2.695
 8717WAT      O26392   8.729   6.227   6.605
 8717WAT     H126393   8.774   6.141   6.626
 8717WAT     H226394   8.756   6.297   6.671
 8718WAT      O26395   1.309   1.116   0.380
 8718WAT     H126396   1.341   1.181   0.311
 8718WAT     H226397   1.386   1.063   0.414
 8719WAT      O26398   7.053   5.675   8.943
 8719WAT     H126399   7.001   5.637   9.020
 8719WAT     H226400   6.993   5.687   8.864
 8720WAT      O26401   8.729   0.674   1.148
 8720WAT     H126402   8.796   0.732   1.194
 8720WAT     H226403   8.776   0.597   1.105
 8721WAT      O26404   6.094   6.579   4.121
 8721WAT     H126405   6.064   6.667   4.158
 8721WAT     H226406   6.178   6.592   4.067
 8722WAT      O26407   7.761   8.352   7.785
 8722WAT     H126408   7.687   8.418   7.803
 8722WAT     H226409   7.844   8.402   7.758
 8723WAT      O26410   9.545   8.267   2.969
 8723WAT     H126411   9.453   8.298   2.944
 8723WAT     H226412   9.590   8.337   3.023
 8724WAT      O26413   6.539   8.664   2.777
 8724WAT     H126414   6.464   8.700   2.832
 8724WAT     H226415   6.627   8.690   2.818
 8725WAT      O26416   3.966   1.472   2.489
 8725WAT     H126417   4.009   1.548   2.440
 8725WAT     H226418   3.881   1.447   2.443
 8726WAT      O26419   7.474   3.952   1.467
 8726WAT     H126420   7.423   3.866   1.476
 8726WAT     H226421   7.508   3.981   1.556
 8727WAT      O26422   2.732   1.988   6.128
 8727WAT     H126423   2.739   1.917   6.058
 8727WAT     H226424   2.753   2.077   6.088
 8728WAT      O26425   2.322   7.667   0.897
 8728WAT     H126426   2.223   7.681   0.892
 8728WAT     H226427   2.362   7.684   0.807
 8729WAT      O26428   5.699   5.072   3.118
 8729WAT     H126429   5.675   5.056   3.022
 8729WAT     H226430   5.778   5.133   3.123
 8730WAT      O26431   0.688   4.619   2.785
 8730WAT     H126432   0.604   4.619   2.840
 8730WAT     H226433   0.763   4.581   2.839
 8731WAT      O26434   7.646   3.272   1.304
 8731WAT     H126435   7.686   3.181   1.289
 8731WAT     H226436   7.717   3.334   1.336
 8732WAT      O26437   5.175   5.584   7.226
 8732WAT     H126438   5.080   5.606   7.249
 8732WAT     H226439   5.233   5.663   7.246
 8733WAT      O26440   3.906   1.807   4.761
 8733WAT     H126441   3.987   1.834   4.709
 8733WAT     H226442   3.839   1.881   4.759
 8734WAT      O26443   6.394   2.824   8.534
 8734WAT     H126444   6.369   2.916   8.504
 8734WAT     H226445   6.493   2.813   8.526
 8735WAT      O26446   5.213   6.280   8.821
 8735WAT     H126447   5.262   6.230   8.892
 8735WAT     H226448   5.229   6.236   8.732
 8736WAT      O26449   5.446   2.986   5.282
 8736WAT     H126450   5.417   3.038   5.362
 8736WAT     H226451   5.535   2.944   5.299
 8737WAT      O26452   7.655   2.403   7.611
 8737WAT     H126453   7.746   2.432   7.641
 8737WAT     H226454   7.663   2.327   7.547
 8738WAT      O26455   8.137   5.899   0.039
 8738WAT     H126456   8.176   5.974  -0.015
 8738WAT     H226457   8.037   5.906   0.039
 8739WAT      O26458   1.145   4.163   9.144
 8739WAT     H126459   1.185   4.186   9.233
 8739WAT     H226460   1.178   4.226   9.074
 8740WAT      O26461   8.396   8.743   7.561
 8740WAT     H126462   8.326   8.812   7.578
 8740WAT     H226463   8.486   8.781   7.581
 8741WAT      O26464   8.912   2.475   2.379
 8741WAT     H126465   8.831   2.484   2.322
 8741WAT     H226466   8.897   2.521   2.466
 8742WAT      O26467   4.488   4.637   3.127
 8742WAT     H126468   4.466   4.547   3.162
 8742WAT     H226469   4.405   4.683   3.097
 8743WAT      O26470   2.419   3.930   2.964
 8743WAT     H126471   2.407   4.016   2.915
 8743WAT     H226472   2.347   3.866   2.937
 8744WAT      O26473   7.433   3.024   6.202
 8744WAT     H126474   7.333   3.019   6.196
 8744WAT     H226475   7.458   3.077   6.283
 8745WAT      O26476   8.490   1.938   2.711
 8745WAT     H126477   8.563   1.940   2.642
 8745WAT     H226478   8.526   1.901   2.797
 8746WAT      O26479   0.638   6.023   1.777
 8746WAT     H126480   0.589   6.020   1.690
 8746WAT     H226481   0.575   6.003   1.852
 8747WAT      O26482   5.174   8.969   3.001
 8747WAT     H126483   5.113   8.970   2.922
 8747WAT     H226484   5.122   8.995   3.083
 8748WAT      O26485   2.920   0.222   1.833
 8748WAT     H126486   2.821   0.223   1.842
 8748WAT     H226487   2.951   0.310   1.798
 8749WAT      O26488   9.458   9.500   7.405
 8749WAT     H126489   9.489   9.425   7.347
 8749WAT     H226490   9.510   9.500   7.490
 8750WAT      O26491   0.355   7.736   4.608
 8750WAT     H126492   0.436   7.689   4.641
 8750WAT     H226493   0.275   7.706   4.659
 8751WAT      O26494   1.215   1.203   0.014
 8751WAT     H126495   1.262   1.127   0.060
 8751WAT     H226496   1.277   1.281   0.008
 8752WAT      O26497   0.951   5.853   8.913
 8752WAT     H126498   0.964   5.915   8.835
 8752WAT     H226499   0.915   5.904   8.991
 8753WAT      O26500   2.852   9.107   0.152
 8753WAT     H126501   2.874   9.081   0.058
 8753WAT     H226502   2.871   9.030   0.213
 8754WAT      O26503   6.189   2.542   5.302
 8754WAT     H126504   6.250   2.516   5.226
 8754WAT     H226505   6.150   2.632   5.283
 8755WAT      O26506   9.726   4.285   8.856
 8755WAT     H126507   9.721   4.191   8.887
 8755WAT     H226508   9.633   4.322   8.846
 8756WAT      O26509   0.198   8.587   9.525
 8756WAT     H126510   0.185   8.589   9.624
 8756WAT     H226511   0.115   8.617   9.479
 8757WAT      O26512   1.858   2.401   3.699
 8757WAT     H126513   1.933   2.347   3.737
 8757WAT     H226514   1.875   2.498   3.715
 8758WAT      O26515   9.440   3.717   0.016
 8758WAT     H126516   9.369   3.717   0.087
 8758WAT     H226517   9.432   3.799  -0.039
 8759WAT      O26518   2.384   5.856   8.175
 8759WAT     H126519   2.347   5.764   8.162
 8759WAT     H226520   2.373   5.908   8.090
 8760WAT      O26521   2.239   3.151   6.280
 8760WAT     H126522   2.270   3.056   6.285
 8760WAT     H226523   2.247   3.184   6.186
 8761WAT      O26524   6.059   7.517   2.144
 8761WAT     H126525   6.145   7.568   2.138
 8761WAT     H226526   6.040   7.495   2.240
 8762WAT      O26527   4.883   0.329   4.365
 8762WAT     H126528   4.915   0.424   4.364
 8762WAT     H226529   4.952   0.270   4.322
 8763WAT      O26530   4.195   8.264   6.935
 8763WAT     H126531   4.237   8.181   6.901
 8763WAT     H226532   4.126   8.297   6.870
 8764WAT      O26533   0.559   6.019   2.114
 8764WAT     H126534   0.478   5.960   2.119
 8764WAT     H226535   0.538   6.107   2.156
 8765WAT      O26536   4.815   8.422   9.095
 8765WAT     H126537   4.832   8.336   9.143
 8765WAT     H226538   4.718   8.445   9.102
 8766WAT      O26539   4.642   2.521   6.699
 8766WAT     H126540   4.683   2.611   6.683
 8766WAT     H226541   4.701   2.467   6.759
 8767WAT      O26542   7.768   5.296   6.062
 8767WAT     H126543   7.851   5.285   6.007
 8767WAT     H226544   7.718   5.377   6.030
 8768WAT      O26545   9.021   4.224   1.971
 8768WAT     H126546   9.120   4.220   1.960
 8768WAT     H226547   8.998   4.213   2.068
 8769WAT      O26548   4.328   9.267   8.855
 8769WAT     H126549   4.388   9.344   8.834
 8769WAT     H226550   4.362   9.220   8.936
 8770WAT      O26551   4.184   9.373   1.673
 8770WAT     H126552   4.278   9.395   1.697
 8770WAT     H226553   4.125   9.449   1.698
 8771WAT      O26554   8.314   0.373   9.499
 8771WAT     H126555   8.238   0.436   9.485
 8771WAT     H226556   8.359   0.394   9.586
 8772WAT      O26557   9.122   0.236   2.817
 8772WAT     H126558   9.052   0.220   2.747
 8772WAT     H226559   9.117   0.164   2.886
 8773WAT      O26560   3.192   1.401   7.920
 8773WAT     H126561   3.160   1.321   7.970
 8773WAT     H226562   3.199   1.379   7.823
 8774WAT      O26563   7.227   7.667   0.032
 8774WAT     H126564   7.304   7.640  -0.027
 8774WAT     H226565   7.141   7.648  -0.015
 8775WAT      O26566   8.686   9.456   7.177
 8775WAT     H126567   8.666   9.502   7.091
 8775WAT     H226568   8.675   9.521   7.253
 8776WAT      O26569   1.994   7.462   0.520
 8776WAT     H126570   2.088   7.489   0.539
 8776WAT     H226571   1.969   7.385   0.579
 8777WAT      O26572   5.691   6.151   7.152
 8777WAT     H126573   5.740   6.238   7.157
 8777WAT     H226574   5.601   6.161   7.195
 8778WAT      O26575   2.221   3.078   6.993
 8778WAT     H126576   2.295   3.144   6.982
 8778WAT     H226577   2.134   3.126   7.007
 8779WAT      O26578   2.891   5.499   4.200
 8779WAT     H126579   2.881   5.484   4.298
 8779WAT     H226580   2.803   5.524   4.161
 8780WAT      O26581   6.166   8.732   5.622
 8780WAT     H126582   6.159   8.657   5.556
 8780WAT     H226583   6.261   8.741   5.652
 8781WAT      O26584   9.878   0.921   2.464
 8781WAT     H126585   9.820   0.841   2.478
 8781WAT     H226586   9.821   1.003   2.456
 8782WAT      O26587   1.580   5.048   2.501
 8782WAT     H126588   1.642   5.009   2.570
 8782WAT     H226589   1.579   4.988   2.421
 8783WAT      O26590   8.258   3.501   7.713
 8783WAT     H126591   8.278   3.539   7.803
 8783WAT     H226592   8.205   3.417   7.723
 8784WAT      O26593   8.212   8.032   2.446
 8784WAT     H126594   8.144   8.105   2.456
 8784WAT     H226595   8.282   8.060   2.381
 8785WAT      O26596   5.733   9.705   0.721
 8785WAT     H126597   5.831   9.688   0.733
 8785WAT     H226598   5.696   9.746   0.804
 8786WAT      O26599   1.153   3.293   2.757
 8786WAT     H126600   1.202   3.368   2.711
 8786WAT     H226601   1.218   3.226   2.790
 8787WAT      O26602   8.119   0.951   4.660
 8787WAT     H126603   8.073   0.961   4.571
 8787WAT     H226604   8.189   0.881   4.653
 8788WAT      O26605   4.671   8.952   8.252
 8788WAT     H126606   4.581   8.962   8.209
 8788WAT     H226607   4.739   9.000   8.198
 8789WAT      O26608   1.722   9.130   5.196
 8789WAT     H126609   1.730   9.221   5.236
 8789WAT     H226610   1.806   9.078   5.213
 8790WAT      O26611   8.966   2.239   6.665
 8790WAT     H126612   8.999   2.172   6.731
 8790WAT     H226613   8.866   2.244   6.671
 8791WAT      O26614   1.228   7.911   4.167
 8791WAT     H126615   1.184   7.985   4.117
 8791WAT     H226616   1.158   7.856   4.213
 8792WAT      O26617   5.111   7.729   0.650
 8792WAT     H126618   5.026   7.756   0.694
 8792WAT     H226619   5.127   7.632   0.665
 8793WAT      O26620   8.957   5.592   7.206
 8793WAT     H126621   9.042   5.567   7.252
 8793WAT     H226622   8.920   5.512   7.158
 8794WAT      O26623   4.281   8.053   8.030
 8794WAT     H126624   4.206   7.988   8.041
 8794WAT     H226625   4.333   8.032   7.948
 8795WAT      O26626   8.599   8.685   2.736
 8795WAT     H126627   8.519   8.739   2.764
 8795WAT     H226628   8.572   8.620   2.665
 8796WAT      O26629   9.597   2.826   1.381
 8796WAT     H126630   9.675   2.853   1.438
 8796WAT     H226631   9.614   2.736   1.342
 8797WAT      O26632   7.517   5.604   7.848
 8797WAT     H126633   7.581   5.646   7.912
 8797WAT     H226634   7.567   5.572   7.767
 8798WAT      O26635   6.659   6.125   9.759
 8798WAT     H126636   6.710   6.202   9.720
 8798WAT     H226637   6.701   6.096   9.845
 8799WAT      O26638   8.483   0.168   5.384
 8799WAT     H126639   8.425   0.204   5.457
 8799WAT     H226640   8.500   0.240   5.317
 8800WAT      O26641   2.910   4.045   8.808
 8800WAT     H126642   2.826   3.999   8.839
 8800WAT     H226643   2.887   4.132   8.765
 8801WAT      O26644   9.626   5.068   7.757
 8801WAT     H126645   9.655   4.987   7.808
 8801WAT     H226646   9.678   5.148   7.788
 8802WAT      O26647   9.275   4.287   0.276
 8802WAT     H126648   9.260   4.310   0.372
 8802WAT     H226649   9.373   4.292   0.255
 8803WAT      O26650   3.002   4.021   1.579
 8803WAT     H126651   3.062   3.976   1.645
 8803WAT     H226652   2.986   3.960   1.502
 8804WAT      O26653   7.166   2.213   4.003
 8804WAT     H126654   7.201   2.130   3.960
 8804WAT     H226655   7.067   2.206   4.014
 8805WAT      O26656   5.926   6.850   9.219
 8805WAT     H126657   5.962   6.782   9.283
 8805WAT     H226658   5.891   6.804   9.137
 8806WAT      O26659   0.781   9.515   0.679
 8806WAT     H126660   0.787   9.552   0.772
 8806WAT     H226661   0.835   9.431   0.673
 8807WAT      O26662   9.782   8.734   1.854
 8807WAT     H126663   9.760   8.831   1.849
 8807WAT     H226664   9.880   8.723   1.872
 8808WAT      O26665   7.054   0.319   3.194
 8808WAT     H126666   7.087   0.237   3.240
 8808WAT     H226667   6.957   0.334   3.216
 8809WAT      O26668   1.164   7.125   2.562
 8809WAT     H126669   1.159   7.031   2.595
 8809WAT     H226670   1.174   7.188   2.639
 8810WAT      O26671   4.817   9.329   5.095
 8810WAT     H126672   4.889   9.293   5.036
 8810WAT     H226673   4.805   9.269   5.174
 8811WAT      O26674   8.884   6.111   8.125
 8811WAT     H126675   8.944   6.038   8.094
 8811WAT     H226676   8.923   6.155   8.206
 8812WAT      O26677   3.308   8.915   3.772
 8812WAT     H126678   3.361   8.832   3.787
 8812WAT     H226679   3.292   8.961   3.859
 8813WAT      O26680   9.545   1.723   1.015
 8813WAT     H126681   9.458   1.770   1.021
 8813WAT     H226682   9.588   1.720   1.105
 8814WAT      O26683   8.505   8.917   8.382
 8814WAT     H126684   8.503   8.953   8.476
 8814WAT     H226685   8.600   8.902   8.355
 8815WAT      O26686   5.264   0.518   8.657
 8815WAT     H126687   5.246   0.422   8.677
 8815WAT     H226688   5.343   0.548   8.710
 8816WAT      O26689   7.322   8.528   9.012
 8816WAT     H126690   7.342   8.470   8.933
 8816WAT     H226691   7.239   8.581   8.994
 8817WAT      O26692   7.654   0.206   3.026
 8817WAT     H126693   7.713   0.285   3.010
 8817WAT     H226694   7.673   0.168   3.117
 8818WAT      O26695   6.696   2.605   5.039
 8818WAT     H126696   6.766   2.670   5.010
 8818WAT     H226697   6.641   2.646   5.112
 8819WAT      O26698   3.034   0.524   5.898
 8819WAT     H126699   3.000   0.615   5.874
 8819WAT     H226700   2.958   0.460   5.903
 8820WAT      O26701   8.399   6.542   8.437
 8820WAT     H126702   8.380   6.612   8.368
 8820WAT     H226703   8.313   6.504   8.470
 8821WAT      O26704   1.711   2.971   8.016
 8821WAT     H126705   1.766   3.054   8.006
 8821WAT     H226706   1.616   2.992   7.995
 8822WAT      O26707   0.313   3.803   1.615
 8822WAT     H126708   0.240   3.774   1.554
 8822WAT     H226709   0.367   3.874   1.571
 8823WAT      O26710   0.189   8.387   8.902
 8823WAT     H126711   0.183   8.450   8.825
 8823WAT     H226712   0.103   8.336   8.911
 8824WAT      O26713   8.963   2.285   2.921
 8824WAT     H126714   9.019   2.329   2.851
 8824WAT     H226715   9.014   2.282   3.007
 8825WAT      O26716   6.862   4.988   4.752
 8825WAT     H126717   6.866   4.891   4.728
 8825WAT     H226718   6.873   4.998   4.851
 8826WAT      O26719   6.106   2.782   4.353
 8826WAT     H126720   6.029   2.818   4.406
 8826WAT     H226721   6.095   2.807   4.257
 8827WAT      O26722   7.931   0.895   3.984
 8827WAT     H126723   7.867   0.967   4.013
 8827WAT     H226724   7.893   0.847   3.905
 8828WAT      O26725   8.818   2.328   3.899
 8828WAT     H126726   8.726   2.363   3.915
 8828WAT     H226727   8.881   2.405   3.887
 8829WAT      O26728   3.212   1.765   0.097
 8829WAT     H126729   3.164   1.789   0.012
 8829WAT     H226730   3.184   1.674   0.126
 8830WAT      O26731   4.875   6.605   8.568
 8830WAT     H126732   4.900   6.518   8.609
 8830WAT     H226733   4.810   6.589   8.493
 8831WAT      O26734   8.451   6.444   7.979
 8831WAT     H126735   8.436   6.376   8.051
 8831WAT     H226736   8.477   6.531   8.020
 8832WAT      O26737   0.770   4.511   0.616
 8832WAT     H126738   0.819   4.427   0.593
 8832WAT     H226739   0.772   4.573   0.538
 8833WAT      O26740   2.211   9.501   5.093
 8833WAT     H126741   2.126   9.458   5.060
 8833WAT     H226742   2.212   9.500   5.193
 8834WAT      O26743   4.099   8.323   6.341
 8834WAT     H126744   4.042   8.396   6.381
 8834WAT     H226745   4.195   8.342   6.362
 8835WAT      O26746   4.223   2.852   8.801
 8835WAT     H126747   4.243   2.838   8.704
 8835WAT     H226748   4.178   2.940   8.813
 8836WAT      O26749   6.692   6.535   3.157
 8836WAT     H126750   6.651   6.615   3.202
 8836WAT     H226751   6.713   6.466   3.226
 8837WAT      O26752   0.735   2.513   6.556
 8837WAT     H126753   0.717   2.485   6.462
 8837WAT     H226754   0.832   2.501   6.576
 8838WAT      O26755   1.264   6.917   5.685
 8838WAT     H126756   1.295   6.898   5.778
 8838WAT     H226757   1.229   6.833   5.643
 8839WAT      O26758   3.650   2.779   2.161
 8839WAT     H126759   3.658   2.863   2.215
 8839WAT     H226760   3.599   2.798   2.077
 8840WAT      O26761   8.465   1.007   5.447
 8840WAT     H126762   8.467   0.937   5.376
 8840WAT     H226763   8.513   1.089   5.416
 8841WAT      O26764   8.098   9.317   2.915
 8841WAT     H126765   8.035   9.247   2.950
 8841WAT     H226766   8.155   9.276   2.844
 8842WAT      O26767   1.322   3.318   6.446
 8842WAT     H126768   1.254   3.262   6.400
 8842WAT     H226769   1.407   3.267   6.455
 8843WAT      O26770   4.374   1.824   3.980
 8843WAT     H126771   4.315   1.833   4.060
 8843WAT     H226772   4.373   1.908   3.927
 8844WAT      O26773   7.667   5.058   9.457
 8844WAT     H126774   7.708   4.982   9.406
 8844WAT     H226775   7.568   5.045   9.461
 8845WAT      O26776   5.969   9.507   2.824
 8845WAT     H126777   5.968   9.407   2.826
 8845WAT     H226778   6.058   9.540   2.855
 8846WAT      O26779   8.392   4.312   2.751
 8846WAT     H126780   8.301   4.350   2.770
 8846WAT     H226781   8.407   4.231   2.808
 8847WAT      O26782   8.734   5.845   4.173
 8847WAT     H126783   8.736   5.915   4.101
 8847WAT     H226784   8.814   5.856   4.231
 8848WAT      O26785   7.530   4.507   5.604
 8848WAT     H126786   7.592   4.579   5.634
 8848WAT     H226787   7.538   4.494   5.505
 8849WAT      O26788   7.464   0.833   6.668
 8849WAT     H126789   7.554   0.798   6.646
 8849WAT     H226790   7.417   0.769   6.729
 8850WAT      O26791   8.432   5.437   5.897
 8850WAT     H126792   8.517   5.488   5.883
 8850WAT     H226793   8.419   5.373   5.821
 8851WAT      O26794   2.237   9.065   0.070
 8851WAT     H126795   2.266   9.100  -0.019
 8851WAT     H226796   2.244   8.965   0.071
 8852WAT      O26797   9.459   5.049   9.018
 8852WAT     H126798   9.498   5.140   9.031
 8852WAT     H226799   9.520   4.995   8.959
 8853WAT      O26800   6.107   0.809   4.785
 8853WAT     H126801   6.193   0.849   4.815
 8853WAT     H226802   6.120   0.711   4.767
 8854WAT      O26803   6.758   5.299   5.131
 8854WAT     H126804   6.740   5.214   5.180
 8854WAT     H226805   6.689   5.313   5.060
 8855WAT      O26806   4.672   5.113   7.813
 8855WAT     H126807   4.759   5.142   7.852
 8855WAT     H226808   4.664   5.013   7.820
 8856WAT      O26809   8.494   0.043   6.270
 8856WAT     H126810   8.509  -0.038   6.214
 8856WAT     H226811   8.580   0.070   6.315
 8857WAT      O26812   7.977   5.744   1.411
 8857WAT     H126813   7.987   5.646   1.390
 8857WAT     H226814   7.880   5.766   1.422
 8858WAT      O26815   0.347   7.877   3.689
 8858WAT     H126816   0.295   7.815   3.747
 8858WAT     H226817   0.289   7.955   3.663
 8859WAT      O26818   8.247   5.142   3.890
 8859WAT     H126819   8.222   5.081   3.815
 8859WAT     H226820   8.346   5.152   3.893
 8860WAT      O26821   3.607   4.907   4.916
 8860WAT     H126822   3.695   4.928   4.960
 8860WAT     H226823   3.540   4.976   4.944
 8861WAT      O26824   1.810   1.000   0.445
 8861WAT     H126825   1.815   1.081   0.504
 8861WAT     H226826   1.895   0.993   0.392
 8862WAT      O26827   7.421   7.230   8.776
 8862WAT     H126828   7.414   7.328   8.757
 8862WAT     H226829   7.514   7.199   8.757
 8863WAT      O26830   8.599   2.686   9.461
 8863WAT     H126831   8.639   2.703   9.551
 8863WAT     H226832   8.657   2.623   9.411
 8864WAT      O26833   7.000   5.181   8.029
 8864WAT     H126834   6.980   5.275   8.057
 8864WAT     H226835   7.083   5.149   8.074
 8865WAT      O26836   6.188   9.123   5.104
 8865WAT     H126837   6.153   9.122   5.010
 8865WAT     H226838   6.267   9.062   5.111
 8866WAT      O26839   0.007   0.689   6.762
 8866WAT     H126840   0.029   0.646   6.674
 8866WAT     H226841   0.064   0.770   6.775
 8867WAT      O26842   6.654   2.743   2.949
 8867WAT     H126843   6.660   2.675   2.877
 8867WAT     H226844   6.731   2.732   3.012
 8868WAT      O26845   1.900   5.861   0.236
 8868WAT     H126846   1.923   5.815   0.150
 8868WAT     H226847   1.974   5.845   0.302
 8869WAT      O26848   1.135   6.548   1.089
 8869WAT     H126849   1.157   6.536   0.993
 8869WAT     H226850   1.050   6.600   1.097
 8870WAT      O26851   3.270   6.507   4.585
 8870WAT     H126852   3.288   6.584   4.525
 8870WAT     H226853   3.342   6.438   4.574
 8871WAT      O26854   8.874   7.448   3.937
 8871WAT     H126855   8.884   7.470   4.034
 8871WAT     H226856   8.913   7.521   3.881
 8872WAT      O26857   9.491   2.926   0.191
 8872WAT     H126858   9.411   2.954   0.244
 8872WAT     H226859   9.522   3.001   0.133
 8873WAT      O26860   1.209   9.317   7.708
 8873WAT     H126861   1.160   9.295   7.793
 8873WAT     H226862   1.151   9.295   7.630
 8874WAT      O26863   4.594   1.454   7.903
 8874WAT     H126864   4.562   1.360   7.897
 8874WAT     H226865   4.650   1.475   7.822
 8875WAT      O26866   2.669   0.332   1.406
 8875WAT     H126867   2.674   0.426   1.440
 8875WAT     H226868   2.595   0.325   1.339
 8876WAT      O26869   4.052   1.652   7.476
 8876WAT     H126870   3.965   1.701   7.482
 8876WAT     H226871   4.046   1.582   7.405
 8877WAT      O26872   8.547   7.851   8.188
 8877WAT     H126873   8.551   7.884   8.094
 8877WAT     H226874   8.574   7.755   8.191
 8878WAT      O26875   6.721   2.939   2.198
 8878WAT     H126876   6.692   3.030   2.228
 8878WAT     H226877   6.815   2.923   2.226
 8879WAT      O26878   5.258   8.393   9.220
 8879WAT     H126879   5.338   8.345   9.185
 8879WAT     H226880   5.175   8.343   9.194
 8880WAT      O26881   2.786   1.916   1.971
 8880WAT     H126882   2.743   1.826   1.963
 8880WAT     H226883   2.800   1.938   2.068
 8881WAT      O26884   5.904   5.682   7.524
 8881WAT     H126885   5.968   5.617   7.565
 8881WAT     H226886   5.811   5.663   7.557
 8882WAT      O26887   8.195   5.886   7.113
 8882WAT     H126888   8.111   5.850   7.154
 8882WAT     H226889   8.267   5.886   7.182
 8883WAT      O26890   4.959   7.219   9.273
 8883WAT     H126891   4.899   7.235   9.194
 8883WAT     H226892   4.916   7.153   9.335
 8884WAT      O26893   9.852   4.024   4.853
 8884WAT     H126894   9.909   3.959   4.904
 8884WAT     H226895   9.858   4.114   4.896
 8885WAT      O26896   9.016   5.293   8.059
 8885WAT     H126897   8.936   5.308   8.001
 8885WAT     H226898   9.090   5.355   8.032
 8886WAT      O26899   0.267   2.970   8.544
 8886WAT     H126900   0.190   2.958   8.481
 8886WAT     H226901   0.313   2.882   8.557
 8887WAT      O26902   6.341   3.530   7.169
 8887WAT     H126903   6.383   3.479   7.243
 8887WAT     H226904   6.412   3.570   7.111
 8888WAT      O26905   5.228   4.925   2.557
 8888WAT     H126906   5.322   4.918   2.523
 8888WAT     H226907   5.230   4.934   2.657
 8889WAT      O26908   0.307   8.444   6.406
 8889WAT     H126909   0.323   8.478   6.499
 8889WAT     H226910   0.374   8.484   6.343
 8890WAT      O26911   7.333   5.826   5.048
 8890WAT     H126912   7.380   5.844   4.962
 8890WAT     H226913   7.235   5.816   5.031
 8891WAT      O26914   5.170   3.773   0.231
 8891WAT     H126915   5.140   3.806   0.320
 8891WAT     H226916   5.116   3.818   0.159
 8892WAT      O26917   0.356   7.060   0.962
 8892WAT     H126918   0.447   7.041   0.926
 8892WAT     H226919   0.291   7.064   0.886
 8893WAT      O26920   5.432   0.256   6.455
 8893WAT     H126921   5.452   0.203   6.537
 8893WAT     H226922   5.514   0.263   6.399
 8894WAT      O26923   0.959   8.917   0.920
 8894WAT     H126924   0.997   8.833   0.881
 8894WAT     H226925   1.033   8.981   0.940
 8895WAT      O26926   7.878   9.468   2.830
 8895WAT     H126927   7.786   9.433   2.845
 8895WAT     H226928   7.945   9.406   2.871
 8896WAT      O26929   7.582   6.672   7.902
 8896WAT     H126930   7.645   6.646   7.975
 8896WAT     H226931   7.632   6.678   7.815
 8897WAT      O26932   6.984   5.958   9.485
 8897WAT     H126933   7.060   5.893   9.475
 8897WAT     H226934   6.978   6.014   9.402
 8898WAT      O26935   6.859   2.229   0.381
 8898WAT     H126936   6.870   2.191   0.473
 8898WAT     H226937   6.848   2.154   0.315
 8899WAT      O26938   6.493   9.338   9.721
 8899WAT     H126939   6.477   9.392   9.638
 8899WAT     H226940   6.589   9.310   9.726
 8900WAT      O26941   0.793   1.692   8.593
 8900WAT     H126942   0.844   1.777   8.606
 8900WAT     H226943   0.701   1.712   8.560
 8901WAT      O26944   7.640   5.390   8.107
 8901WAT     H126945   7.720   5.379   8.166
 8901WAT     H226946   7.643   5.324   8.033
 8902WAT      O26947   7.168   8.245   5.877
 8902WAT     H126948   7.081   8.210   5.843
 8902WAT     H226949   7.243   8.205   5.823
 8903WAT      O26950   1.524   6.133   1.393
 8903WAT     H126951   1.506   6.157   1.489
 8903WAT     H226952   1.466   6.056   1.366
 8904WAT      O26953   3.910   0.106   1.755
 8904WAT     H126954   3.845   0.143   1.688
 8904WAT     H226955   3.993   0.077   1.708
 8905WAT      O26956   1.788   1.871   7.805
 8905WAT     H126957   1.708   1.882   7.746
 8905WAT     H226958   1.849   1.949   7.793
 8906WAT      O26959   6.273   5.997   3.612
 8906WAT     H126960   6.359   6.000   3.664
 8906WAT     H226961   6.197   6.019   3.673
 8907WAT      O26962   2.416   2.244   7.446
 8907WAT     H126963   2.479   2.185   7.496
 8907WAT     H226964   2.367   2.303   7.511
 8908WAT      O26965   6.624   2.247   4.417
 8908WAT     H126966   6.687   2.170   4.402
 8908WAT     H226967   6.616   2.265   4.515
 8909WAT      O26968   0.542   0.681   3.517
 8909WAT     H126969   0.527   0.709   3.612
 8909WAT     H226970   0.597   0.750   3.470
 8910WAT      O26971   1.553   7.390   3.069
 8910WAT     H126972   1.645   7.367   3.039
 8910WAT     H226973   1.509   7.309   3.108
 8911WAT      O26974   9.370   5.839   5.518
 8911WAT     H126975   9.300   5.855   5.588
 8911WAT     H226976   9.423   5.758   5.541
 8912WAT      O26977   0.270   8.937   0.792
 8912WAT     H126978   0.198   8.911   0.729
 8912WAT     H226979   0.280   9.036   0.792
 8913WAT      O26980   5.022   2.150   8.251
 8913WAT     H126981   4.926   2.176   8.267
 8913WAT     H226982   5.042   2.155   8.153
 8914WAT      O26983   3.936   9.801   0.743
 8914WAT     H126984   3.862   9.744   0.778
 8914WAT     H226985   3.983   9.845   0.819
 8915WAT      O26986   6.673   9.584   0.534
 8915WAT     H126987   6.658   9.680   0.556
 8915WAT     H226988   6.755   9.550   0.581
 8916WAT      O26989   1.143   3.465   8.790
 8916WAT     H126990   1.156   3.367   8.780
 8916WAT     H226991   1.074   3.483   8.860
 8917WAT      O26992   2.797   8.660   6.772
 8917WAT     H126993   2.831   8.633   6.862
 8917WAT     H226994   2.697   8.656   6.771
 8918WAT      O26995   6.606   8.130   6.533
 8918WAT     H126996   6.642   8.098   6.445
 8918WAT     H226997   6.657   8.087   6.607
 8919WAT      O26998   4.135   5.915   7.059
 8919WAT     H126999   4.133   5.831   7.112
 8919WAT     H227000   4.206   5.976   7.095
 8920WAT      O27001   6.889   4.447   8.452
 8920WAT     H127002   6.985   4.447   8.423
 8920WAT     H227003   6.831   4.432   8.372
 8921WAT      O27004   7.426   3.213   8.646
 8921WAT     H127005   7.392   3.190   8.738
 8921WAT     H227006   7.356   3.265   8.597
 8922WAT      O27007   4.354   7.740   9.292
 8922WAT     H127008   4.255   7.735   9.302
 8922WAT     H227009   4.398   7.698   9.372
 8923WAT      O27010   5.161   2.796   9.295
 8923WAT     H127011   5.142   2.755   9.206
 8923WAT     H227012   5.260   2.805   9.307
 8924WAT      O27013   3.289   9.054   1.702
 8924WAT     H127014   3.348   8.989   1.653
 8924WAT     H227015   3.277   9.024   1.796
 8925WAT      O27016   2.930   5.495   9.052
 8925WAT     H127017   2.899   5.523   8.961
 8925WAT     H227018   2.941   5.396   9.054
 8926WAT      O27019   0.580   3.925   5.908
 8926WAT     H127020   0.663   3.934   5.963
 8926WAT     H227021   0.565   3.828   5.887
 8927WAT      O27022   2.091   9.727   7.971
 8927WAT     H127023   2.094   9.796   8.043
 8927WAT     H227024   2.042   9.646   8.004
 8928WAT      O27025   2.127   4.005   3.226
 8928WAT     H127026   2.069   3.939   3.274
 8928WAT     H227027   2.223   3.991   3.252
 8929WAT      O27028   6.381   0.816   0.964
 8929WAT     H127029   6.434   0.820   1.049
 8929WAT     H227030   6.297   0.764   0.979
 8930WAT      O27031   7.743   8.574   9.032
 8930WAT     H127032   7.722   8.482   9.000
 8930WAT     H227033   7.831   8.574   9.080
 8931WAT      O27034   1.771   8.006   4.569
 8931WAT     H127035   1.673   7.987   4.564
 8931WAT     H227036   1.796   8.024   4.663
 8932WAT      O27037   3.679   9.556   8.759
 8932WAT     H127038   3.691   9.460   8.785
 8932WAT     H227039   3.725   9.614   8.826
 8933WAT      O27040   5.995   5.310   8.755
 8933WAT     H127041   5.976   5.234   8.816
 8933WAT     H227042   6.011   5.275   8.662
 8934WAT      O27043   5.778   8.553   5.482
 8934WAT     H127044   5.761   8.543   5.580
 8934WAT     H227045   5.836   8.477   5.450
 8935WAT      O27046   4.901   4.316   7.283
 8935WAT     H127047   4.997   4.315   7.254
 8935WAT     H227048   4.896   4.297   7.381
 8936WAT      O27049   6.890   3.403   0.036
 8936WAT     H127050   6.866   3.493   0.000
 8936WAT     H227051   6.970   3.411   0.096
 8937WAT      O27052   5.202   1.055   0.033
 8937WAT     H127053   5.123   1.005   0.068
 8937WAT     H227054   5.284   0.999   0.046
 8938WAT      O27055   7.423   8.055   6.974
 8938WAT     H127056   7.523   8.043   6.977
 8938WAT     H227057   7.380   7.978   7.023
 8939WAT      O27058   7.595   8.751   1.348
 8939WAT     H127059   7.639   8.778   1.262
 8939WAT     H227060   7.506   8.795   1.355
 8940WAT      O27061   1.525   7.226   2.451
 8940WAT     H127062   1.456   7.162   2.418
 8940WAT     H227063   1.592   7.177   2.506
 8941WAT      O27064   7.810   2.437   2.144
 8941WAT     H127065   7.884   2.452   2.209
 8941WAT     H227066   7.724   2.425   2.193
 8942WAT      O27067   2.894   1.585   5.975
 8942WAT     H127068   2.840   1.659   5.935
 8942WAT     H227069   2.900   1.509   5.910
 8943WAT      O27070   9.873   6.816   3.954
 8943WAT     H127071   9.922   6.900   3.975
 8943WAT     H227072   9.925   6.763   3.887
 8944WAT      O27073   2.019   8.077   4.376
 8944WAT     H127074   2.000   8.026   4.292
 8944WAT     H227075   1.954   8.049   4.448
 8945WAT      O27076   4.471   0.509   1.428
 8945WAT     H127077   4.372   0.512   1.440
 8945WAT     H227078   4.515   0.568   1.496
 8946WAT      O27079   8.313   4.124   3.219
 8946WAT     H127080   8.369   4.044   3.198
 8946WAT     H227081   8.217   4.097   3.223
 8947WAT      O27082   7.776   8.064   9.258
 8947WAT     H127083   7.727   8.084   9.343
 8947WAT     H227084   7.857   8.122   9.252
 8948WAT      O27085   3.168   7.011   0.836
 8948WAT     H127086   3.118   7.019   0.923
 8948WAT     H227087   3.211   6.921   0.830
 8949WAT      O27088   4.553   9.276   9.352
 8949WAT     H127089   4.635   9.228   9.383
 8949WAT     H227090   4.474   9.242   9.403
 8950WAT      O27091   9.858   2.795   4.026
 8950WAT     H127092   9.831   2.817   3.932
 8950WAT     H227093   9.796   2.725   4.062
 8951WAT      O27094   1.381   8.114   0.312
 8951WAT     H127095   1.299   8.171   0.304
 8951WAT     H227096   1.403   8.076   0.222
 8952WAT      O27097   2.651   1.817   4.672
 8952WAT     H127098   2.590   1.797   4.595
 8952WAT     H227099   2.740   1.846   4.638
 8953WAT      O27100   8.797   6.561   8.533
 8953WAT     H127101   8.759   6.509   8.609
 8953WAT     H227102   8.781   6.512   8.448
 8954WAT      O27103   2.079   9.260   0.408
 8954WAT     H127104   2.005   9.318   0.373
 8954WAT     H227105   2.039   9.183   0.459
 8955WAT      O27106   3.041   1.616   5.637
 8955WAT     H127107   3.068   1.690   5.576
 8955WAT     H227108   2.950   1.583   5.610
 8956WAT      O27109   6.474   9.523   7.044
 8956WAT     H127110   6.482   9.426   7.023
 8956WAT     H227111   6.381   9.554   7.027
 8957WAT      O27112   1.459   8.827   0.507
 8957WAT     H127113   1.397   8.900   0.535
 8957WAT     H227114   1.481   8.836   0.410
 8958WAT      O27115   6.565   4.284   2.312
 8958WAT     H127116   6.477   4.238   2.308
 8958WAT     H227117   6.552   4.382   2.327
 8959WAT      O27118   4.766   8.532   1.225
 8959WAT     H127119   4.715   8.500   1.306
 8959WAT     H227120   4.840   8.467   1.206
 8960WAT      O27121   0.606   9.577   1.413
 8960WAT     H127122   0.633   9.500   1.471
 8960WAT     H227123   0.510   9.598   1.430
 8961WAT      O27124   6.077   3.001   0.683
 8961WAT     H127125   6.128   3.064   0.741
 8961WAT     H227126   5.981   3.002   0.709
 8962WAT      O27127   2.592   5.973   9.392
 8962WAT     H127128   2.557   5.943   9.303
 8962WAT     H227129   2.680   5.931   9.410
 8963WAT      O27130   1.870   7.350   6.870
 8963WAT     H127131   1.806   7.401   6.928
 8963WAT     H227132   1.844   7.253   6.870
 8964WAT      O27133   4.672   7.388   9.517
 8964WAT     H127134   4.662   7.451   9.440
 8964WAT     H227135   4.624   7.303   9.498
 8965WAT      O27136   0.453   4.981   6.549
 8965WAT     H127137   0.536   4.998   6.602
 8965WAT     H227138   0.438   5.058   6.486
 8966WAT      O27139   8.971   8.269   5.405
 8966WAT     H127140   9.003   8.336   5.338
 8966WAT     H227141   8.878   8.290   5.432
 8967WAT      O27142   9.204   2.216   8.942
 8967WAT     H127143   9.105   2.208   8.949
 8967WAT     H227144   9.243   2.129   8.912
 8968WAT      O27145   5.262   2.252   3.914
 8968WAT     H127146   5.165   2.234   3.932
 8968WAT     H227147   5.288   2.340   3.954
 8969WAT      O27148   6.405   5.349   0.400
 8969WAT     H127149   6.356   5.428   0.365
 8969WAT     H227150   6.397   5.346   0.500
 8970WAT      O27151   4.401   2.301   3.130
 8970WAT     H127152   4.420   2.226   3.193
 8970WAT     H227153   4.483   2.357   3.118
 8971WAT      O27154   0.269   4.717   8.153
 8971WAT     H127155   0.174   4.718   8.122
 8971WAT     H227156   0.272   4.730   8.252
 8972WAT      O27157   4.676   8.398   6.686
 8972WAT     H127158   4.582   8.399   6.720
 8972WAT     H227159   4.701   8.490   6.655
 8973WAT      O27160   5.838   0.812   8.242
 8973WAT     H127161   5.792   0.745   8.184
 8973WAT     H227162   5.839   0.901   8.197
 8974WAT      O27163   0.365   5.075   5.681
 8974WAT     H127164   0.376   5.174   5.673
 8974WAT     H227165   0.294   5.055   5.748
 8975WAT      O27166   7.343   8.209   7.396
 8975WAT     H127167   7.427   8.256   7.370
 8975WAT     H227168   7.269   8.274   7.406
 8976WAT      O27169   2.815   0.293   3.087
 8976WAT     H127170   2.762   0.241   3.153
 8976WAT     H227171   2.753   0.343   3.027
 8977WAT      O27172   9.561   5.072   2.579
 8977WAT     H127173   9.584   5.090   2.483
 8977WAT     H227174   9.561   4.974   2.596
 8978WAT      O27175   2.829   0.926   4.334
 8978WAT     H127176   2.899   0.912   4.405
 8978WAT     H227177   2.766   0.848   4.335
 8979WAT      O27178   5.892   4.611   9.295
 8979WAT     H127179   5.843   4.550   9.233
 8979WAT     H227180   5.866   4.591   9.389
 8980WAT      O27181   7.433   4.617   7.290
 8980WAT     H127182   7.363   4.640   7.222
 8980WAT     H227183   7.513   4.675   7.277
 8981WAT      O27184   8.952   3.328   2.625
 8981WAT     H127185   9.017   3.273   2.573
 8981WAT     H227186   8.891   3.268   2.676
 8982WAT      O27187   4.970   5.094   7.885
 8982WAT     H127188   4.946   5.038   7.805
 8982WAT     H227189   5.018   5.176   7.855
 8983WAT      O27190   5.618   2.677   5.260
 8983WAT     H127191   5.566   2.695   5.344
 8983WAT     H227192   5.715   2.685   5.279
 8984WAT      O27193   7.273   9.015   5.013
 8984WAT     H127194   7.209   9.092   5.021
 8984WAT     H227195   7.350   9.041   4.955
 8985WAT      O27196   4.785   4.318   6.483
 8985WAT     H127197   4.750   4.232   6.520
 8985WAT     H227198   4.841   4.363   6.552
 8986WAT      O27199   3.352   2.544   0.574
 8986WAT     H127200   3.367   2.621   0.512
 8986WAT     H227201   3.257   2.514   0.566
 8987WAT      O27202   4.760   6.101   1.268
 8987WAT     H127203   4.840   6.160   1.256
 8987WAT     H227204   4.748   6.043   1.187
 8988WAT      O27205   0.823   9.099   2.502
 8988WAT     H127206   0.841   9.164   2.576
 8988WAT     H227207   0.737   9.052   2.518
 8989WAT      O27208   7.964   5.217   5.241
 8989WAT     H127209   7.958   5.272   5.324
 8989WAT     H227210   8.056   5.223   5.203
 8990WAT      O27211   2.120   8.328   5.357
 8990WAT     H127212   2.067   8.277   5.425
 8990WAT     H227213   2.060   8.388   5.305
 8991WAT      O27214   3.846   6.796   3.115
 8991WAT     H127215   3.825   6.823   3.209
 8991WAT     H227216   3.919   6.728   3.115
 8992WAT      O27217   0.028   0.709   5.252
 8992WAT     H127218   0.103   0.706   5.319
 8992WAT     H227219   0.048   0.779   5.183
 8993WAT      O27220   3.637   0.544   4.845
 8993WAT     H127221   3.590   0.531   4.932
 8993WAT     H227222   3.723   0.493   4.846
 8994WAT      O27223   1.115   3.670   7.646
 8994WAT     H127224   1.197   3.656   7.590
 8994WAT     H227225   1.141   3.669   7.743
 8995WAT      O27226   8.108   2.077   1.137
 8995WAT     H127227   8.197   2.061   1.094
 8995WAT     H227228   8.038   2.085   1.066
 8996WAT      O27229   4.840   6.758   7.130
 8996WAT     H127230   4.775   6.692   7.168
 8996WAT     H227231   4.825   6.768   7.032
 8997WAT      O27232   5.156   5.195   3.018
 8997WAT     H127233   5.185   5.217   3.111
 8997WAT     H227234   5.083   5.258   2.991
 8998WAT      O27235   9.256   6.939   5.162
 8998WAT     H127236   9.212   6.851   5.147
 8998WAT     H227237   9.288   6.944   5.257
 8999WAT      O27238   4.906   2.117   6.059
 8999WAT     H127239   4.839   2.143   6.129
 8999WAT     H227240   4.861   2.064   5.987
 9000WAT      O27241   0.366   4.762   5.036
 9000WAT     H127242   0.300   4.712   4.979
 9000WAT     H227243   0.323   4.786   5.123
 9001WAT      O27244   0.023   5.040   1.673
 9001WAT     H127245   0.013   5.099   1.754
 9001WAT     H227246  -0.058   5.050   1.615
 9002WAT      O27247   9.377   0.427   0.228
 9002WAT     H127248   9.302   0.483   0.263
 9002WAT     H227249   9.372   0.422   0.128
 9003WAT      O27250   3.135   1.473   4.273
 9003WAT     H127251   3.154   1.439   4.181
 9003WAT     H227252   3.042   1.446   4.300
 9004WAT      O27253   3.000   0.490   8.386
 9004WAT     H127254   3.073   0.492   8.317
 9004WAT     H227255   3.020   0.418   8.453
 9005WAT      O27256   2.552   3.921   8.010
 9005WAT     H127257   2.629   3.932   8.072
 9005WAT     H227258   2.550   3.996   7.944
 9006WAT      O27259   4.038   1.710   0.224
 9006WAT     H127260   4.065   1.768   0.147
 9006WAT     H227261   4.079   1.619   0.213
 9007WAT      O27262   5.415   9.685   2.760
 9007WAT     H127263   5.330   9.733   2.779
 9007WAT     H227264   5.431   9.681   2.662
 9008WAT      O27265   7.681   0.214   5.410
 9008WAT     H127266   7.768   0.180   5.446
 9008WAT     H227267   7.633   0.264   5.482
 9009WAT      O27268   0.086   8.770   2.943
 9009WAT     H127269   0.007   8.828   2.960
 9009WAT     H227270   0.056   8.685   2.899
 9010WAT      O27271   9.749   5.598   2.901
 9010WAT     H127272   9.796   5.643   2.824
 9010WAT     H227273   9.807   5.604   2.982
 9011WAT      O27274   2.578   8.215   1.250
 9011WAT     H127275   2.529   8.302   1.240
 9011WAT     H227276   2.641   8.221   1.328
 9012WAT      O27277   3.627   9.829   6.031
 9012WAT     H127278   3.571   9.786   6.102
 9012WAT     H227279   3.716   9.855   6.070
 9013WAT      O27280   4.435   6.132   8.819
 9013WAT     H127281   4.510   6.096   8.763
 9013WAT     H227282   4.405   6.220   8.781
 9014WAT      O27283   7.113   4.483   2.932
 9014WAT     H127284   7.153   4.530   2.853
 9014WAT     H227285   7.044   4.541   2.974
 9015WAT      O27286   3.620   9.376   8.333
 9015WAT     H127287   3.683   9.441   8.374
 9015WAT     H227288   3.635   9.285   8.372
 9016WAT      O27289   5.755   5.055   7.619
 9016WAT     H127290   5.754   5.035   7.717
 9016WAT     H227291   5.682   5.119   7.597
 9017WAT      O27292   9.055   8.900   8.055
 9017WAT     H127293   8.960   8.927   8.040
 9017WAT     H227294   9.115   8.972   8.021
 9018WAT      O27295   7.393   4.390   7.449
 9018WAT     H127296   7.475   4.358   7.498
 9018WAT     H227297   7.416   4.471   7.395
 9019WAT      O27298   8.689   3.438   4.018
 9019WAT     H127299   8.763   3.381   4.054
 9019WAT     H227300   8.723   3.531   4.003
 9020WAT      O27301   8.349   2.483   2.504
 9020WAT     H127302   8.435   2.455   2.548
 9020WAT     H227303   8.369   2.543   2.427
 9021WAT      O27304   5.822   0.030   9.286
 9021WAT     H127305   5.733  -0.013   9.302
 9021WAT     H227306   5.847   0.085   9.366
 9022WAT      O27307   3.212   2.787   3.605
 9022WAT     H127308   3.219   2.884   3.582
 9022WAT     H227309   3.127   2.750   3.567
 9023WAT      O27310   3.215   0.168   7.648
 9023WAT     H127311   3.281   0.096   7.626
 9023WAT     H227312   3.197   0.223   7.566
 9024WAT      O27313   6.135   1.414   3.885
 9024WAT     H127314   6.081   1.498   3.874
 9024WAT     H227315   6.126   1.359   3.802
 9025WAT      O27316   8.547   7.609   2.095
 9025WAT     H127317   8.638   7.626   2.133
 9025WAT     H227318   8.511   7.694   2.057
 9026WAT      O27319   6.821   3.067   7.761
 9026WAT     H127320   6.909   3.044   7.720
 9026WAT     H227321   6.764   3.115   7.693
 9027WAT      O27322   4.781   6.545   2.639
 9027WAT     H127323   4.753   6.641   2.632
 9027WAT     H227324   4.771   6.501   2.550
 9028WAT      O27325   6.063   8.359   8.950
 9028WAT     H127326   5.986   8.404   8.905
 9028WAT     H227327   6.030   8.278   8.998
 9029WAT      O27328   1.651   0.603   6.864
 9029WAT     H127329   1.711   0.620   6.785
 9029WAT     H227330   1.620   0.508   6.862
 9030WAT      O27331   4.160  -0.006   7.497
 9030WAT     H127332   4.228   0.066   7.481
 9030WAT     H227333   4.069   0.035   7.499
 9031WAT      O27334   6.565   2.838   5.797
 9031WAT     H127335   6.640   2.903   5.803
 9031WAT     H227336   6.492   2.864   5.860
 9032WAT      O27337   8.558   9.762   7.691
 9032WAT     H127338   8.638   9.800   7.739
 9032WAT     H227339   8.573   9.666   7.671
 9033WAT      O27340   8.530   3.093   2.188
 9033WAT     H127341   8.436   3.074   2.215
 9033WAT     H227342   8.535   3.183   2.144
 9034WAT      O27343   7.681   2.810   8.950
 9034WAT     H127344   7.779   2.830   8.945
 9034WAT     H227345   7.665   2.736   9.015
 9035WAT      O27346   9.831   7.855   8.321
 9035WAT     H127347   9.851   7.950   8.344
 9035WAT     H227348   9.732   7.843   8.307
 9036WAT      O27349   8.608   8.525   8.952
 9036WAT     H127350   8.587   8.487   9.042
 9036WAT     H227351   8.707   8.531   8.941
 9037WAT      O27352   1.933   8.502   8.673
 9037WAT     H127353   1.896   8.441   8.604
 9037WAT     H227354   2.029   8.522   8.652
 9038WAT      O27355   9.074   1.364   8.295
 9038WAT     H127356   9.128   1.411   8.227
 9038WAT     H227357   8.977   1.367   8.269
 9039WAT      O27358   5.808   3.104   2.494
 9039WAT     H127359   5.735   3.169   2.515
 9039WAT     H227360   5.769   3.015   2.472
 9040WAT      O27361   3.657   4.236   9.465
 9040WAT     H127362   3.612   4.303   9.524
 9040WAT     H227363   3.594   4.161   9.446
 9041WAT      O27364   9.823   4.076   0.959
 9041WAT     H127365   9.752   4.043   1.020
 9041WAT     H227366   9.856   4.001   0.902
 9042WAT      O27367   4.595   1.064   8.145
 9042WAT     H127368   4.536   0.985   8.129
 9042WAT     H227369   4.679   1.054   8.092
 9043WAT      O27370   9.762   9.584   9.574
 9043WAT     H127371   9.752   9.628   9.663
 9043WAT     H227372   9.821   9.639   9.515
 9044WAT      O27373   3.889   6.190   4.637
 9044WAT     H127374   3.835   6.184   4.553
 9044WAT     H227375   3.943   6.274   4.637
 9045WAT      O27376   6.601   5.723   4.429
 9045WAT     H127377   6.603   5.752   4.334
 9045WAT     H227378   6.609   5.623   4.434
 9046WAT      O27379   3.981   8.928   3.093
 9046WAT     H127380   3.892   8.882   3.097
 9046WAT     H227381   3.987   8.982   3.009
 9047WAT      O27382   2.117   1.168   7.398
 9047WAT     H127383   2.043   1.163   7.331
 9047WAT     H227384   2.165   1.080   7.401
 9048WAT      O27385   8.100   8.933   9.268
 9048WAT     H127386   8.027   8.899   9.209
 9048WAT     H227387   8.171   8.863   9.276
 9049WAT      O27388   8.828   7.558   2.336
 9049WAT     H127389   8.775   7.474   2.331
 9049WAT     H227390   8.909   7.543   2.392
 9050WAT      O27391   7.080   3.457   0.240
 9050WAT     H127392   7.116   3.394   0.309
 9050WAT     H227393   7.156   3.501   0.193
 9051WAT      O27394   8.800   7.544   9.172
 9051WAT     H127395   8.701   7.539   9.191
 9051WAT     H227396   8.823   7.636   9.140
 9052WAT      O27397   1.200   4.086   9.600
 9052WAT     H127398   1.279   4.027   9.617
 9052WAT     H227399   1.148   4.096   9.685
 9053WAT      O27400   9.198   7.175   7.756
 9053WAT     H127401   9.194   7.101   7.824
 9053WAT     H227402   9.294   7.189   7.729
 9054WAT      O27403   1.939   7.766   1.091
 9054WAT     H127404   1.898   7.722   1.171
 9054WAT     H227405   2.016   7.823   1.120
 9055WAT      O27406   3.876   2.911   1.039
 9055WAT     H127407   3.975   2.921   1.029
 9055WAT     H227408   3.830   2.988   0.995
 9056WAT      O27409   6.991   4.004   8.672
 9056WAT     H127410   7.003   4.101   8.650
 9056WAT     H227411   7.049   3.949   8.611
 9057WAT      O27412   1.723   4.002   6.512
 9057WAT     H127413   1.646   3.940   6.503
 9057WAT     H227414   1.773   3.981   6.596
 9058WAT      O27415   1.471   8.039   2.376
 9058WAT     H127416   1.397   8.102   2.353
 9058WAT     H227417   1.467   8.017   2.474
 9059WAT      O27418   3.784   6.744   5.572
 9059WAT     H127419   3.841   6.753   5.654
 9059WAT     H227420   3.688   6.751   5.598
 9060WAT      O27421   5.446   3.152   1.694
 9060WAT     H127422   5.350   3.169   1.675
 9060WAT     H227423   5.458   3.137   1.793
 9061WAT      O27424   3.524   3.755   5.031
 9061WAT     H127425   3.520   3.753   4.931
 9061WAT     H227426   3.432   3.742   5.068
 9062WAT      O27427   3.647   6.391   6.741
 9062WAT     H127428   3.613   6.375   6.649
 9062WAT     H227429   3.648   6.489   6.760
 9063WAT      O27430   1.617   5.124   5.068
 9063WAT     H127431   1.532   5.144   5.018
 9063WAT     H227432   1.614   5.030   5.102
 9064WAT      O27433   1.078   7.919   1.379
 9064WAT     H127434   1.167   7.919   1.333
 9064WAT     H227435   1.070   7.999   1.438
 9065WAT      O27436   4.815   5.862   9.722
 9065WAT     H127437   4.822   5.880   9.624
 9065WAT     H227438   4.759   5.780   9.737
 9066WAT      O27439   0.408   2.286   5.334
 9066WAT     H127440   0.346   2.236   5.274
 9066WAT     H227441   0.420   2.236   5.419
 9067WAT      O27442   9.454   4.578   3.916
 9067WAT     H127443   9.459   4.483   3.885
 9067WAT     H227444   9.507   4.589   4.000
 9068WAT      O27445   0.410   8.124   2.731
 9068WAT     H127446   0.353   8.043   2.744
 9068WAT     H227447   0.507   8.098   2.735
 9069WAT      O27448   1.433   1.639   8.042
 9069WAT     H127449   1.421   1.545   8.011
 9069WAT     H227450   1.392   1.650   8.133
 9070WAT      O27451   8.078   1.380   2.027
 9070WAT     H127452   8.101   1.470   1.991
 9070WAT     H227453   7.992   1.349   1.986
 9071WAT      O27454   4.731   9.583   2.897
 9071WAT     H127455   4.726   9.535   2.809
 9071WAT     H227456   4.697   9.523   2.969
 9072WAT      O27457   5.444   9.837   6.168
 9072WAT     H127458   5.398   9.765   6.117
 9072WAT     H227459   5.486   9.901   6.104
 9073WAT      O27460   5.940   3.790   5.168
 9073WAT     H127461   5.853   3.837   5.182
 9073WAT     H227462   5.992   3.837   5.097
 9074WAT      O27463   9.038   6.100   0.024
 9074WAT     H127464   8.945   6.102   0.061
 9074WAT     H227465   9.046   6.027  -0.043
 9075WAT      O27466   1.598   3.821   4.979
 9075WAT     H127467   1.545   3.781   4.905
 9075WAT     H227468   1.662   3.753   5.015
 9076WAT      O27469   5.959   0.301   1.607
 9076WAT     H127470   5.997   0.393   1.609
 9076WAT     H227471   5.871   0.300   1.655
 9077WAT      O27472   4.442   1.545   9.199
 9077WAT     H127473   4.520   1.608   9.199
 9077WAT     H227474   4.423   1.516   9.293
 9078WAT      O27475   7.920   3.949   3.428
 9078WAT     H127476   7.874   3.887   3.491
 9078WAT     H227477   7.916   4.043   3.464
 9079WAT      O27478   3.218   9.225   8.174
 9079WAT     H127479   3.284   9.287   8.215
 9079WAT     H227480   3.140   9.214   8.235
 9080WAT      O27481   4.163   2.743   5.868
 9080WAT     H127482   4.172   2.726   5.966
 9080WAT     H227483   4.071   2.718   5.838
 9081WAT      O27484   4.233   2.269   0.519
 9081WAT     H127485   4.285   2.344   0.477
 9081WAT     H227486   4.282   2.183   0.508
 9082WAT      O27487   0.679   3.329   5.659
 9082WAT     H127488   0.637   3.367   5.577
 9082WAT     H227489   0.610   3.281   5.713
 9083WAT      O27490   5.300   5.972   1.062
 9083WAT     H127491   5.255   5.910   1.126
 9083WAT     H227492   5.399   5.962   1.071
 9084WAT      O27493   3.857   4.679   0.485
 9084WAT     H127494   3.842   4.581   0.477
 9084WAT     H227495   3.955   4.699   0.475
 9085WAT      O27496   5.026   8.765   8.155
 9085WAT     H127497   5.027   8.838   8.223
 9085WAT     H227498   5.119   8.735   8.137
 9086WAT      O27499   0.703   1.783   8.948
 9086WAT     H127500   0.732   1.687   8.940
 9086WAT     H227501   0.784   1.842   8.948
 9087WAT      O27502   8.184   1.398   7.803
 9087WAT     H127503   8.143   1.332   7.741
 9087WAT     H227504   8.142   1.390   7.893
 9088WAT      O27505   7.770   9.081   9.490
 9088WAT     H127506   7.776   8.990   9.451
 9088WAT     H227507   7.843   9.138   9.452
 9089WAT      O27508   1.831   6.926   8.847
 9089WAT     H127509   1.929   6.909   8.853
 9089WAT     H227510   1.815   7.010   8.794
 9090WAT      O27511   1.657   4.024   3.858
 9090WAT     H127512   1.681   4.120   3.844
 9090WAT     H227513   1.700   3.990   3.941
 9091WAT      O27514   2.613   5.139   5.652
 9091WAT     H127515   2.519   5.136   5.686
 9091WAT     H227516   2.637   5.051   5.612
 9092WAT      O27517   8.844   6.699   4.974
 9092WAT     H127518   8.820   6.608   4.939
 9092WAT     H227519   8.856   6.761   4.897
 9093WAT      O27520   5.811   8.012   7.567
 9093WAT     H127521   5.874   8.043   7.638
 9093WAT     H227522   5.723   7.990   7.608
 9094WAT      O27523   8.660   6.300   9.610
 9094WAT     H127524   8.717   6.333   9.535
 9094WAT     H227525   8.660   6.200   9.611
 9095WAT      O27526   2.828   6.270   0.528
 9095WAT     H127527   2.755   6.201   0.528
 9095WAT     H227528   2.875   6.268   0.440
 9096WAT      O27529   9.092   7.539   2.833
 9096WAT     H127530   9.178   7.588   2.816
 9096WAT     H227531   9.019   7.604   2.850
 9097WAT      O27532   5.154   8.804   0.424
 9097WAT     H127533   5.108   8.715   0.434
 9097WAT     H227534   5.151   8.833   0.328
 9098WAT      O27535   6.971   9.288   9.343
 9098WAT     H127536   6.903   9.215   9.336
 9098WAT     H227537   6.960   9.352   9.267
 9099WAT      O27538   8.762   7.232   0.572
 9099WAT     H127539   8.770   7.133   0.586
 9099WAT     H227540   8.745   7.278   0.659
 9100WAT      O27541   9.821   6.267   3.639
 9100WAT     H127542   9.912   6.244   3.603
 9100WAT     H227543   9.754   6.201   3.605
 9101WAT      O27544   5.013   4.942   6.029
 9101WAT     H127545   5.042   5.003   5.956
 9101WAT     H227546   4.958   4.993   6.096
 9102WAT      O27547   8.781   9.444   5.514
 9102WAT     H127548   8.694   9.399   5.492
 9102WAT     H227549   8.856   9.385   5.485
 9103WAT      O27550   6.256   4.768   2.233
 9103WAT     H127551   6.279   4.713   2.153
 9103WAT     H227552   6.157   4.783   2.236
 9104WAT      O27553   3.907   6.354   5.482
 9104WAT     H127554   3.983   6.419   5.481
 9104WAT     H227555   3.858   6.361   5.568
 9105WAT      O27556   7.118   1.416   2.522
 9105WAT     H127557   7.027   1.383   2.497
 9105WAT     H227558   7.174   1.339   2.554
 9106WAT      O27559   7.432   5.281   3.635
 9106WAT     H127560   7.368   5.339   3.685
 9106WAT     H227561   7.525   5.316   3.647
 9107WAT      O27562   0.588   8.819   8.753
 9107WAT     H127563   0.625   8.906   8.718
 9107WAT     H227564   0.583   8.823   8.852
 9108WAT      O27565   9.675   1.331   8.245
 9108WAT     H127566   9.736   1.339   8.167
 9108WAT     H227567   9.620   1.414   8.253
 9109WAT      O27568   7.975   3.591   8.718
 9109WAT     H127569   7.979   3.513   8.780
 9109WAT     H227570   7.887   3.637   8.727
 9110WAT      O27571   2.441   6.469   7.614
 9110WAT     H127572   2.365   6.411   7.640
 9110WAT     H227573   2.448   6.546   7.677
 9111WAT      O27574   8.871   9.136   4.357
 9111WAT     H127575   8.810   9.180   4.423
 9111WAT     H227576   8.936   9.078   4.406
 9112WAT      O27577   6.785   6.821   1.973
 9112WAT     H127578   6.865   6.792   1.920
 9112WAT     H227579   6.703   6.814   1.917
 9113WAT      O27580   7.505   4.059   3.466
 9113WAT     H127581   7.563   4.077   3.545
 9113WAT     H227582   7.481   4.145   3.421
 9114WAT      O27583   1.021   2.135   4.343
 9114WAT     H127584   0.965   2.147   4.425
 9114WAT     H227585   1.078   2.054   4.352
 9115WAT      O27586   7.573   7.737   1.266
 9115WAT     H127587   7.544   7.826   1.231
 9115WAT     H227588   7.666   7.745   1.302
 9116WAT      O27589   3.932   5.063   3.304
 9116WAT     H127590   3.859   5.003   3.272
 9116WAT     H227591   3.920   5.082   3.401
 9117WAT      O27592   8.714   0.293   9.372
 9117WAT     H127593   8.680   0.291   9.466
 9117WAT     H227594   8.719   0.388   9.340
 9118WAT      O27595   9.240   7.346   4.403
 9118WAT     H127596   9.258   7.408   4.327
 9118WAT     H227597   9.141   7.339   4.417
 9119WAT      O27598   4.860   9.057   0.977
 9119WAT     H127599   4.897   9.061   0.884
 9119WAT     H227600   4.765   9.027   0.974
 9120WAT      O27601   7.617   4.701   4.031
 9120WAT     H127602   7.703   4.650   4.027
 9120WAT     H227603   7.635   4.798   4.014
 9121WAT      O27604   6.755   9.241   8.246
 9121WAT     H127605   6.836   9.299   8.236
 9121WAT     H227606   6.742   9.219   8.343
 9122WAT      O27607   4.285   0.498   0.815
 9122WAT     H127608   4.260   0.402   0.827
 9122WAT     H227609   4.285   0.544   0.903
 9123WAT      O27610   9.072   8.500   6.553
 9123WAT     H127611   9.088   8.599   6.552
 9123WAT     H227612   9.153   8.454   6.587
 9124WAT      O27613   8.431   7.152   0.586
 9124WAT     H127614   8.477   7.169   0.499
 9124WAT     H227615   8.478   7.079   0.636
 9125WAT      O27616   0.078   3.007   1.254
 9125WAT     H127617   0.064   3.106   1.263
 9125WAT     H227618   0.154   2.979   1.312
 9126WAT      O27619   2.989   0.016   2.410
 9126WAT     H127620   3.031  -0.067   2.446
 9126WAT     H227621   3.056   0.068   2.357
 9127WAT      O27622   0.618   7.897   7.446
 9127WAT     H127623   0.664   7.986   7.439
 9127WAT     H227624   0.571   7.876   7.361
 9128WAT      O27625   2.875   6.963   8.029
 9128WAT     H127626   2.886   6.987   8.125
 9128WAT     H227627   2.937   7.020   7.974
 9129WAT      O27628   8.660   2.480   9.791
 9129WAT     H127629   8.670   2.488   9.890
 9129WAT     H227630   8.640   2.385   9.767
 9130WAT      O27631   7.407   2.131   5.263
 9130WAT     H127632   7.459   2.217   5.268
 9130WAT     H227633   7.413   2.094   5.170
 9131WAT      O27634   8.611   4.959   2.805
 9131WAT     H127635   8.576   4.958   2.898
 9131WAT     H227636   8.572   5.036   2.755
 9132WAT      O27637   0.636   2.700   3.182
 9132WAT     H127638   0.618   2.778   3.243
 9132WAT     H227639   0.621   2.615   3.233
 9133WAT      O27640   2.691   7.075   9.068
 9133WAT     H127641   2.615   7.070   9.133
 9133WAT     H227642   2.762   7.134   9.104
 9134WAT      O27643   0.326   4.805   7.630
 9134WAT     H127644   0.339   4.851   7.542
 9134WAT     H227645   0.236   4.829   7.667
 9135WAT      O27646   9.639   1.707   9.072
 9135WAT     H127647   9.589   1.622   9.088
 9135WAT     H227648   9.607   1.750   8.988
 9136WAT      O27649   0.414   5.562   7.424
 9136WAT     H127650   0.434   5.496   7.352
 9136WAT     H227651   0.485   5.633   7.425
 9137WAT      O27652   5.199   2.277   0.473
 9137WAT     H127653   5.184   2.178   0.470
 9137WAT     H227654   5.170   2.318   0.387
 9138WAT      O27655   3.537   0.421   7.989
 9138WAT     H127656   3.594   0.501   8.007
 9138WAT     H227657   3.550   0.391   7.894
 9139WAT      O27658   9.754   4.787   1.085
 9139WAT     H127659   9.781   4.852   1.014
 9139WAT     H227660   9.744   4.696   1.045
 9140WAT      O27661   6.702   7.396   4.850
 9140WAT     H127662   6.687   7.304   4.888
 9140WAT     H227663   6.798   7.421   4.861
 9141WAT      O27664   2.558   4.625   7.152
 9141WAT     H127665   2.597   4.654   7.239
 9141WAT     H227666   2.630   4.624   7.083
 9142WAT      O27667   3.570   7.312   2.732
 9142WAT     H127668   3.515   7.239   2.774
 9142WAT     H227669   3.632   7.272   2.664
 9143WAT      O27670   6.482   8.903   7.963
 9143WAT     H127671   6.562   8.931   8.015
 9143WAT     H227672   6.498   8.919   7.865
 9144WAT      O27673   8.860   7.119   2.954
 9144WAT     H127674   8.812   7.067   3.025
 9144WAT     H227675   8.895   7.205   2.993
 9145WAT      O27676   4.393   1.066   2.859
 9145WAT     H127677   4.312   1.047   2.804
 9145WAT     H227678   4.413   0.986   2.916
 9146WAT      O27679   7.772   6.991   6.500
 9146WAT     H127680   7.677   6.963   6.505
 9146WAT     H227681   7.828   6.933   6.559
 9147WAT      O27682   6.246   9.548   0.069
 9147WAT     H127683   6.209   9.459   0.042
 9147WAT     H227684   6.310   9.581  -0.000
 9148WAT      O27685   9.751   0.719   6.455
 9148WAT     H127686   9.769   0.676   6.366
 9148WAT     H227687   9.750   0.649   6.526
 9149WAT      O27688   6.184   0.674   8.911
 9149WAT     H127689   6.137   0.762   8.917
 9149WAT     H227690   6.117   0.600   8.914
 9150WAT      O27691   5.432   3.849   5.326
 9150WAT     H127692   5.383   3.895   5.400
 9150WAT     H227693   5.411   3.751   5.328
 9151WAT      O27694   4.327   5.420   1.756
 9151WAT     H127695   4.398   5.408   1.686
 9151WAT     H227696   4.263   5.491   1.726
 9152WAT      O27697   9.327   5.430   2.151
 9152WAT     H127698   9.350   5.342   2.110
 9152WAT     H227699   9.243   5.466   2.110
 9153WAT      O27700   1.682   6.795   7.591
 9153WAT     H127701   1.742   6.870   7.619
 9153WAT     H227702   1.633   6.761   7.672
 9154WAT      O27703   7.431   7.438   3.802
 9154WAT     H127704   7.459   7.533   3.787
 9154WAT     H227705   7.480   7.400   3.880
 9155WAT      O27706   3.906   0.711   4.611
 9155WAT     H127707   3.870   0.692   4.520
 9155WAT     H227708   3.831   0.728   4.675
 9156WAT      O27709   1.477   9.718   0.879
 9156WAT     H127710   1.478   9.793   0.944
 9156WAT     H227711   1.422   9.744   0.799
 9157WAT      O27712   7.976   5.427   6.617
 9157WAT     H127713   7.931   5.436   6.706
 9157WAT     H227714   7.963   5.334   6.582
 9158WAT      O27715   1.150   2.751   0.762
 9158WAT     H127716   1.085   2.721   0.692
 9158WAT     H227717   1.139   2.696   0.844
 9159WAT      O27718   7.101   2.645   9.845
 9159WAT     H127719   7.186   2.697   9.839
 9159WAT     H227720   7.052   2.652   9.758
 9160WAT      O27721   2.092   5.835   7.831
 9160WAT     H127722   2.044   5.786   7.758
 9160WAT     H227723   2.025   5.866   7.900
 9161WAT      O27724   9.411   1.695   5.730
 9161WAT     H127725   9.315   1.668   5.721
 9161WAT     H227726   9.432   1.712   5.826
 9162WAT      O27727   6.759   7.812   9.140
 9162WAT     H127728   6.803   7.886   9.089
 9162WAT     H227729   6.792   7.724   9.105
 9163WAT      O27730   7.528   8.921   2.023
 9163WAT     H127731   7.518   8.849   2.092
 9163WAT     H227732   7.438   8.948   1.989
 9164WAT      O27733   4.910   4.520   3.050
 9164WAT     H127734   4.825   4.472   3.071
 9164WAT     H227735   4.895   4.584   2.974
 9165WAT      O27736   4.644   3.602   3.445
 9165WAT     H127737   4.562   3.644   3.407
 9165WAT     H227738   4.725   3.650   3.412
 9166WAT      O27739   5.685   2.008   6.045
 9166WAT     H127740   5.777   2.047   6.050
 9166WAT     H227741   5.618   2.082   6.041
 9167WAT      O27742   6.751   4.502   2.168
 9167WAT     H127743   6.814   4.579   2.162
 9167WAT     H227744   6.700   4.507   2.254
 9168WAT      O27745   2.844   8.481   9.215
 9168WAT     H127746   2.766   8.515   9.162
 9168WAT     H227747   2.817   8.397   9.263
 9169WAT      O27748   7.393   5.644   8.257
 9169WAT     H127749   7.398   5.554   8.214
 9169WAT     H227750   7.383   5.634   8.356
 9170WAT      O27751   8.082   0.160   7.671
 9170WAT     H127752   8.151   0.119   7.731
 9170WAT     H227753   8.126   0.224   7.609
 9171WAT      O27754   7.121   5.839   4.074
 9171WAT     H127755   7.200   5.818   4.132
 9171WAT     H227756   7.085   5.755   4.034
 9172WAT      O27757   5.518   1.607   0.451
 9172WAT     H127758   5.564   1.695   0.462
 9172WAT     H227759   5.426   1.621   0.415
 9173WAT      O27760   5.092   1.465   2.462
 9173WAT     H127761   5.082   1.404   2.540
 9173WAT     H227762   5.182   1.509   2.466
 9174WAT      O27763   1.325   5.501   6.373
 9174WAT     H127764   1.326   5.525   6.276
 9174WAT     H227765   1.411   5.457   6.397
 9175WAT      O27766   1.351   6.608   9.429
 9175WAT     H127767   1.397   6.685   9.474
 9175WAT     H227768   1.256   6.633   9.410
 9176WAT      O27769   8.523   3.164   8.746
 9176WAT     H127770   8.616   3.187   8.717
 9176WAT     H227771   8.510   3.189   8.842
 9177WAT      O27772   2.336   8.038   4.058
 9177WAT     H127773   2.238   8.057   4.050
 9177WAT     H227774   2.387   8.124   4.061
 9178WAT      O27775   3.124   8.718   1.849
 9178WAT     H127776   3.149   8.798   1.904
 9178WAT     H227777   3.030   8.691   1.870
 9179WAT      O27778   4.016   1.739   5.023
 9179WAT     H127779   3.966   1.721   4.938
 9179WAT     H227780   4.085   1.809   5.007
 9180WAT      O27781   8.085   6.497   2.680
 9180WAT     H127782   8.171   6.496   2.732
 9180WAT     H227783   8.033   6.579   2.704
 9181WAT      O27784   8.859   2.144   0.130
 9181WAT     H127785   8.791   2.147   0.057
 9181WAT     H227786   8.901   2.053   0.132
 9182WAT      O27787   0.738   6.266   1.720
 9182WAT     H127788   0.724   6.167   1.732
 9182WAT     H227789   0.654   6.307   1.684
 9183WAT      O27790   4.657   4.125   8.803
 9183WAT     H127791   4.663   4.192   8.878
 9183WAT     H227792   4.660   4.033   8.842
 9184WAT      O27793   6.610   3.099   9.176
 9184WAT     H127794   6.546   3.153   9.122
 9184WAT     H227795   6.643   3.022   9.121
 9185WAT      O27796   5.586   5.642   1.254
 9185WAT     H127797   5.555   5.684   1.169
 9185WAT     H227798   5.611   5.713   1.320
 9186WAT      O27799   2.465   4.569   0.208
 9186WAT     H127800   2.562   4.544   0.203
 9186WAT     H227801   2.441   4.626   0.129
 9187WAT      O27802   2.824   6.530   0.605
 9187WAT     H127803   2.821   6.435   0.576
 9187WAT     H227804   2.830   6.534   0.705
 9188WAT      O27805   1.385   4.922   8.333
 9188WAT     H127806   1.339   4.942   8.246
 9188WAT     H227807   1.325   4.867   8.390
 9189WAT      O27808   8.382   4.573   9.450
 9189WAT     H127809   8.401   4.655   9.504
 9189WAT     H227810   8.468   4.539   9.412
 9190WAT      O27811   3.015   6.286   8.831
 9190WAT     H127812   3.000   6.383   8.812
 9190WAT     H227813   3.080   6.276   8.905
 9191WAT      O27814   1.461   1.168   5.213
 9191WAT     H127815   1.371   1.198   5.180
 9191WAT     H227816   1.474   1.072   5.189
 9192WAT      O27817   4.372   6.735   6.599
 9192WAT     H127818   4.288   6.784   6.624
 9192WAT     H227819   4.357   6.637   6.609
 9193WAT      O27820   2.535   8.141   8.244
 9193WAT     H127821   2.469   8.087   8.296
 9193WAT     H227822   2.615   8.085   8.221
 9194WAT      O27823   5.445   2.828   7.318
 9194WAT     H127824   5.376   2.862   7.382
 9194WAT     H227825   5.484   2.904   7.268
 9195WAT      O27826   3.322   1.609   5.033
 9195WAT     H127827   3.362   1.525   5.070
 9195WAT     H227828   3.376   1.639   4.955
 9196WAT      O27829   9.310   6.592   5.923
 9196WAT     H127830   9.301   6.509   5.868
 9196WAT     H227831   9.365   6.659   5.873
 9197WAT      O27832   1.185   1.648   3.992
 9197WAT     H127833   1.254   1.641   3.919
 9197WAT     H227834   1.184   1.742   4.026
 9198WAT      O27835   0.376   3.889   2.026
 9198WAT     H127836   0.456   3.832   2.047
 9198WAT     H227837   0.351   3.878   1.930
 9199WAT      O27838   5.607   8.194   0.670
 9199WAT     H127839   5.617   8.106   0.623
 9199WAT     H227840   5.696   8.238   0.678
 9200WAT      O27841   9.404   1.386   4.400
 9200WAT     H127842   9.409   1.325   4.480
 9200WAT     H227843   9.309   1.399   4.374
 9201WAT      O27844   0.022   0.299   6.306
 9201WAT     H127845   0.048   0.251   6.222
 9201WAT     H227846  -0.065   0.265   6.339
 9202WAT      O27847   9.769   1.982   3.416
 9202WAT     H127848   9.738   1.906   3.473
 9202WAT     H227849   9.839   2.034   3.464
 9203WAT      O27850   5.569   4.239   6.062
 9203WAT     H127851   5.622   4.202   6.138
 9203WAT     H227852   5.626   4.301   6.009
 9204WAT      O27853   9.828   7.483   2.138
 9204WAT     H127854   9.795   7.411   2.077
 9204WAT     H227855   9.922   7.505   2.115
 9205WAT      O27856   5.942   6.935   5.689
 9205WAT     H127857   5.940   6.940   5.789
 9205WAT     H227858   5.848   6.931   5.655
 9206WAT      O27859   0.038   0.149   0.352
 9206WAT     H127860   0.027   0.113   0.260
 9206WAT     H227861  -0.047   0.137   0.403
 9207WAT      O27862   4.767   6.378   8.105
 9207WAT     H127863   4.792   6.457   8.050
 9207WAT     H227864   4.841   6.358   8.170
 9208WAT      O27865   1.068   8.795   2.827
 9208WAT     H127866   1.055   8.893   2.840
 9208WAT     H227867   1.004   8.762   2.757
 9209WAT      O27868   5.854   7.326   3.040
 9209WAT     H127869   5.947   7.315   3.003
 9209WAT     H227870   5.850   7.408   3.097
 9210WAT      O27871   9.380   2.011   8.945
 9210WAT     H127872   9.344   1.926   8.908
 9210WAT     H227873   9.390   2.003   9.044
 9211WAT      O27874   6.600   8.029   8.984
 9211WAT     H127875   6.534   7.956   8.968
 9211WAT     H227876   6.551   8.115   9.001
 9212WAT      O27877   6.725   4.755   1.448
 9212WAT     H127878   6.809   4.769   1.395
 9212WAT     H227879   6.748   4.747   1.545
 9213WAT      O27880   2.858   9.738   4.745
 9213WAT     H127881   2.800   9.737   4.827
 9213WAT     H227882   2.818   9.799   4.677
 9214WAT      O27883   7.582   2.334   5.546
 9214WAT     H127884   7.556   2.332   5.450
 9214WAT     H227885   7.505   2.365   5.602
 9215WAT      O27886   1.717   4.928   2.698
 9215WAT     H127887   1.756   4.957   2.785
 9215WAT     H227888   1.735   4.830   2.684
 9216WAT      O27889   2.031   6.703   0.916
 9216WAT     H127890   2.041   6.643   0.837
 9216WAT     H227891   1.944   6.684   0.962
 9217WAT      O27892   3.107   7.398   0.490
 9217WAT     H127893   3.084   7.334   0.563
 9217WAT     H227894   3.197   7.376   0.453
 9218WAT      O27895   0.245   6.500   9.523
 9218WAT     H127896   0.242   6.569   9.451
 9218WAT     H227897   0.167   6.437   9.511
 9219WAT      O27898   6.414   9.798   4.987
 9219WAT     H127899   6.328   9.847   4.973
 9219WAT     H227900   6.395   9.707   5.025
 9220WAT      O27901   1.019   1.782   1.550
 9220WAT     H127902   1.075   1.705   1.520
 9220WAT     H227903   1.072   1.867   1.543
 9221WAT      O27904   3.445   8.139   1.708
 9221WAT     H127905   3.544   8.133   1.721
 9221WAT     H227906   3.406   8.048   1.712
 9222WAT      O27907   4.583   8.846   5.556
 9222WAT     H127908   4.545   8.898   5.479
 9222WAT     H227909   4.544   8.754   5.557
 9223WAT      O27910   5.235   5.152   7.274
 9223WAT     H127911   5.331   5.151   7.246
 9223WAT     H227912   5.202   5.058   7.284
 9224WAT      O27913   4.339   2.081   8.748
 9224WAT     H127914   4.243   2.061   8.766
 9224WAT     H227915   4.361   2.053   8.654
 9225WAT      O27916   7.276   4.890   9.010
 9225WAT     H127917   7.309   4.931   8.925
 9225WAT     H227918   7.176   4.887   9.009
 9226WAT      O27919   6.359   1.282   7.482
 9226WAT     H127920   6.432   1.299   7.548
 9226WAT     H227921   6.377   1.196   7.434
 9227WAT      O27922   7.317   7.887   0.380
 9227WAT     H127923   7.384   7.927   0.318
 9227WAT     H227924   7.358   7.811   0.429
 9228WAT      O27925   9.278   7.676   7.658
 9228WAT     H127926   9.250   7.767   7.627
 9228WAT     H227927   9.251   7.608   7.590
 9229WAT      O27928   4.324   8.152   3.948
 9229WAT     H127929   4.353   8.056   3.947
 9229WAT     H227930   4.229   8.158   3.979
 9230WAT      O27931   6.096   1.849   9.887
 9230WAT     H127932   6.011   1.867   9.936
 9230WAT     H227933   6.081   1.861   9.789
 9231WAT      O27934   6.524   4.232   1.644
 9231WAT     H127935   6.496   4.200   1.734
 9231WAT     H227936   6.575   4.160   1.597
 9232WAT      O27937   2.402   0.014   9.491
 9232WAT     H127938   2.385  -0.076   9.532
 9232WAT     H227939   2.500   0.026   9.478
 9233WAT      O27940   1.189   6.882   8.476
 9233WAT     H127941   1.267   6.911   8.422
 9233WAT     H227942   1.168   6.786   8.455
 9234WAT      O27943   5.754   3.416   1.484
 9234WAT     H127944   5.730   3.510   1.462
 9234WAT     H227945   5.674   3.357   1.472
 9235WAT      O27946   8.955   8.202   0.225
 9235WAT     H127947   8.866   8.243   0.244
 9235WAT     H227948   9.020   8.274   0.201
 9236WAT      O27949   1.221   4.274   9.402
 9236WAT     H127950   1.228   4.215   9.482
 9236WAT     H227951   1.313   4.290   9.364
 9237WAT      O27952   9.415   7.207   2.238
 9237WAT     H127953   9.486   7.250   2.293
 9237WAT     H227954   9.325   7.227   2.278
 9238WAT      O27955   0.586   6.306   9.170
 9238WAT     H127956   0.601   6.239   9.097
 9238WAT     H227957   0.661   6.372   9.170
 9239WAT      O27958   2.162   4.155   0.342
 9239WAT     H127959   2.116   4.169   0.253
 9239WAT     H227960   2.111   4.204   0.413
 9240WAT      O27961   7.968   7.705   6.705
 9240WAT     H127962   7.950   7.612   6.672
 9240WAT     H227963   7.882   7.755   6.710
 9241WAT      O27964   9.091   7.495   8.259
 9241WAT     H127965   9.148   7.560   8.308
 9241WAT     H227966   9.060   7.536   8.173
 9242WAT      O27967   7.145   7.929   5.494
 9242WAT     H127968   7.116   7.864   5.424
 9242WAT     H227969   7.231   7.898   5.534
 9243WAT      O27970   2.795   2.662   1.475
 9243WAT     H127971   2.793   2.562   1.464
 9243WAT     H227972   2.827   2.685   1.567
 9244WAT      O27973   0.492   3.469   8.180
 9244WAT     H127974   0.468   3.516   8.265
 9244WAT     H227975   0.586   3.435   8.187
 9245WAT      O27976   6.091   1.622   0.772
 9245WAT     H127977   6.189   1.638   0.765
 9245WAT     H227978   6.059   1.575   0.690
 9246WAT      O27979   4.495   9.756   1.599
 9246WAT     H127980   4.594   9.759   1.617
 9246WAT     H227981   4.446   9.778   1.683
 9247WAT      O27982   8.768   7.466   2.802
 9247WAT     H127983   8.736   7.515   2.883
 9247WAT     H227984   8.825   7.389   2.831
 9248WAT      O27985   7.202   4.443   6.481
 9248WAT     H127986   7.289   4.394   6.486
 9248WAT     H227987   7.206   4.511   6.408
 9249WAT      O27988   7.669   3.073   1.918
 9249WAT     H127989   7.589   3.126   1.892
 9249WAT     H227990   7.643   2.978   1.933
 9250WAT      O27991   2.836   3.330   1.521
 9250WAT     H127992   2.853   3.391   1.598
 9250WAT     H227993   2.869   3.372   1.436
 9251WAT      O27994   9.818   4.417   9.368
 9251WAT     H127995   9.735   4.432   9.420
 9251WAT     H227996   9.806   4.450   9.274
 9252WAT      O27997   8.113   4.187   3.433
 9252WAT     H127998   8.074   4.215   3.520
 9252WAT     H227999   8.052   4.213   3.358
 9253WAT      O28000   6.337   6.452   1.793
 9253WAT     H128001   6.306   6.386   1.724
 9253WAT     H228002   6.289   6.538   1.781
 9254WAT      O28003   8.827   4.402   3.885
 9254WAT     H128004   8.905   4.366   3.937
 9254WAT     H228005   8.849   4.493   3.850
 9255WAT      O28006   5.454   4.747   1.424
 9255WAT     H128007   5.476   4.788   1.336
 9255WAT     H228008   5.386   4.675   1.412
 9256WAT      O28009   5.930   3.075   1.487
 9256WAT     H128010   5.950   3.141   1.559
 9256WAT     H228011   5.938   3.120   1.398
 9257WAT      O28012   1.180   3.970   7.751
 9257WAT     H128013   1.117   4.020   7.692
 9257WAT     H228014   1.229   3.901   7.698
 9258WAT      O28015   8.077   5.330   2.263
 9258WAT     H128016   8.112   5.247   2.220
 9258WAT     H228017   7.978   5.325   2.271
 9259WAT      O28018   3.626   7.936   1.182
 9259WAT     H128019   3.629   7.964   1.278
 9259WAT     H228020   3.546   7.878   1.166
 9260WAT      O28021   1.021   6.781   6.668
 9260WAT     H128022   1.110   6.826   6.653
 9260WAT     H228023   1.009   6.709   6.600
 9261WAT      O28024   0.705   6.447   6.204
 9261WAT     H128025   0.648   6.422   6.282
 9261WAT     H228026   0.704   6.546   6.192
 9262WAT      O28027   6.891   6.557   1.328
 9262WAT     H128028   6.941   6.558   1.242
 9262WAT     H228029   6.859   6.649   1.349
 9263WAT      O28030   6.258   1.941   7.230
 9263WAT     H128031   6.332   1.885   7.268
 9263WAT     H228032   6.297   2.012   7.171
 9264WAT      O28033   8.613   5.402   6.724
 9264WAT     H128034   8.568   5.413   6.635
 9264WAT     H228035   8.625   5.304   6.744
 9265WAT      O28036   7.494   4.966   4.423
 9265WAT     H128037   7.573   5.023   4.401
 9265WAT     H228038   7.525   4.878   4.459
 9266WAT      O28039   6.162   0.433   6.981
 9266WAT     H128040   6.191   0.425   6.885
 9266WAT     H228041   6.156   0.529   7.006
 9267WAT      O28042   8.689   9.462   4.353
 9267WAT     H128043   8.778   9.440   4.392
 9267WAT     H228044   8.695   9.462   4.253
 9268WAT      O28045   2.306   7.953   9.005
 9268WAT     H128046   2.283   7.856   8.996
 9268WAT     H228047   2.390   7.961   9.059
 9269WAT      O28048   8.887   0.790   1.585
 9269WAT     H128049   8.982   0.798   1.616
 9269WAT     H228050   8.826   0.805   1.662
 9270WAT      O28051   7.936   5.795   8.346
 9270WAT     H128052   7.894   5.708   8.374
 9270WAT     H228053   8.035   5.790   8.359
 9271WAT      O28054   7.658   3.758   6.539
 9271WAT     H128055   7.690   3.702   6.462
 9271WAT     H228056   7.635   3.698   6.616
 9272WAT      O28057   1.726   1.684   0.421
 9272WAT     H128058   1.798   1.735   0.468
 9272WAT     H228059   1.730   1.703   0.323
 9273WAT      O28060   3.082   5.928   2.832
 9273WAT     H128061   3.098   5.830   2.820
 9273WAT     H228062   3.158   5.980   2.794
 9274WAT      O28063   2.695   3.842   2.294
 9274WAT     H128064   2.789   3.853   2.263
 9274WAT     H228065   2.669   3.921   2.350
 9275WAT      O28066   8.501   4.343   9.663
 9275WAT     H128067   8.485   4.436   9.697
 9275WAT     H228068   8.519   4.282   9.740
 9276WAT      O28069   3.054   5.709   0.098
 9276WAT     H128070   2.970   5.760   0.121
 9276WAT     H228071   3.061   5.701  -0.002
 9277WAT      O28072   2.176   9.727   1.612
 9277WAT     H128073   2.195   9.782   1.693
 9277WAT     H228074   2.221   9.638   1.620
 9278WAT      O28075   0.844   1.549   6.793
 9278WAT     H128076   0.799   1.599   6.719
 9278WAT     H228077   0.777   1.525   6.863
 9279WAT      O28078   0.579   4.539   2.176
 9279WAT     H128079   0.637   4.458   2.174
 9279WAT     H228080   0.636   4.620   2.161
 9280WAT      O28081   6.526   1.722   8.187
 9280WAT     H128082   6.539   1.785   8.264
 9280WAT     H228083   6.494   1.634   8.220
 9281WAT      O28084   9.407   9.540   7.963
 9281WAT     H128085   9.323   9.519   7.913
 9281WAT     H228086   9.446   9.456   8.001
 9282WAT      O28087   1.126   1.889   0.343
 9282WAT     H128088   1.206   1.904   0.402
 9282WAT     H228089   1.071   1.973   0.340
 9283WAT      O28090   8.683   1.532   4.931
 9283WAT     H128091   8.760   1.525   4.868
 9283WAT     H228092   8.716   1.535   5.025
 9284WAT      O28093   5.058   8.132   8.371
 9284WAT     H128094   5.056   8.032   8.374
 9284WAT     H228095   5.031   8.162   8.279
 9285WAT      O28096   8.989   5.848   6.134
 9285WAT     H128097   8.897   5.855   6.174
 9285WAT     H228098   9.003   5.756   6.099
 9286WAT      O28099   8.989   4.546   8.296
 9286WAT     H128100   8.923   4.583   8.360
 9286WAT     H228101   9.051   4.618   8.266
 9287WAT      O28102   5.870   5.119   8.477
 9287WAT     H128103   5.795   5.167   8.523
 9287WAT     H228104   5.869   5.023   8.506
 9288WAT      O28105   6.002   0.263   9.714
 9288WAT     H128106   6.092   0.291   9.681
 9288WAT     H228107   6.010   0.233   9.809
 9289WAT      O28108   1.770   7.006   4.337
 9289WAT     H128109   1.854   7.045   4.374
 9289WAT     H228110   1.694   7.070   4.352
 9290WAT      O28111   7.170   3.894   9.075
 9290WAT     H128112   7.204   3.806   9.040
 9290WAT     H228113   7.082   3.914   9.032
 9291WAT      O28114   4.173   3.695   0.530
 9291WAT     H128115   4.127   3.640   0.600
 9291WAT     H228116   4.111   3.709   0.453
 9292WAT      O28117   2.836   5.712   2.158
 9292WAT     H128118   2.790   5.626   2.135
 9292WAT     H228119   2.768   5.783   2.175
 9293WAT      O28120   6.345   6.525   0.831
 9293WAT     H128121   6.431   6.536   0.881
 9293WAT     H228122   6.315   6.430   0.835
 9294WAT      O28123   1.297   4.442   6.676
 9294WAT     H128124   1.375   4.473   6.621
 9294WAT     H228125   1.319   4.453   6.773
 9295WAT      O28126   8.832   3.252   1.189
 9295WAT     H128127   8.793   3.207   1.109
 9295WAT     H228128   8.852   3.184   1.259
 9296WAT      O28129   8.042   8.521   8.320
 9296WAT     H128130   7.976   8.501   8.392
 9296WAT     H228131   8.132   8.537   8.361
 9297WAT      O28132   9.066   1.363   5.824
 9297WAT     H128133   9.163   1.353   5.845
 9297WAT     H228134   9.023   1.273   5.820
 9298WAT      O28135   3.287   1.195   9.779
 9298WAT     H128136   3.188   1.194   9.769
 9298WAT     H228137   3.314   1.139   9.857
 9299WAT      O28138   0.176   8.086   3.617
 9299WAT     H128139   0.179   8.090   3.517
 9299WAT     H228140   0.163   8.178   3.654
 9300WAT      O28141   3.605   6.721   3.012
 9300WAT     H128142   3.613   6.629   2.974
 9300WAT     H228143   3.696   6.760   3.026
 9301WAT      O28144   1.258   1.289   4.451
 9301WAT     H128145   1.279   1.274   4.355
 9301WAT     H228146   1.270   1.386   4.473
 9302WAT      O28147   0.922   9.760   5.714
 9302WAT     H128148   0.899   9.671   5.675
 9302WAT     H228149   0.891   9.832   5.652
 9303WAT      O28150   4.126   3.192   7.541
 9303WAT     H128151   4.160   3.228   7.628
 9303WAT     H228152   4.161   3.248   7.466
 9304WAT      O28153   2.227   2.065   3.735
 9304WAT     H128154   2.155   2.129   3.763
 9304WAT     H228155   2.189   1.973   3.727
 9305WAT      O28156   0.599   0.364   4.587
 9305WAT     H128157   0.517   0.365   4.645
 9305WAT     H228158   0.625   0.457   4.564
 9306WAT      O28159   5.381   5.878   8.587
 9306WAT     H128160   5.357   5.971   8.617
 9306WAT     H228161   5.477   5.861   8.608
 9307WAT      O28162   8.343   8.028   3.661
 9307WAT     H128163   8.278   8.009   3.588
 9307WAT     H228164   8.429   7.980   3.642
 9308WAT      O28165   6.455   2.600   5.851
 9308WAT     H128166   6.410   2.576   5.764
 9308WAT     H228167   6.502   2.688   5.841
 9309WAT      O28168   3.628   4.377   0.265
 9309WAT     H128169   3.555   4.316   0.234
 9309WAT     H228170   3.601   4.472   0.248
 9310WAT      O28171   0.417   2.018   8.238
 9310WAT     H128172   0.447   2.002   8.332
 9310WAT     H228173   0.427   1.934   8.185
 9311WAT      O28174   3.852   3.168   3.989
 9311WAT     H128175   3.873   3.132   3.898
 9311WAT     H228176   3.904   3.251   4.005
 9312WAT      O28177   5.634   2.428   4.727
 9312WAT     H128178   5.673   2.466   4.811
 9312WAT     H228179   5.623   2.329   4.736
 9313WAT      O28180   7.298   0.064   7.514
 9313WAT     H128181   7.316   0.011   7.431
 9313WAT     H228182   7.269   0.156   7.489
 9314WAT      O28183   2.082   4.709   1.471
 9314WAT     H128184   2.087   4.666   1.381
 9314WAT     H228185   2.001   4.676   1.519
 9315WAT      O28186   5.977   4.850   1.173
 9315WAT     H128187   5.899   4.831   1.114
 9315WAT     H228188   6.029   4.766   1.187
 9316WAT      O28189   8.292   9.544   5.141
 9316WAT     H128190   8.227   9.619   5.134
 9316WAT     H228191   8.382   9.581   5.167
 9317WAT      O28192   6.296   9.482   2.683
 9317WAT     H128193   6.224   9.472   2.614
 9317WAT     H228194   6.268   9.439   2.768
 9318WAT      O28195   7.455   5.491   6.714
 9318WAT     H128196   7.449   5.501   6.813
 9318WAT     H228197   7.367   5.517   6.672
 9319WAT      O28198   9.267   7.505   4.150
 9319WAT     H128199   9.232   7.599   4.144
 9319WAT     H228200   9.365   7.505   4.132
 9320WAT      O28201   5.290   1.034   3.064
 9320WAT     H128202   5.376   0.998   3.101
 9320WAT     H228203   5.241   1.084   3.135
 9321WAT      O28204   3.224   8.070   5.079
 9321WAT     H128205   3.204   7.981   5.038
 9321WAT     H228206   3.144   8.129   5.071
 9322WAT      O28207   6.127   4.600   5.903
 9322WAT     H128208   6.035   4.636   5.894
 9322WAT     H228209   6.188   4.646   5.838
 9323WAT      O28210   8.319   0.970   1.237
 9323WAT     H128211   8.412   0.942   1.259
 9323WAT     H228212   8.300   0.952   1.141
 9324WAT      O28213   3.977   1.795   3.085
 9324WAT     H128214   4.010   1.889   3.096
 9324WAT     H228215   3.886   1.796   3.043
 9325WAT      O28216   5.506   9.030   3.435
 9325WAT     H128217   5.474   9.041   3.529
 9325WAT     H228218   5.468   8.945   3.397
 9326WAT      O28219   9.589   0.603   3.381
 9326WAT     H128220   9.590   0.671   3.455
 9326WAT     H228221   9.496   0.596   3.345
 9327WAT      O28222   3.533   5.980   3.242
 9327WAT     H128223   3.462   5.926   3.196
 9327WAT     H228224   3.535   5.956   3.339
 9328WAT      O28225   0.537   2.164   3.255
 9328WAT     H128226   0.635   2.185   3.253
 9328WAT     H228227   0.523   2.066   3.245
 9329WAT      O28228   3.937   4.580   0.146
 9329WAT     H128229   4.020   4.599   0.198
 9329WAT     H228230   3.936   4.485   0.117
 9330WAT      O28231   0.048   4.142   1.939
 9330WAT     H128232   0.065   4.088   1.857
 9330WAT     H228233  -0.048   4.170   1.942
 9331WAT      O28234   4.306   0.541   1.088
 9331WAT     H128235   4.381   0.476   1.072
 9331WAT     H228236   4.285   0.544   1.186
 9332WAT      O28237   3.481   0.760   8.543
 9332WAT     H128238   3.391   0.726   8.519
 9332WAT     H228239   3.521   0.703   8.615
 9333WAT      O28240   0.136   0.828   9.203
 9333WAT     H128241   0.068   0.901   9.190
 9333WAT     H228242   0.156   0.818   9.300
 9334WAT      O28243   5.409   9.094   2.949
 9334WAT     H128244   5.323   9.046   2.969
 9334WAT     H228245   5.468   9.090   3.030
 9335WAT      O28246   8.791   4.991   7.537
 9335WAT     H128247   8.772   4.898   7.569
 9335WAT     H228248   8.717   5.052   7.567
 9336WAT      O28249   7.867   5.831   2.509
 9336WAT     H128250   7.909   5.920   2.524
 9336WAT     H228251   7.898   5.795   2.421
 9337WAT      O28252   5.089   7.825   6.766
 9337WAT     H128253   5.013   7.885   6.741
 9337WAT     H228254   5.053   7.740   6.805
 9338WAT      O28255   0.520   3.062   3.866
 9338WAT     H128256   0.505   3.104   3.776
 9338WAT     H228257   0.437   3.013   3.894
 9339WAT      O28258   7.382   2.211   7.490
 9339WAT     H128259   7.394   2.309   7.476
 9339WAT     H228260   7.312   2.177   7.427
 9340WAT      O28261   0.205   9.641   6.755
 9340WAT     H128262   0.117   9.626   6.709
 9340WAT     H228263   0.279   9.613   6.694
 9341WAT      O28264   5.777   0.364   9.467
 9341WAT     H128265   5.804   0.428   9.540
 9341WAT     H228266   5.827   0.278   9.478
 9342WAT      O28267   4.032   7.711   0.868
 9342WAT     H128268   4.063   7.645   0.937
 9342WAT     H228269   3.994   7.663   0.789
 9343WAT      O28270   0.610   2.911   4.116
 9343WAT     H128271   0.536   2.931   4.180
 9343WAT     H228272   0.589   2.949   4.026
 9344WAT      O28273   5.120   1.783   3.137
 9344WAT     H128274   5.181   1.847   3.091
 9344WAT     H228275   5.086   1.824   3.222
 9345WAT      O28276   0.110   5.099   1.111
 9345WAT     H128277   0.074   5.106   1.204
 9345WAT     H228278   0.037   5.121   1.046
 9346WAT      O28279   9.141   9.777   6.660
 9346WAT     H128280   9.079   9.758   6.736
 9346WAT     H228281   9.122   9.713   6.585
 9347WAT      O28282   0.173   7.566   4.748
 9347WAT     H128283   0.257   7.551   4.800
 9347WAT     H228284   0.112   7.626   4.800
 9348WAT      O28285   3.421   8.075   9.413
 9348WAT     H128286   3.425   8.175   9.416
 9348WAT     H228287   3.344   8.047   9.356
 9349WAT      O28288   0.649   3.375   2.094
 9349WAT     H128289   0.665   3.280   2.069
 9349WAT     H228290   0.570   3.410   2.044
 9350WAT      O28291   3.001   5.675   1.173
 9350WAT     H128292   3.072   5.744   1.186
 9350WAT     H228293   3.005   5.609   1.248
 9351WAT      O28294   7.533   0.223   1.496
 9351WAT     H128295   7.596   0.179   1.560
 9351WAT     H228296   7.488   0.153   1.440
 9352WAT      O28297   4.944   5.944   7.917
 9352WAT     H128298   4.882   6.022   7.908
 9352WAT     H228299   5.039   5.976   7.913
 9353WAT      O28300   8.488   3.700   5.159
 9353WAT     H128301   8.545   3.768   5.203
 9353WAT     H228302   8.509   3.609   5.196
 9354WAT      O28303   7.391   0.728   3.714
 9354WAT     H128304   7.467   0.682   3.667
 9354WAT     H228305   7.343   0.786   3.648
 9355WAT      O28306   4.098   2.976   9.096
 9355WAT     H128307   4.011   2.976   9.046
 9355WAT     H228308   4.123   2.882   9.118
 9356WAT      O28309   1.664   4.837   3.923
 9356WAT     H128310   1.620   4.764   3.974
 9356WAT     H228311   1.596   4.908   3.902
 9357WAT      O28312   1.021   3.343   1.771
 9357WAT     H128313   1.034   3.247   1.796
 9357WAT     H228314   1.099   3.374   1.717
 9358WAT      O28315   0.369   7.303   6.008
 9358WAT     H128316   0.330   7.395   6.009
 9358WAT     H228317   0.374   7.268   6.101
 9359WAT      O28318   4.149   6.147   1.409
 9359WAT     H128319   4.159   6.095   1.493
 9359WAT     H228320   4.061   6.127   1.367
 9360WAT      O28321   7.242   5.070   1.516
 9360WAT     H128322   7.296   5.141   1.561
 9360WAT     H228323   7.247   5.083   1.417
 9361WAT      O28324   1.512   3.260   7.716
 9361WAT     H128325   1.581   3.283   7.784
 9361WAT     H228326   1.421   3.283   7.751
 9362WAT      O28327   5.404   2.441   2.961
 9362WAT     H128328   5.476   2.510   2.954
 9362WAT     H228329   5.352   2.455   3.045
 9363WAT      O28330   4.416   1.344   3.470
 9363WAT     H128331   4.455   1.348   3.378
 9363WAT     H228332   4.336   1.284   3.469
 9364WAT      O28333   6.669   0.947   6.285
 9364WAT     H128334   6.673   0.860   6.237
 9364WAT     H228335   6.694   1.021   6.222
 9365WAT      O28336   0.242   1.476   5.304
 9365WAT     H128337   0.320   1.535   5.324
 9365WAT     H228338   0.208   1.436   5.388
 9366WAT      O28339   4.720   9.082   7.664
 9366WAT     H128340   4.658   9.158   7.682
 9366WAT     H228341   4.785   9.073   7.740
 9367WAT      O28342   2.326   9.387   2.168
 9367WAT     H128343   2.316   9.295   2.131
 9367WAT     H228344   2.324   9.383   2.268
 9368WAT      O28345   3.883   0.180   9.838
 9368WAT     H128346   3.924   0.266   9.870
 9368WAT     H228347   3.956   0.114   9.818
 9369WAT      O28348   6.852   9.767   4.469
 9369WAT     H128349   6.782   9.699   4.490
 9369WAT     H228350   6.822   9.857   4.502
 9370WAT      O28351   1.739   0.903   9.544
 9370WAT     H128352   1.800   0.932   9.470
 9370WAT     H228353   1.682   0.981   9.572
 9371WAT      O28354   0.043   2.083   4.890
 9371WAT     H128355  -0.018   2.116   4.962
 9371WAT     H228356   0.077   2.160   4.836
 9372WAT      O28357   7.135   4.519   8.733
 9372WAT     H128358   7.225   4.509   8.777
 9372WAT     H228359   7.071   4.561   8.797
 9373WAT      O28360   2.787   6.957   0.371
 9373WAT     H128361   2.886   6.968   0.376
 9373WAT     H228362   2.765   6.864   0.343
 9374WAT      O28363   3.262   8.947   1.950
 9374WAT     H128364   3.355   8.929   1.982
 9374WAT     H228365   3.215   9.007   2.015
 9375WAT      O28366   9.478   7.815   2.380
 9375WAT     H128367   9.539   7.851   2.451
 9375WAT     H228368   9.497   7.718   2.366
 9376WAT      O28369   7.758   7.850   8.818
 9376WAT     H128370   7.779   7.759   8.854
 9376WAT     H228371   7.819   7.870   8.741
 9377WAT      O28372   4.510   6.294   2.493
 9377WAT     H128373   4.599   6.336   2.509
 9377WAT     H228374   4.438   6.352   2.529
 9378WAT      O28375   0.236   2.279   6.272
 9378WAT     H128376   0.238   2.275   6.172
 9378WAT     H228377   0.297   2.352   6.303
 9379WAT      O28378   4.831   0.133   7.057
 9379WAT     H128379   4.849   0.040   7.027
 9379WAT     H228380   4.864   0.145   7.151
 9380WAT      O28381   3.205   8.899   4.178
 9380WAT     H128382   3.135   8.956   4.222
 9380WAT     H228383   3.168   8.862   4.093
 9381WAT      O28384   1.204   1.165   5.882
 9381WAT     H128385   1.182   1.162   5.784
 9381WAT     H228386   1.155   1.092   5.930
 9382WAT      O28387   0.130   3.296   6.400
 9382WAT     H128388   0.161   3.304   6.305
 9382WAT     H228389   0.206   3.316   6.462
 9383WAT      O28390   2.667   6.427   6.201
 9383WAT     H128391   2.717   6.498   6.153
 9383WAT     H228392   2.571   6.429   6.174
 9384WAT      O28393   4.874   2.628   3.770
 9384WAT     H128394   4.940   2.609   3.842
 9384WAT     H228395   4.899   2.714   3.724
 9385WAT      O28396   8.413   7.562   4.671
 9385WAT     H128397   8.365   7.576   4.758
 9385WAT     H228398   8.404   7.467   4.642
 9386WAT      O28399   2.677   2.271   7.349
 9386WAT     H128400   2.579   2.277   7.364
 9386WAT     H228401   2.698   2.284   7.252
 9387WAT      O28402   1.189   9.131   8.890
 9387WAT     H128403   1.157   9.058   8.950
 9387WAT     H228404   1.234   9.202   8.944
 9388WAT      O28405   9.853   1.771   3.588
 9388WAT     H128406   9.777   1.787   3.651
 9388WAT     H228407   9.829   1.696   3.526
 9389WAT      O28408   2.469   2.904   6.113
 9389WAT     H128409   2.455   2.880   6.017
 9389WAT     H228410   2.529   2.836   6.156
 9390WAT      O28411   5.454   0.023   0.900
 9390WAT     H128412   5.391   0.004   0.976
 9390WAT     H228413   5.548   0.006   0.930
 9391WAT      O28414   9.808   5.751   5.700
 9391WAT     H128415   9.863   5.826   5.664
 9391WAT     H228416   9.746   5.717   5.629
 9392WAT      O28417   3.622   8.529   1.827
 9392WAT     H128418   3.647   8.537   1.923
 9392WAT     H228419   3.522   8.535   1.817
 9393WAT      O28420   7.631   6.541   7.403
 9393WAT     H128421   7.638   6.596   7.487
 9393WAT     H228422   7.551   6.570   7.351
 9394WAT      O28423   6.625   5.579   1.607
 9394WAT     H128424   6.617   5.664   1.658
 9394WAT     H228425   6.535   5.553   1.571
 9395WAT      O28426   0.713   8.173   1.060
 9395WAT     H128427   0.687   8.187   0.964
 9395WAT     H228428   0.701   8.077   1.084
 9396WAT      O28429   8.686   1.460   4.405
 9396WAT     H128430   8.676   1.401   4.324
 9396WAT     H228431   8.752   1.532   4.386
 9397WAT      O28432   7.883   9.397   6.327
 9397WAT     H128433   7.944   9.468   6.292
 9397WAT     H228434   7.860   9.416   6.423
 9398WAT      O28435   5.585   5.136   4.488
 9398WAT     H128436   5.602   5.113   4.584
 9398WAT     H228437   5.634   5.219   4.464
 9399WAT      O28438   9.427   4.991   9.271
 9399WAT     H128439   9.480   5.067   9.308
 9399WAT     H228440   9.432   4.992   9.171
 9400WAT      O28441   9.002   1.916   8.077
 9400WAT     H128442   9.018   1.825   8.039
 9400WAT     H228443   8.913   1.918   8.122
 9401WAT      O28444   8.151   0.305   7.417
 9401WAT     H128445   8.073   0.260   7.373
 9401WAT     H228446   8.232   0.247   7.408
 9402WAT      O28447   1.600   5.696   8.006
 9402WAT     H128448   1.614   5.788   7.971
 9402WAT     H228449   1.616   5.695   8.105
 9403WAT      O28450   8.957   4.596   1.622
 9403WAT     H128451   8.924   4.526   1.685
 9403WAT     H228452   8.893   4.673   1.621
 9404WAT      O28453   0.040   1.040   6.132
 9404WAT     H128454  -0.036   1.027   6.195
 9404WAT     H228455   0.054   1.138   6.116
 9405WAT      O28456   5.234   8.607   6.368
 9405WAT     H128457   5.178   8.605   6.450
 9405WAT     H228458   5.238   8.700   6.332
 9406WAT      O28459   8.099   8.575   3.976
 9406WAT     H128460   8.009   8.540   3.999
 9406WAT     H228461   8.090   8.668   3.940
 9407WAT      O28462   3.354   2.272   4.567
 9407WAT     H128463   3.417   2.225   4.629
 9407WAT     H228464   3.324   2.358   4.609
 9408WAT      O28465   0.238   5.892   4.786
 9408WAT     H128466   0.212   5.963   4.852
 9408WAT     H228467   0.301   5.828   4.831
 9409WAT      O28468   9.669   6.918   7.748
 9409WAT     H128469   9.678   6.991   7.816
 9409WAT     H228470   9.583   6.869   7.763
 9410WAT      O28471   2.460   4.644   9.089
 9410WAT     H128472   2.430   4.631   9.184
 9410WAT     H228473   2.437   4.562   9.036
 9411WAT      O28474   2.476   4.793   1.268
 9411WAT     H128475   2.494   4.850   1.348
 9411WAT     H228476   2.477   4.696   1.294
 9412WAT      O28477   8.154   8.407   3.758
 9412WAT     H128478   8.244   8.398   3.717
 9412WAT     H228479   8.162   8.449   3.848
 9413WAT      O28480   3.492   1.216   2.563
 9413WAT     H128481   3.588   1.190   2.556
 9413WAT     H228482   3.438   1.137   2.592
 9414WAT      O28483   6.633   9.606   2.643
 9414WAT     H128484   6.549   9.617   2.589
 9414WAT     H228485   6.612   9.615   2.740
 9415WAT      O28486   0.188   2.648   6.485
 9415WAT     H128487   0.222   2.579   6.421
 9415WAT     H228488   0.114   2.610   6.539
 9416WAT      O28489   2.397   9.582   9.739
 9416WAT     H128490   2.347   9.498   9.716
 9416WAT     H228491   2.351   9.628   9.815
 9417WAT      O28492   3.731   2.931   7.068
 9417WAT     H128493   3.697   2.837   7.065
 9417WAT     H228494   3.666   2.992   7.022
 9418WAT      O28495   9.361   8.348   5.329
 9418WAT     H128496   9.427   8.420   5.310
 9418WAT     H228497   9.268   8.384   5.319
 9419WAT      O28498   6.791   7.954   3.437
 9419WAT     H128499   6.739   7.968   3.521
 9419WAT     H228500   6.743   7.998   3.361
 9420WAT      O28501   3.893   3.004   0.258
 9420WAT     H128502   3.936   2.931   0.206
 9420WAT     H228503   3.843   2.964   0.335
 9421WAT      O28504   5.141   5.015   0.436
 9421WAT     H128505   5.098   5.003   0.525
 9421WAT     H228506   5.095   4.958   0.368
 9422WAT      O28507   6.086   7.930   6.933
 9422WAT     H128508   6.157   7.911   6.866
 9422WAT     H228509   6.060   8.027   6.927
 9423WAT      O28510   3.217   5.806   1.236
 9423WAT     H128511   3.292   5.840   1.180
 9423WAT     H228512   3.222   5.847   1.327
 9424WAT      O28513   9.564   5.000   1.942
 9424WAT     H128514   9.559   5.023   1.845
 9424WAT     H228515   9.600   4.908   1.953
 9425WAT      O28516   4.496   5.716   5.423
 9425WAT     H128517   4.511   5.809   5.391
 9425WAT     H228518   4.479   5.656   5.345
 9426WAT      O28519   1.354   7.158   0.313
 9426WAT     H128520   1.434   7.201   0.271
 9426WAT     H228521   1.273   7.177   0.257
 9427WAT      O28522   4.032   6.967   9.031
 9427WAT     H128523   4.077   6.898   8.974
 9427WAT     H228524   4.018   6.930   9.123
 9428WAT      O28525   2.573   9.794   1.506
 9428WAT     H128526   2.606   9.707   1.544
 9428WAT     H228527   2.612   9.808   1.415
 9429WAT      O28528   8.122   5.952   5.675
 9429WAT     H128529   8.077   5.863   5.685
 9429WAT     H228530   8.110   6.005   5.758
 9430WAT      O28531   6.882   9.597   7.094
 9430WAT     H128532   6.866   9.676   7.035
 9430WAT     H228533   6.925   9.628   7.180
 9431WAT      O28534   7.770   9.059   3.976
 9431WAT     H128535   7.784   8.980   4.036
 9431WAT     H228536   7.768   9.142   4.032
 9432WAT      O28537   6.018   6.546   2.510
 9432WAT     H128538   5.947   6.611   2.484
 9432WAT     H228539   5.993   6.455   2.477
 9433WAT      O28540   2.003   5.273   6.674
 9433WAT     H128541   1.932   5.329   6.715
 9433WAT     H228542   1.990   5.268   6.575
 9434WAT      O28543   6.347   3.172   0.218
 9434WAT     H128544   6.287   3.114   0.271
 9434WAT     H228545   6.299   3.204   0.136
 9435WAT      O28546   0.773   4.271   8.524
 9435WAT     H128547   0.870   4.253   8.504
 9435WAT     H228548   0.733   4.325   8.451
 9436WAT      O28549   2.130   1.293   1.259
 9436WAT     H128550   2.196   1.366   1.275
 9436WAT     H228551   2.138   1.260   1.165
 9437WAT      O28552   9.199   8.481   1.315
 9437WAT     H128553   9.247   8.456   1.231
 9437WAT     H228554   9.124   8.417   1.331
 9438WAT      O28555   1.992   3.204   6.019
 9438WAT     H128556   2.088   3.201   5.990
 9438WAT     H228557   1.938   3.145   5.960
 9439WAT      O28558   7.017   1.363   7.547
 9439WAT     H128559   7.081   1.387   7.473
 9439WAT     H228560   7.030   1.267   7.573
 9440WAT      O28561   2.188   3.329   2.132
 9440WAT     H128562   2.277   3.305   2.094
 9440WAT     H228563   2.123   3.255   2.114
 9441WAT      O28564   7.396   3.465   9.292
 9441WAT     H128565   7.395   3.514   9.378
 9441WAT     H228566   7.327   3.392   9.294
 9442WAT      O28567   4.107   9.616   1.038
 9442WAT     H128568   4.201   9.586   1.058
 9442WAT     H228569   4.059   9.543   0.989
 9443WAT      O28570   9.811   5.346   8.431
 9443WAT     H128571   9.791   5.421   8.494
 9443WAT     H228572   9.892   5.368   8.378
 9444WAT      O28573   3.900   0.879   8.471
 9444WAT     H128574   3.996   0.908   8.468
 9444WAT     H228575   3.842   0.957   8.493
 9445WAT      O28576   1.313   4.757   9.840
 9445WAT     H128577   1.218   4.787   9.851
 9445WAT     H228578   1.370   4.834   9.813
 9446WAT      O28579   1.148   9.580   7.541
 9446WAT     H128580   1.057   9.613   7.514
 9446WAT     H228581   1.162   9.598   7.638
 9447WAT      O28582   6.011   0.785   0.333
 9447WAT     H128583   6.100   0.757   0.297
 9447WAT     H228584   6.001   0.884   0.323
 9448WAT      O28585   3.660   9.795   1.124
 9448WAT     H128586   3.561   9.805   1.134
 9448WAT     H228587   3.693   9.722   1.185
 9449WAT      O28588   6.119   7.592   2.502
 9449WAT     H128589   6.130   7.605   2.601
 9449WAT     H228590   6.197   7.541   2.466
 9450WAT      O28591   7.968   3.599   5.822
 9450WAT     H128592   8.067   3.587   5.814
 9450WAT     H228593   7.935   3.552   5.905
 9451WAT      O28594   4.224   5.793   0.766
 9451WAT     H128595   4.187   5.811   0.675
 9451WAT     H228596   4.302   5.730   0.759
 9452WAT      O28597   1.864   2.563   2.277
 9452WAT     H128598   1.930   2.594   2.345
 9452WAT     H228599   1.913   2.526   2.197
 9453WAT      O28600   3.898   8.395   0.211
 9453WAT     H128601   3.943   8.398   0.301
 9453WAT     H228602   3.865   8.487   0.187
 9454WAT      O28603   1.481   7.929   5.729
 9454WAT     H128604   1.448   8.020   5.755
 9454WAT     H228605   1.569   7.938   5.682
 9455WAT      O28606   5.256   6.061   5.082
 9455WAT     H128607   5.182   6.072   5.015
 9455WAT     H228608   5.291   6.151   5.107
 9456WAT      O28609   2.778   7.120   7.685
 9456WAT     H128610   2.683   7.147   7.677
 9456WAT     H228611   2.821   7.124   7.594
 9457WAT      O28612   9.231   0.619   6.046
 9457WAT     H128613   9.146   0.612   5.994
 9457WAT     H228614   9.303   0.656   5.987
 9458WAT      O28615   0.994   7.138   8.753
 9458WAT     H128616   0.944   7.060   8.717
 9458WAT     H228617   1.050   7.109   8.831
 9459WAT      O28618   8.348   7.138   6.152
 9459WAT     H128619   8.297   7.052   6.153
 9459WAT     H228620   8.319   7.192   6.073
 9460WAT      O28621   2.985   5.273   1.947
 9460WAT     H128622   3.077   5.269   1.986
 9460WAT     H228623   2.919   5.241   2.014
 9461WAT      O28624   1.741   5.963   1.543
 9461WAT     H128625   1.711   5.917   1.460
 9461WAT     H228626   1.676   6.035   1.566
 9462WAT      O28627   8.980   5.534   2.214
 9462WAT     H128628   8.932   5.592   2.279
 9462WAT     H228629   8.914   5.479   2.163
 9463WAT      O28630   6.966   1.141   6.785
 9463WAT     H128631   6.879   1.179   6.753
 9463WAT     H228632   7.016   1.210   6.836
 9464WAT      O28633   0.376   7.207   8.552
 9464WAT     H128634   0.458   7.148   8.549
 9464WAT     H228635   0.313   7.180   8.480
 9465WAT      O28636   8.711   6.406   2.098
 9465WAT     H128637   8.644   6.376   2.166
 9465WAT     H228638   8.663   6.436   2.015
 9466WAT      O28639   3.716   2.997   2.319
 9466WAT     H128640   3.706   3.094   2.298
 9466WAT     H228641   3.676   2.978   2.409
 9467WAT      O28642   2.074   3.451   7.014
 9467WAT     H128643   2.057   3.459   6.916
 9467WAT     H228644   2.171   3.436   7.030
 9468WAT      O28645   8.878   5.310   2.106
 9468WAT     H128646   8.971   5.274   2.111
 9468WAT     H228647   8.818   5.256   2.164
 9469WAT      O28648   8.067   2.120   9.046
 9469WAT     H128649   7.970   2.124   9.069
 9469WAT     H228650   8.121   2.113   9.130
 9470WAT      O28651   7.945   8.237   0.904
 9470WAT     H128652   7.957   8.304   0.978
 9470WAT     H228653   7.931   8.146   0.944
 9471WAT      O28654   3.592   7.346   8.269
 9471WAT     H128655   3.559   7.289   8.344
 9471WAT     H228656   3.561   7.440   8.283
 9472WAT      O28657   7.552   8.602   6.523
 9472WAT     H128658   7.572   8.590   6.426
 9472WAT     H228659   7.491   8.680   6.536
 9473WAT      O28660   8.970   5.576   2.974
 9473WAT     H128661   9.046   5.589   3.038
 9473WAT     H228662   8.990   5.499   2.913
 9474WAT      O28663   1.761   9.452   9.519
 9474WAT     H128664   1.739   9.355   9.523
 9474WAT     H228665   1.854   9.464   9.486
 9475WAT      O28666   2.712   6.819   1.918
 9475WAT     H128667   2.764   6.828   2.003
 9475WAT     H228668   2.615   6.815   1.938
 9476WAT      O28669   4.350   6.834   3.340
 9476WAT     H128670   4.442   6.852   3.307
 9476WAT     H228671   4.336   6.879   3.428
 9477WAT      O28672   4.774   9.175   8.130
 9477WAT     H128673   4.833   9.227   8.068
 9477WAT     H228674   4.724   9.238   8.189
 9478WAT      O28675   0.364   8.267   7.372
 9478WAT     H128676   0.299   8.205   7.329
 9478WAT     H228677   0.352   8.264   7.471
 9479WAT      O28678   4.566   4.266   2.458
 9479WAT     H128679   4.553   4.317   2.544
 9479WAT     H228680   4.624   4.187   2.475
 9480WAT      O28681   1.271   0.524   8.005
 9480WAT     H128682   1.276   0.439   7.952
 9480WAT     H228683   1.350   0.581   7.985
 9481WAT      O28684   7.002   7.427   4.911
 9481WAT     H128685   7.002   7.527   4.898
 9481WAT     H228686   7.010   7.407   5.009
 9482WAT      O28687   1.714   6.226   7.214
 9482WAT     H128688   1.810   6.219   7.185
 9482WAT     H228689   1.681   6.135   7.240
 9483WAT      O28690   3.927   1.818   1.924
 9483WAT     H128691   3.943   1.811   1.825
 9483WAT     H228692   3.849   1.878   1.941
 9484WAT      O28693   6.847   1.079   4.554
 9484WAT     H128694   6.929   1.105   4.503
 9484WAT     H228695   6.766   1.102   4.499
 9485WAT      O28696   1.156   2.693   6.902
 9485WAT     H128697   1.240   2.742   6.879
 9485WAT     H228698   1.172   2.594   6.897
 9486WAT      O28699   6.526   3.962   3.677
 9486WAT     H128700   6.620   3.954   3.711
 9486WAT     H228701   6.465   3.907   3.734
 9487WAT      O28702   0.409   4.106   2.200
 9487WAT     H128703   0.416   4.022   2.148
 9487WAT     H228704   0.356   4.173   2.149
 9488WAT      O28705   0.403   1.288   4.348
 9488WAT     H128706   0.498   1.309   4.370
 9488WAT     H228707   0.350   1.373   4.346
 9489WAT      O28708   6.651   7.969   8.682
 9489WAT     H128709   6.568   7.916   8.663
 9489WAT     H228710   6.625   8.060   8.714
 9490WAT      O28711   1.563   1.890   2.870
 9490WAT     H128712   1.636   1.898   2.802
 9490WAT     H228713   1.589   1.938   2.954
 9491WAT      O28714   4.911   0.795   5.997
 9491WAT     H128715   4.875   0.840   5.915
 9491WAT     H228716   4.857   0.713   6.017
 9492WAT      O28717   6.088   3.210   6.449
 9492WAT     H128718   6.097   3.136   6.382
 9492WAT     H228719   6.081   3.171   6.540
 9493WAT      O28720   5.776   4.754   3.705
 9493WAT     H128721   5.851   4.689   3.714
 9493WAT     H228722   5.782   4.822   3.778
 9494WAT      O28723   9.828   6.454   2.792
 9494WAT     H128724   9.885   6.474   2.871
 9494WAT     H228725   9.763   6.381   2.815
 9495WAT      O28726   8.179   9.338   9.817
 9495WAT     H128727   8.173   9.368   9.722
 9495WAT     H228728   8.100   9.373   9.868
 9496WAT      O28729   3.599   8.974   4.894
 9496WAT     H128730   3.649   8.996   4.978
 9496WAT     H228731   3.655   8.915   4.837
 9497WAT      O28732   3.425   8.923   7.079
 9497WAT     H128733   3.502   8.862   7.063
 9497WAT     H228734   3.385   8.905   7.168
 9498WAT      O28735   7.030   8.619   6.988
 9498WAT     H128736   7.083   8.543   6.950
 9498WAT     H228737   6.934   8.609   6.962
 9499WAT      O28738   9.734   7.243   3.588
 9499WAT     H128739   9.717   7.145   3.597
 9499WAT     H228740   9.774   7.262   3.499
 9500WAT      O28741   8.345   4.884   2.471
 9500WAT     H128742   8.299   4.943   2.537
 9500WAT     H228743   8.327   4.788   2.494
 9501WAT      O28744   5.798   3.194   6.951
 9501WAT     H128745   5.775   3.246   6.869
 9501WAT     H228746   5.826   3.101   6.924
 9502WAT      O28747   1.075   6.013   1.896
 9502WAT     H128748   1.010   5.940   1.917
 9502WAT     H228749   1.028   6.101   1.901
 9503WAT      O28750   7.762   3.017   9.714
 9503WAT     H128751   7.846   3.041   9.667
 9503WAT     H228752   7.687   3.075   9.681
 9504WAT      O28753   9.144   0.405   0.396
 9504WAT     H128754   9.207   0.337   0.433
 9504WAT     H228755   9.059   0.406   0.449
 9505WAT      O28756   7.514   6.957   0.032
 9505WAT     H128757   7.608   6.924   0.039
 9505WAT     H228758   7.505   7.043   0.083
 9506WAT      O28759   8.004   2.307   4.124
 9506WAT     H128760   7.989   2.260   4.037
 9506WAT     H228761   7.917   2.345   4.156
 9507WAT      O28762   1.950   7.039   7.362
 9507WAT     H128763   1.959   6.941   7.344
 9507WAT     H228764   1.853   7.063   7.368
 9508WAT      O28765   6.579   5.395   9.239
 9508WAT     H128766   6.620   5.316   9.284
 9508WAT     H228767   6.602   5.395   9.142
 9509WAT      O28768   8.295   8.261   0.445
 9509WAT     H128769   8.279   8.200   0.367
 9509WAT     H228770   8.362   8.219   0.507
 9510WAT      O28771   4.285   6.667   2.359
 9510WAT     H128772   4.364   6.605   2.352
 9510WAT     H228773   4.264   6.704   2.269
 9511WAT      O28774   8.189   6.098   9.717
 9511WAT     H128775   8.114   6.109   9.651
 9511WAT     H228776   8.197   6.181   9.772
 9512WAT      O28777   1.780   7.577   0.430
 9512WAT     H128778   1.790   7.581   0.330
 9512WAT     H228779   1.850   7.517   0.468
 9513WAT      O28780   1.646   7.099   8.406
 9513WAT     H128781   1.645   7.197   8.427
 9513WAT     H228782   1.627   7.085   8.309
 9514WAT      O28783   3.322   4.771   5.224
 9514WAT     H128784   3.359   4.789   5.315
 9514WAT     H228785   3.395   4.736   5.164
 9515WAT      O28786   3.762   9.153   7.513
 9515WAT     H128787   3.686   9.119   7.457
 9515WAT     H228788   3.800   9.236   7.473
 9516WAT      O28789   6.307   2.521   2.465
 9516WAT     H128790   6.227   2.462   2.479
 9516WAT     H228791   6.380   2.467   2.422
 9517WAT      O28792   5.912   6.987   9.755
 9517WAT     H128793   5.875   7.041   9.831
 9517WAT     H228794   5.840   6.927   9.719
 9518WAT      O28795   2.255   6.733   3.625
 9518WAT     H128796   2.314   6.680   3.565
 9518WAT     H228797   2.163   6.738   3.587
 9519WAT      O28798   7.835   6.713   1.708
 9519WAT     H128799   7.815   6.683   1.615
 9519WAT     H228800   7.749   6.733   1.756
 9520WAT      O28801   5.822   0.115   9.564
 9520WAT     H128802   5.805   0.028   9.610
 9520WAT     H228803   5.881   0.172   9.621
 9521WAT      O28804   1.867   0.397   7.752
 9521WAT     H128805   1.908   0.361   7.668
 9521WAT     H228806   1.937   0.407   7.822
 9522WAT      O28807   9.560   1.875   5.564
 9522WAT     H128808   9.617   1.809   5.515
 9522WAT     H228809   9.501   1.827   5.629
 9523WAT      O28810   8.939   0.449   0.577
 9523WAT     H128811   8.849   0.405   0.584
 9523WAT     H228812   8.930   0.546   0.600
 9524WAT      O28813   4.638   5.277   6.004
 9524WAT     H128814   4.714   5.315   6.057
 9524WAT     H228815   4.557   5.270   6.062
 9525WAT      O28816   4.586   9.434   0.656
 9525WAT     H128817   4.646   9.397   0.585
 9525WAT     H228818   4.498   9.387   0.652
 9526WAT      O28819   7.385   4.097   2.207
 9526WAT     H128820   7.418   4.133   2.120
 9526WAT     H228821   7.440   4.134   2.282
 9527WAT      O28822   9.386   6.883   7.111
 9527WAT     H128823   9.350   6.802   7.156
 9527WAT     H228824   9.316   6.922   7.051
 9528WAT      O28825   5.231   0.341   4.251
 9528WAT     H128826   5.153   0.282   4.229
 9528WAT     H228827   5.265   0.318   4.342
 9529WAT      O28828   5.887   2.326   2.800
 9529WAT     H128829   5.968   2.355   2.748
 9529WAT     H228830   5.892   2.361   2.893
 9530WAT      O28831   4.817   5.889   8.894
 9530WAT     H128832   4.849   5.795   8.877
 9530WAT     H228833   4.801   5.901   8.992
 9531WAT      O28834   9.184   7.660   5.265
 9531WAT     H128835   9.085   7.653   5.249
 9531WAT     H228836   9.221   7.569   5.284
 9532WAT      O28837   5.033   1.432   1.207
 9532WAT     H128838   4.954   1.442   1.268
 9532WAT     H228839   5.013   1.364   1.137
 9533WAT      O28840   3.921   1.250   8.214
 9533WAT     H128841   3.995   1.219   8.274
 9533WAT     H228842   3.833   1.239   8.261
 9534WAT      O28843   9.037   7.906   5.123
 9534WAT     H128844   9.056   7.994   5.079
 9534WAT     H228845   9.098   7.836   5.086
 9535WAT      O28846   7.355   2.810   2.599
 9535WAT     H128847   7.322   2.786   2.507
 9535WAT     H228848   7.452   2.835   2.594
 9536WAT      O28849   1.979   0.517   5.699
 9536WAT     H128850   1.890   0.518   5.744
 9536WAT     H228851   2.041   0.457   5.748
 9537WAT      O28852   8.844   3.089   0.073
 9537WAT     H128853   8.821   3.096  -0.024
 9537WAT     H228854   8.808   3.003   0.109
 9538WAT      O28855   3.733   6.027   4.069
 9538WAT     H128856   3.774   6.058   3.982
 9538WAT     H228857   3.654   5.969   4.050
 9539WAT      O28858   0.746   1.130   5.496
 9539WAT     H128859   0.699   1.190   5.561
 9539WAT     H228860   0.699   1.042   5.493
 9540WAT      O28861   6.344   9.523   5.418
 9540WAT     H128862   6.388   9.434   5.408
 9540WAT     H228863   6.245   9.510   5.424
 9541WAT      O28864   5.875   6.160   4.634
 9541WAT     H128865   5.888   6.255   4.608
 9541WAT     H228866   5.788   6.150   4.684
 9542WAT      O28867   1.801   1.863   2.710
 9542WAT     H128868   1.850   1.776   2.697
 9542WAT     H228869   1.859   1.926   2.762
 9543WAT      O28870   8.785   3.179   1.608
 9543WAT     H128871   8.764   3.131   1.693
 9543WAT     H228872   8.848   3.255   1.627
 9544WAT      O28873   1.555   2.909   8.701
 9544WAT     H128874   1.568   3.000   8.661
 9544WAT     H228875   1.471   2.868   8.665
 9545WAT      O28876   4.557   6.031   7.151
 9545WAT     H128877   4.645   6.028   7.197
 9545WAT     H228878   4.569   6.002   7.056
 9546WAT      O28879   4.391   7.354   0.778
 9546WAT     H128880   4.363   7.432   0.834
 9546WAT     H228881   4.490   7.343   0.783
 9547WAT      O28882   7.806   1.682   9.613
 9547WAT     H128883   7.816   1.583   9.622
 9547WAT     H228884   7.848   1.712   9.528
 9548WAT      O28885   7.045   8.669   9.802
 9548WAT     H128886   7.144   8.666   9.806
 9548WAT     H228887   7.015   8.696   9.710
 9549WAT      O28888   8.435   6.212   1.085
 9549WAT     H128889   8.527   6.253   1.090
 9549WAT     H228890   8.425   6.162   0.999
 9550WAT      O28891   1.871   5.727   1.259
 9550WAT     H128892   1.850   5.714   1.162
 9550WAT     H228893   1.797   5.690   1.315
 9551WAT      O28894   7.316   2.807   9.697
 9551WAT     H128895   7.301   2.892   9.749
 9551WAT     H228896   7.413   2.797   9.677
 9552WAT      O28897   6.028   5.458   5.237
 9552WAT     H128898   5.933   5.483   5.258
 9552WAT     H228899   6.083   5.541   5.227
 9553WAT      O28900   8.548   3.796   1.403
 9553WAT     H128901   8.587   3.814   1.313
 9553WAT     H228902   8.532   3.698   1.414
 9554WAT      O28903   3.424   2.017   8.633
 9554WAT     H128904   3.341   1.962   8.626
 9554WAT     H228905   3.433   2.072   8.550
 9555WAT      O28906   3.138   1.175   2.757
 9555WAT     H128907   3.202   1.098   2.748
 9555WAT     H228908   3.124   1.195   2.854
 9556WAT      O28909   9.665   0.944   8.555
 9556WAT     H128910   9.618   1.031   8.540
 9556WAT     H228911   9.612   0.870   8.513
 9557WAT      O28912   2.789   5.568   6.089
 9557WAT     H128913   2.728   5.489   6.090
 9557WAT     H228914   2.743   5.646   6.047
 9558WAT      O28915   4.155   4.677   0.327
 9558WAT     H128916   4.219   4.629   0.387
 9558WAT     H228917   4.147   4.773   0.356
 9559WAT      O28918   5.443   0.274   1.773
 9559WAT     H128919   5.382   0.353   1.769
 9559WAT     H228920   5.408   0.208   1.840
 9560WAT      O28921   8.444   8.300   5.109
 9560WAT     H128922   8.492   8.245   5.041
 9560WAT     H228923   8.469   8.270   5.200
 9561WAT      O28924   8.194   8.390   5.181
 9561WAT     H128925   8.289   8.363   5.167
 9561WAT     H228926   8.173   8.470   5.124
 9562WAT      O28927   1.737   2.824   0.635
 9562WAT     H128928   1.753   2.902   0.695
 9562WAT     H228929   1.640   2.798   0.638
 9563WAT      O28930   8.072   5.289   7.909
 9563WAT     H128931   8.046   5.214   7.847
 9563WAT     H228932   8.115   5.362   7.856
 9564WAT      O28933   1.001   4.370   7.333
 9564WAT     H128934   0.973   4.281   7.368
 9564WAT     H228935   1.071   4.409   7.393
 9565WAT      O28936   8.079   2.241   3.671
 9565WAT     H128937   8.030   2.270   3.589
 9565WAT     H228938   8.120   2.151   3.655
 9566WAT      O28939   7.535   7.310   0.949
 9566WAT     H128940   7.552   7.341   1.043
 9566WAT     H228941   7.458   7.247   0.947
 9567WAT      O28942   2.152   1.336   1.944
 9567WAT     H128943   2.149   1.364   2.040
 9567WAT     H228944   2.236   1.368   1.902
 9568WAT      O28945   6.400   6.040   7.451
 9568WAT     H128946   6.328   6.064   7.517
 9568WAT     H228947   6.361   5.986   7.377
 9569WAT      O28948   6.684   4.039   1.533
 9569WAT     H128949   6.774   4.048   1.576
 9569WAT     H228950   6.694   3.998   1.442
 9570WAT      O28951   7.374   8.780   4.889
 9570WAT     H128952   7.318   8.850   4.934
 9570WAT     H228953   7.315   8.722   4.832
 9571WAT      O28954   7.043   8.546   6.396
 9571WAT     H128955   7.052   8.559   6.495
 9571WAT     H228956   7.039   8.636   6.352
 9572WAT      O28957   6.481   0.447   3.061
 9572WAT     H128958   6.537   0.519   3.019
 9572WAT     H228959   6.446   0.386   2.990
 9573WAT      O28960   9.568   8.257   9.057
 9573WAT     H128961   9.574   8.262   8.957
 9573WAT     H228962   9.474   8.278   9.085
 9574WAT      O28963   6.842   4.860   7.835
 9574WAT     H128964   6.823   4.910   7.919
 9574WAT     H228965   6.933   4.884   7.801
 9575WAT      O28966   5.096   7.864   8.406
 9575WAT     H128967   5.091   7.788   8.342
 9575WAT     H228968   5.162   7.842   8.478
 9576WAT      O28969   7.132   4.499   3.339
 9576WAT     H128970   7.038   4.533   3.341
 9576WAT     H228971   7.136   4.417   3.282
 9577WAT      O28972   0.850   4.770   7.829
 9577WAT     H128973   0.775   4.803   7.771
 9577WAT     H228974   0.837   4.673   7.849
 9578WAT      O28975   0.339   9.759   7.483
 9578WAT     H128976   0.319   9.667   7.516
 9578WAT     H228977   0.408   9.754   7.411
 9579WAT      O28978   0.288   3.040   3.560
 9579WAT     H128979   0.351   3.108   3.596
 9579WAT     H228980   0.216   3.021   3.628
 9580WAT      O28981   2.012   9.020   4.494
 9580WAT     H128982   1.949   9.080   4.542
 9580WAT     H228983   2.100   9.018   4.541
 9581WAT      O28984   9.220   0.896   7.707
 9581WAT     H128985   9.211   0.803   7.743
 9581WAT     H228986   9.142   0.917   7.648
 9582WAT      O28987   0.426   2.328   7.194
 9582WAT     H128988   0.379   2.416   7.203
 9582WAT     H228989   0.523   2.340   7.211
 9583WAT      O28990   0.261   1.865   4.122
 9583WAT     H128991   0.295   1.776   4.152
 9583WAT     H228992   0.328   1.908   4.062
 9584WAT      O28993   8.816   3.029   5.418
 9584WAT     H128994   8.805   2.945   5.470
 9584WAT     H228995   8.727   3.069   5.399
 9585WAT      O28996   6.915   7.030   8.959
 9585WAT     H128997   6.974   7.047   8.880
 9585WAT     H228998   6.967   6.986   9.031
 9586WAT      O28999   9.853   9.446   1.259
 9586WAT     H129000   9.797   9.398   1.327
 9586WAT     H229001   9.795   9.511   1.209
 9587WAT      O29002   8.606   4.380   2.099
 9587WAT     H129003   8.662   4.303   2.130
 9587WAT     H229004   8.666   4.454   2.066
 9588WAT      O29005   2.055   1.061   3.826
 9588WAT     H129006   2.079   0.999   3.901
 9588WAT     H229007   2.103   1.148   3.838
 9589WAT      O29008   3.060   3.544   4.349
 9589WAT     H129009   3.101   3.602   4.280
 9589WAT     H229010   3.102   3.453   4.346
 9590WAT      O29011   2.344   0.706   0.022
 9590WAT     H129012   2.252   0.725  -0.012
 9590WAT     H229013   2.379   0.786   0.070
 9591WAT      O29014   1.330   8.970   7.827
 9591WAT     H129015   1.246   9.024   7.831
 9591WAT     H229016   1.308   8.873   7.835
 9592WAT      O29017   4.833   4.718   1.924
 9592WAT     H129018   4.910   4.683   1.871
 9592WAT     H229019   4.860   4.728   2.020
 9593WAT      O29020   7.843   6.311   2.044
 9593WAT     H129021   7.770   6.243   2.049
 9593WAT     H229022   7.814   6.395   2.090
 9594WAT      O29023   2.520   3.672   4.631
 9594WAT     H129024   2.562   3.602   4.689
 9594WAT     H229025   2.488   3.748   4.688
 9595WAT      O29026   3.458   1.274   5.800
 9595WAT     H129027   3.410   1.307   5.881
 9595WAT     H229028   3.453   1.345   5.728
 9596WAT      O29029   0.289   5.296   9.097
 9596WAT     H129030   0.268   5.231   9.023
 9596WAT     H229031   0.279   5.250   9.185
 9597WAT      O29032   6.538   9.127   1.139
 9597WAT     H129033   6.520   9.155   1.045
 9597WAT     H229034   6.530   9.207   1.199
 9598WAT      O29035   4.009   8.120   6.172
 9598WAT     H129036   4.023   8.194   6.238
 9598WAT     H229037   4.098   8.090   6.136
 9599WAT      O29038   5.498   4.737   3.175
 9599WAT     H129039   5.589   4.773   3.197
 9599WAT     H229040   5.445   4.808   3.128
 9600WAT      O29041   0.349   9.234   4.327
 9600WAT     H129042   0.410   9.179   4.271
 9600WAT     H229043   0.278   9.276   4.269
 9601WAT      O29044   9.257   1.097   9.751
 9601WAT     H129045   9.187   1.094   9.822
 9601WAT     H229046   9.217   1.070   9.663
 9602WAT      O29047   6.390   0.009   5.786
 9602WAT     H129048   6.389   0.104   5.817
 9602WAT     H229049   6.313  -0.041   5.826
 9603WAT      O29050   9.643   8.162   4.114
 9603WAT     H129051   9.638   8.183   4.016
 9603WAT     H229052   9.550   8.153   4.150
 9604WAT      O29053   0.873   5.185   6.665
 9604WAT     H129054   0.789   5.204   6.614
 9604WAT     H229055   0.911   5.270   6.700
 9605WAT      O29056   2.385   7.393   6.198
 9605WAT     H129057   2.482   7.389   6.171
 9605WAT     H229058   2.327   7.372   6.119
 9606WAT      O29059   6.395   7.923   8.084
 9606WAT     H129060   6.473   7.880   8.129
 9606WAT     H229061   6.374   8.009   8.131
 9607WAT      O29062   4.027   5.982   8.912
 9607WAT     H129063   3.986   5.955   8.999
 9607WAT     H229064   4.066   6.073   8.920
 9608WAT      O29065   1.420   2.379   2.020
 9608WAT     H129066   1.464   2.290   2.028
 9608WAT     H229067   1.364   2.396   2.102
 9609WAT      O29068   5.335   0.839   8.009
 9609WAT     H129069   5.240   0.823   7.984
 9609WAT     H229070   5.358   0.784   8.089
 9610WAT      O29071   7.219   2.560   3.635
 9610WAT     H129072   7.297   2.611   3.599
 9610WAT     H229073   7.240   2.526   3.727
 9611WAT      O29074   7.769   0.334   8.711
 9611WAT     H129075   7.771   0.434   8.709
 9611WAT     H229076   7.737   0.303   8.800
 9612WAT      O29077   1.190   6.628   8.391
 9612WAT     H129078   1.160   6.541   8.430
 9612WAT     H229079   1.177   6.626   8.292
 9613WAT      O29080   4.788   4.135   8.275
 9613WAT     H129081   4.713   4.092   8.325
 9613WAT     H229082   4.773   4.233   8.270
 9614WAT      O29083   1.071   0.676   1.247
 9614WAT     H129084   1.094   0.663   1.151
 9614WAT     H229085   1.113   0.603   1.302
 9615WAT      O29086   6.236   9.651   6.262
 9615WAT     H129087   6.320   9.597   6.267
 9615WAT     H229088   6.163   9.605   6.312
 9616WAT      O29089   3.856   5.780   8.247
 9616WAT     H129090   3.916   5.776   8.327
 9616WAT     H229091   3.878   5.704   8.186
 9617WAT      O29092   5.725   2.616   9.276
 9617WAT     H129093   5.747   2.555   9.352
 9617WAT     H229094   5.629   2.606   9.252
 9618WAT      O29095   7.221   0.680   7.755
 9618WAT     H129096   7.263   0.613   7.693
 9618WAT     H229097   7.139   0.641   7.796
 9619WAT      O29098   6.900   7.064   2.096
 9619WAT     H129099   6.909   7.060   2.196
 9619WAT     H229100   6.911   6.972   2.058
 9620WAT      O29101   0.659   5.611   0.589
 9620WAT     H129102   0.573   5.662   0.581
 9620WAT     H229103   0.735   5.671   0.562
 9621WAT      O29104   7.616   3.617   7.153
 9621WAT     H129105   7.675   3.612   7.072
 9621WAT     H229106   7.659   3.675   7.222
 9622WAT      O29107   9.105   7.242   0.317
 9622WAT     H129108   9.114   7.282   0.408
 9622WAT     H229109   9.127   7.144   0.322
 9623WAT      O29110   9.175   1.662   5.259
 9623WAT     H129111   9.212   1.740   5.308
 9623WAT     H229112   9.238   1.636   5.185
 9624WAT      O29113   3.771   9.554   8.485
 9624WAT     H129114   3.698   9.555   8.553
 9624WAT     H229115   3.855   9.520   8.526
 9625WAT      O29116   4.949   3.487   6.348
 9625WAT     H129117   5.002   3.464   6.429
 9625WAT     H229118   4.978   3.576   6.313
 9626WAT      O29119   7.768   1.294   0.280
 9626WAT     H129120   7.830   1.372   0.272
 9626WAT     H229121   7.678   1.319   0.243
 9627WAT      O29122   6.443   2.619   0.083
 9627WAT     H129123   6.505   2.611   0.006
 9627WAT     H229124   6.349   2.603   0.052
 9628WAT      O29125   4.778   9.073   2.893
 9628WAT     H129126   4.720   9.149   2.864
 9628WAT     H229127   4.726   8.988   2.889
 9629WAT      O29128   5.324   9.259   6.234
 9629WAT     H129129   5.415   9.228   6.205
 9629WAT     H229130   5.334   9.331   6.303
 9630WAT      O29131   9.511   1.141   3.388
 9630WAT     H129132   9.600   1.120   3.347
 9630WAT     H229133   9.460   1.056   3.401
 9631WAT      O29134   7.110   4.326   4.789
 9631WAT     H129135   7.197   4.347   4.745
 9631WAT     H229136   7.095   4.227   4.788
 9632WAT      O29137   1.020   5.201   8.796
 9632WAT     H129138   1.026   5.105   8.824
 9632WAT     H229139   0.970   5.252   8.865
 9633WAT      O29140   2.348   1.429   0.418
 9633WAT     H129141   2.268   1.370   0.406
 9633WAT     H229142   2.395   1.404   0.503
 9634WAT      O29143   1.666   2.073   0.885
 9634WAT     H129144   1.687   2.025   0.800
 9634WAT     H229145   1.679   2.172   0.872
 9635WAT      O29146   5.101   4.731   9.131
 9635WAT     H129147   5.030   4.711   9.199
 9635WAT     H229148   5.150   4.814   9.157
 9636WAT      O29149   5.045   2.675   5.841
 9636WAT     H129150   4.984   2.615   5.789
 9636WAT     H229151   5.047   2.765   5.798
 9637WAT      O29152   3.760   6.976   4.734
 9637WAT     H129153   3.860   6.985   4.727
 9637WAT     H229154   3.728   6.911   4.665
 9638WAT      O29155   0.469   0.538   5.673
 9638WAT     H129156   0.463   0.597   5.754
 9638WAT     H229157   0.529   0.581   5.605
 9639WAT      O29158   5.246   7.335   0.475
 9639WAT     H129159   5.332   7.293   0.502
 9639WAT     H229160   5.192   7.270   0.422
 9640WAT      O29161   6.376   1.502   1.557
 9640WAT     H129162   6.338   1.571   1.618
 9640WAT     H229163   6.412   1.426   1.611
 9641WAT      O29164   2.289   6.196   3.110
 9641WAT     H129165   2.335   6.138   3.042
 9641WAT     H229166   2.199   6.222   3.076
 9642WAT      O29167   1.448   9.472   8.057
 9642WAT     H129168   1.501   9.546   8.016
 9642WAT     H229169   1.476   9.385   8.016
 9643WAT      O29170   9.141   2.408   2.733
 9643WAT     H129171   9.168   2.342   2.663
 9643WAT     H229172   9.194   2.492   2.722
 9644WAT      O29173   6.317   8.967   3.783
 9644WAT     H129174   6.314   8.901   3.858
 9644WAT     H229175   6.273   8.928   3.702
 9645WAT      O29176   0.755   4.001   0.411
 9645WAT     H129177   0.837   3.945   0.409
 9645WAT     H229178   0.746   4.046   0.500
 9646WAT      O29179   4.912   6.058   7.160
 9646WAT     H129180   4.949   6.149   7.141
 9646WAT     H229181   4.852   6.063   7.240
 9647WAT      O29182   6.233   9.503   7.257
 9647WAT     H129183   6.202   9.578   7.314
 9647WAT     H229184   6.207   9.519   7.162
 9648WAT      O29185   5.419   2.325   5.188
 9648WAT     H129186   5.423   2.356   5.283
 9648WAT     H229187   5.490   2.373   5.135
 9649WAT      O29188   5.519   1.818   5.277
 9649WAT     H129189   5.537   1.829   5.374
 9649WAT     H229190   5.508   1.908   5.234
 9650WAT      O29191   1.255   3.237   4.383
 9650WAT     H129192   1.278   3.264   4.289
 9650WAT     H229193   1.258   3.318   4.442
 9651WAT      O29194   1.568   0.354   6.855
 9651WAT     H129195   1.543   0.294   6.932
 9651WAT     H229196   1.525   0.320   6.772
 9652WAT      O29197   3.895   3.661   5.519
 9652WAT     H129198   3.899   3.667   5.619
 9652WAT     H229199   3.799   3.662   5.490
 9653WAT      O29200   3.939   2.866   2.414
 9653WAT     H129201   3.864   2.924   2.382
 9653WAT     H229202   3.938   2.862   2.513
 9654WAT      O29203   9.033   1.116   2.382
 9654WAT     H129204   8.954   1.126   2.322
 9654WAT     H229205   9.097   1.191   2.366
 9655WAT      O29206   5.957   1.170   3.914
 9655WAT     H129207   5.896   1.131   3.845
 9655WAT     H229208   6.032   1.218   3.869
 9656WAT      O29209   8.863   3.681   6.814
 9656WAT     H129210   8.900   3.760   6.861
 9656WAT     H229211   8.789   3.710   6.753
 9657WAT      O29212   3.885   5.634   7.486
 9657WAT     H129213   3.793   5.670   7.503
 9657WAT     H229214   3.947   5.668   7.556
 9658WAT      O29215   1.060   0.138   6.681
 9658WAT     H129216   1.032   0.045   6.708
 9658WAT     H229217   1.154   0.154   6.710
 9659WAT      O29218   3.439   0.562   5.743
 9659WAT     H129219   3.491   0.478   5.758
 9659WAT     H229220   3.440   0.617   5.827
 9660WAT      O29221   1.304   8.352   6.722
 9660WAT     H129222   1.342   8.356   6.630
 9660WAT     H229223   1.313   8.442   6.766
 9661WAT      O29224   9.678   9.375   1.439
 9661WAT     H129225   9.598   9.429   1.464
 9661WAT     H229226   9.649   9.293   1.389
 9662WAT      O29227   0.150   6.889   7.170
 9662WAT     H129228   0.176   6.814   7.231
 9662WAT     H229229   0.068   6.934   7.205
 9663WAT      O29230   5.732   9.329   6.845
 9663WAT     H129231   5.648   9.383   6.857
 9663WAT     H229232   5.708   9.235   6.820
 9664WAT      O29233   3.061   4.861   1.806
 9664WAT     H129234   3.004   4.838   1.727
 9664WAT     H229235   3.130   4.929   1.780
 9665WAT      O29236   3.756   2.551   0.533
 9665WAT     H129237   3.703   2.561   0.617
 9665WAT     H229238   3.778   2.454   0.519
 9666WAT      O29239   4.291   0.923   8.057
 9666WAT     H129240   4.249   0.880   7.978
 9666WAT     H229241   4.260   1.018   8.064
 9667WAT      O29242   1.965   4.356   9.582
 9667WAT     H129243   2.007   4.279   9.533
 9667WAT     H229244   1.877   4.326   9.620
 9668WAT      O29245   6.932   2.523   3.824
 9668WAT     H129246   6.938   2.424   3.809
 9668WAT     H229247   7.015   2.567   3.790
 9669WAT      O29248   3.792   2.085   6.604
 9669WAT     H129249   3.841   2.011   6.559
 9669WAT     H229250   3.856   2.139   6.659
 9670WAT      O29251   3.199   5.696   1.572
 9670WAT     H129252   3.241   5.782   1.544
 9670WAT     H229253   3.245   5.620   1.527
 9671WAT      O29254   7.479   3.643   1.060
 9671WAT     H129255   7.559   3.614   1.113
 9671WAT     H229256   7.450   3.734   1.090
 9672WAT      O29257   3.088   2.921   4.920
 9672WAT     H129258   3.157   2.887   4.856
 9672WAT     H229259   3.115   2.897   5.013
 9673WAT      O29260   8.220   2.373   1.995
 9673WAT     H129261   8.156   2.449   1.984
 9673WAT     H229262   8.309   2.399   1.959
 9674WAT      O29263   4.919   4.287   5.345
 9674WAT     H129264   4.947   4.219   5.413
 9674WAT     H229265   4.958   4.376   5.370
 9675WAT      O29266   4.736   9.310   9.740
 9675WAT     H129267   4.723   9.390   9.800
 9675WAT     H229268   4.825   9.317   9.694
 9676WAT      O29269   5.795   2.103   8.268
 9676WAT     H129270   5.750   2.126   8.181
 9676WAT     H229271   5.890   2.076   8.250
 9677WAT      O29272   0.574   5.118   2.161
 9677WAT     H129273   0.484   5.089   2.193
 9677WAT     H229274   0.644   5.055   2.195
 9678WAT      O29275   8.614   8.154   7.819
 9678WAT     H129276   8.593   8.172   7.723
 9678WAT     H229277   8.573   8.224   7.877
 9679WAT      O29278   3.030   2.301   5.332
 9679WAT     H129279   2.973   2.371   5.291
 9679WAT     H229280   3.098   2.270   5.265
 9680WAT      O29281   8.658   6.349   7.422
 9680WAT     H129282   8.606   6.419   7.471
 9680WAT     H229283   8.750   6.383   7.404
 9681WAT      O29284   2.457   7.241   0.185
 9681WAT     H129285   2.441   7.171   0.255
 9681WAT     H229286   2.374   7.255   0.132
 9682WAT      O29287   3.025   6.659   3.880
 9682WAT     H129288   3.013   6.584   3.815
 9682WAT     H229289   3.042   6.622   3.971
 9683WAT      O29290   6.601   9.838   1.577
 9683WAT     H129291   6.623   9.931   1.550
 9683WAT     H229292   6.503   9.822   1.567
 9684WAT      O29293   8.508   0.247   8.386
 9684WAT     H129294   8.488   0.197   8.471
 9684WAT     H229295   8.601   0.226   8.356
 9685WAT      O29296   2.741   6.890   5.045
 9685WAT     H129297   2.684   6.809   5.057
 9685WAT     H229298   2.727   6.953   5.121
 9686WAT      O29299   1.462   1.306   8.721
 9686WAT     H129300   1.375   1.294   8.673
 9686WAT     H229301   1.517   1.374   8.674
 9687WAT      O29302   5.574   6.568   9.808
 9687WAT     H129303   5.529   6.656   9.820
 9687WAT     H229304   5.673   6.580   9.815
 9688WAT      O29305   1.360   9.486   9.016
 9688WAT     H129306   1.278   9.541   9.006
 9688WAT     H229307   1.413   9.489   8.932
 9689WAT      O29308   6.196   4.200   5.017
 9689WAT     H129309   6.102   4.197   4.982
 9689WAT     H229310   6.195   4.222   5.114
 9690WAT      O29311   5.338   7.481   6.168
 9690WAT     H129312   5.364   7.390   6.137
 9690WAT     H229313   5.380   7.550   6.110
 9691WAT      O29314   1.845   1.317   2.484
 9691WAT     H129315   1.809   1.224   2.490
 9691WAT     H229316   1.924   1.326   2.544
 9692WAT      O29317   0.202   0.697   8.959
 9692WAT     H129318   0.294   0.659   8.966
 9692WAT     H229319   0.174   0.734   9.047
 9693WAT      O29320   7.686   0.459   1.769
 9693WAT     H129321   7.711   0.503   1.855
 9693WAT     H229322   7.699   0.360   1.776
 9694WAT      O29323   9.761   7.090   2.780
 9694WAT     H129324   9.751   7.001   2.825
 9694WAT     H229325   9.848   7.093   2.731
 9695WAT      O29326   0.095   7.714   7.095
 9695WAT     H129327   0.100   7.803   7.048
 9695WAT     H229328   0.132   7.643   7.036
 9696WAT      O29329   8.173   3.773   8.636
 9696WAT     H129330   8.108   3.701   8.658
 9696WAT     H229331   8.266   3.737   8.638
 9697WAT      O29332   8.152   4.948   5.498
 9697WAT     H129333   8.214   4.883   5.455
 9697WAT     H229334   8.196   5.038   5.506
 9698WAT      O29335   7.322   2.859   3.553
 9698WAT     H129336   7.391   2.787   3.544
 9698WAT     H229337   7.298   2.870   3.649
 9699WAT      O29338   9.610   4.839   0.458
 9699WAT     H129339   9.516   4.807   0.472
 9699WAT     H229340   9.621   4.868   0.363
 9700WAT      O29341   9.794   7.160   4.122
 9700WAT     H129342   9.833   7.245   4.086
 9700WAT     H229343   9.784   7.168   4.221
 9701WAT      O29344   9.177   8.842   6.731
 9701WAT     H129345   9.268   8.856   6.690
 9701WAT     H229346   9.173   8.752   6.773
 9702WAT      O29347   9.237   0.942   0.841
 9702WAT     H129348   9.239   1.004   0.763
 9702WAT     H229349   9.266   0.991   0.924
 9703WAT      O29350   3.973   5.355   7.469
 9703WAT     H129351   3.912   5.290   7.423
 9703WAT     H229352   3.945   5.448   7.445
 9704WAT      O29353   0.696   6.478   0.154
 9704WAT     H129354   0.614   6.482   0.210
 9704WAT     H229355   0.724   6.383   0.142
 9705WAT      O29356   0.675   2.145   5.971
 9705WAT     H129357   0.771   2.133   5.946
 9705WAT     H229358   0.650   2.076   6.038
 9706WAT      O29359   7.700   7.519   9.476
 9706WAT     H129360   7.692   7.454   9.551
 9706WAT     H229361   7.760   7.594   9.503
 9707WAT      O29362   4.329   7.036   2.189
 9707WAT     H129363   4.349   7.075   2.279
 9707WAT     H229364   4.244   6.984   2.194
 9708WAT      O29365   7.857   2.827   2.597
 9708WAT     H129366   7.829   2.758   2.531
 9708WAT     H229367   7.936   2.793   2.648
 9709WAT      O29368   4.237   9.405   4.253
 9709WAT     H129369   4.147   9.403   4.296
 9709WAT     H229370   4.230   9.371   4.159
 9710WAT      O29371   7.673   0.849   3.038
 9710WAT     H129372   7.603   0.877   2.972
 9710WAT     H229373   7.652   0.756   3.070
 9711WAT      O29374   7.321   3.218   1.136
 9711WAT     H129375   7.297   3.288   1.204
 9711WAT     H229376   7.239   3.167   1.112
 9712WAT      O29377   6.279   1.965   0.137
 9712WAT     H129378   6.207   1.941   0.072
 9712WAT     H229379   6.263   2.057   0.172
 9713WAT      O29380   6.192   0.289   2.286
 9713WAT     H129381   6.239   0.236   2.216
 9713WAT     H229382   6.228   0.383   2.287
 9714WAT      O29383   1.475   7.510   0.722
 9714WAT     H129384   1.418   7.471   0.651
 9714WAT     H229385   1.465   7.458   0.806
 9715WAT      O29386   8.035   4.729   1.319
 9715WAT     H129387   8.013   4.635   1.292
 9715WAT     H229388   8.126   4.733   1.358
 9716WAT      O29389   0.261   3.871   7.116
 9716WAT     H129390   0.234   3.947   7.175
 9716WAT     H229391   0.354   3.888   7.081
 9717WAT      O29392   6.871   4.161   5.198
 9717WAT     H129393   6.958   4.112   5.194
 9717WAT     H229394   6.865   4.224   5.120
 9718WAT      O29395   2.945   7.802   4.437
 9718WAT     H129396   2.851   7.779   4.460
 9718WAT     H229397   2.999   7.718   4.428
 9719WAT      O29398   0.647   4.232   3.569
 9719WAT     H129399   0.551   4.237   3.597
 9719WAT     H229400   0.687   4.324   3.570
 9720WAT      O29401   7.261   0.431   6.974
 9720WAT     H129402   7.350   0.432   7.020
 9720WAT     H229403   7.188   0.426   7.042
 9721WAT      O29404   7.059   5.609   3.978
 9721WAT     H129405   6.974   5.569   3.943
 9721WAT     H229406   7.106   5.543   4.035
 9722WAT      O29407   4.061   6.239   7.005
 9722WAT     H129408   3.987   6.260   6.941
 9722WAT     H229409   4.022   6.204   7.090
 9723WAT      O29410   9.338   3.485   6.959
 9723WAT     H129411   9.274   3.546   7.006
 9723WAT     H229412   9.318   3.390   6.985
 9724WAT      O29413   6.477   3.500   9.234
 9724WAT     H129414   6.411   3.435   9.271
 9724WAT     H229415   6.435   3.555   9.162
 9725WAT      O29416   3.124   7.075   2.685
 9725WAT     H129417   3.077   7.126   2.758
 9725WAT     H229418   3.181   7.003   2.726
 9726WAT      O29419   7.302   9.764   1.990
 9726WAT     H129420   7.295   9.665   2.004
 9726WAT     H229421   7.242   9.792   1.915
 9727WAT      O29422   8.442   7.040   7.104
 9727WAT     H129423   8.413   6.970   7.169
 9727WAT     H229424   8.373   7.049   7.032
 9728WAT      O29425   0.334   5.099   7.706
 9728WAT     H129426   0.394   5.098   7.626
 9728WAT     H229427   0.381   5.058   7.784
 9729WAT      O29428   5.294   1.941   2.983
 9729WAT     H129429   5.324   2.032   2.953
 9729WAT     H229430   5.358   1.873   2.947
 9730WAT      O29431   7.982   7.836   0.345
 9730WAT     H129432   7.896   7.806   0.387
 9730WAT     H229433   8.056   7.777   0.374
 9731WAT      O29434   6.190   1.799   9.421
 9731WAT     H129435   6.200   1.701   9.438
 9731WAT     H229436   6.178   1.815   9.323
 9732WAT      O29437   7.963   6.931   7.889
 9732WAT     H129438   7.946   6.863   7.817
 9732WAT     H229439   7.884   6.992   7.897
 9733WAT      O29440   8.915   7.212   7.471
 9733WAT     H129441   8.849   7.151   7.516
 9733WAT     H229442   8.868   7.267   7.402
 9734WAT      O29443   8.974   1.898   0.667
 9734WAT     H129444   9.012   1.805   0.670
 9734WAT     H229445   8.901   1.902   0.599
 9735WAT      O29446   0.121   4.332   9.732
 9735WAT     H129447   0.207   4.303   9.690
 9735WAT     H229448   0.069   4.252   9.761
 9736WAT      O29449   2.867   6.858   9.430
 9736WAT     H129450   2.799   6.898   9.492
 9736WAT     H229451   2.871   6.759   9.444
 9737WAT      O29452   2.052   9.131   7.186
 9737WAT     H129453   2.109   9.212   7.171
 9737WAT     H229454   2.081   9.086   7.271
 9738WAT      O29455   0.910   7.357   2.155
 9738WAT     H129456   0.972   7.382   2.080
 9738WAT     H229457   0.964   7.337   2.237
 9739WAT      O29458   3.770   5.977   6.765
 9739WAT     H129459   3.761   5.900   6.702
 9739WAT     H229460   3.717   5.958   6.848
 9740WAT      O29461   2.612   6.216   1.843
 9740WAT     H129462   2.628   6.267   1.927
 9740WAT     H229463   2.517   6.187   1.839
 9741WAT      O29464   6.363   9.000   7.020
 9741WAT     H129465   6.448   8.961   7.056
 9741WAT     H229466   6.329   8.944   6.945
 9742WAT      O29467   6.894   4.362   1.551
 9742WAT     H129468   6.808   4.366   1.602
 9742WAT     H229469   6.884   4.415   1.466
 9743WAT      O29470   7.692   0.863   8.253
 9743WAT     H129471   7.633   0.871   8.334
 9743WAT     H229472   7.678   0.941   8.193
 9744WAT      O29473   1.248   2.148   6.489
 9744WAT     H129474   1.193   2.143   6.572
 9744WAT     H229475   1.322   2.213   6.502
 9745WAT      O29476   8.852   5.837   7.099
 9745WAT     H129477   8.755   5.825   7.082
 9745WAT     H229478   8.892   5.751   7.132
 9746WAT      O29479   6.964   3.530   5.711
 9746WAT     H129480   6.912   3.614   5.726
 9746WAT     H229481   6.969   3.477   5.795
 9747WAT      O29482   2.806   8.077   6.183
 9747WAT     H129483   2.730   8.011   6.187
 9747WAT     H229484   2.858   8.073   6.268
 9748WAT      O29485   8.067   8.472   2.853
 9748WAT     H129486   8.124   8.391   2.839
 9748WAT     H229487   7.971   8.445   2.857
 9749WAT      O29488   1.386   0.737   0.196
 9749WAT     H129489   1.365   0.712   0.290
 9749WAT     H229490   1.322   0.806   0.164
 9750WAT      O29491   6.448   7.231   1.962
 9750WAT     H129492   6.527   7.189   1.918
 9750WAT     H229493   6.448   7.330   1.945
 9751WAT      O29494   7.804   1.472   7.161
 9751WAT     H129495   7.877   1.411   7.131
 9751WAT     H229496   7.791   1.463   7.260
 9752WAT      O29497   6.144   5.066   2.349
 9752WAT     H129498   6.232   5.046   2.307
 9752WAT     H229499   6.072   5.056   2.280
 9753WAT      O29500   8.644   2.440   1.189
 9753WAT     H129501   8.724   2.409   1.139
 9753WAT     H229502   8.643   2.399   1.280
 9754WAT      O29503   1.178   6.118   7.528
 9754WAT     H129504   1.085   6.147   7.548
 9754WAT     H229505   1.238   6.139   7.605
 9755WAT      O29506   6.285   1.159   1.234
 9755WAT     H129507   6.253   1.238   1.183
 9755WAT     H229508   6.220   1.084   1.223
 9756WAT      O29509   0.114   8.678   0.668
 9756WAT     H129510   0.090   8.775   0.676
 9756WAT     H229511   0.068   8.638   0.589
 9757WAT      O29512   9.194   8.588   1.817
 9757WAT     H129513   9.138   8.626   1.743
 9757WAT     H229514   9.200   8.489   1.807
 9758WAT      O29515   8.599   1.178   2.094
 9758WAT     H129516   8.515   1.218   2.056
 9758WAT     H229517   8.659   1.250   2.128
 9759WAT      O29518   7.983   8.973   3.203
 9759WAT     H129519   7.934   8.923   3.274
 9759WAT     H229520   8.059   8.917   3.170
 9760WAT      O29521   7.190   4.734   3.718
 9760WAT     H129522   7.130   4.779   3.652
 9760WAT     H229523   7.269   4.695   3.670
 9761WAT      O29524   3.227   7.872   3.315
 9761WAT     H129525   3.222   7.848   3.218
 9761WAT     H229526   3.245   7.790   3.369
 9762WAT      O29527   9.068   0.258   6.052
 9762WAT     H129528   9.010   0.272   5.972
 9762WAT     H229529   9.155   0.306   6.038
 9763WAT      O29530   5.389   7.198   3.587
 9763WAT     H129531   5.399   7.160   3.679
 9763WAT     H229532   5.322   7.143   3.536
 9764WAT      O29533   7.750   0.009   4.928
 9764WAT     H129534   7.712   0.010   5.021
 9764WAT     H229535   7.780  -0.084   4.906
 9765WAT      O29536   1.719   6.360   9.434
 9765WAT     H129537   1.762   6.354   9.344
 9765WAT     H229538   1.744   6.281   9.489
 9766WAT      O29539   5.976   1.301   5.519
 9766WAT     H129540   6.017   1.297   5.429
 9766WAT     H229541   5.984   1.212   5.564
 9767WAT      O29542   4.467   7.348   7.903
 9767WAT     H129543   4.406   7.304   7.836
 9767WAT     H229544   4.561   7.342   7.871
 9768WAT      O29545   2.833   4.087   6.397
 9768WAT     H129546   2.871   4.179   6.409
 9768WAT     H229547   2.747   4.092   6.347
 9769WAT      O29548   6.528   4.718   2.813
 9769WAT     H129549   6.538   4.758   2.904
 9769WAT     H229550   6.483   4.629   2.820
 9770WAT      O29551   3.743   3.966   8.360
 9770WAT     H129552   3.648   3.948   8.333
 9770WAT     H229553   3.804   3.939   8.286
 9771WAT      O29554   2.870   7.566   9.582
 9771WAT     H129555   2.946   7.629   9.567
 9771WAT     H229556   2.817   7.595   9.661
 9772WAT      O29557   6.184   0.914   0.662
 9772WAT     H129558   6.212   0.998   0.710
 9772WAT     H229559   6.255   0.886   0.598
 9773WAT      O29560   4.194   5.086   7.218
 9773WAT     H129561   4.230   5.136   7.297
 9773WAT     H229562   4.129   5.017   7.249
 9774WAT      O29563   8.308   7.239   6.589
 9774WAT     H129564   8.269   7.203   6.504
 9774WAT     H229565   8.239   7.297   6.634
 9775WAT      O29566   2.503   2.788   8.716
 9775WAT     H129567   2.552   2.861   8.763
 9775WAT     H229568   2.558   2.705   8.716
 9776WAT      O29569   2.948   3.105   5.511
 9776WAT     H129570   2.897   3.184   5.476
 9776WAT     H229571   3.000   3.132   5.592
 9777WAT      O29572   6.173   6.750   4.513
 9777WAT     H129573   6.149   6.655   4.533
 9777WAT     H229574   6.143   6.808   4.588
 9778WAT      O29575   0.840   7.788   1.710
 9778WAT     H129576   0.827   7.822   1.617
 9778WAT     H229577   0.756   7.743   1.741
 9779WAT      O29578   2.435   0.089   3.108
 9779WAT     H129579   2.379   0.118   3.031
 9779WAT     H229580   2.434  -0.011   3.114
 9780WAT      O29581   3.114   7.990   3.751
 9780WAT     H129582   3.167   8.054   3.695
 9780WAT     H229583   3.151   7.988   3.844
 9781WAT      O29584   7.421   1.079   3.117
 9781WAT     H129585   7.338   1.124   3.149
 9781WAT     H229586   7.472   1.043   3.195
 9782WAT      O29587   3.438   2.834   7.659
 9782WAT     H129588   3.480   2.743   7.660
 9782WAT     H229589   3.502   2.900   7.621
 9783WAT      O29590   2.999   5.599   6.292
 9783WAT     H129591   2.984   5.690   6.329
 9783WAT     H229592   2.937   5.583   6.215
 9784WAT      O29593   9.704   7.908   6.886
 9784WAT     H129594   9.702   7.814   6.853
 9784WAT     H229595   9.662   7.968   6.818
 9785WAT      O29596   3.754   0.422   4.211
 9785WAT     H129597   3.846   0.389   4.232
 9785WAT     H229598   3.728   0.392   4.120
 9786WAT      O29599   8.855   2.055   1.958
 9786WAT     H129600   8.822   2.148   1.973
 9786WAT     H229601   8.950   2.058   1.926
 9787WAT      O29602   0.004   4.555   1.481
 9787WAT     H129603   0.085   4.532   1.428
 9787WAT     H229604   0.007   4.508   1.570
 9788WAT      O29605   4.090   4.694   2.156
 9788WAT     H129606   4.100   4.596   2.138
 9788WAT     H229607   4.035   4.707   2.239
 9789WAT      O29608   6.453   7.289   1.221
 9789WAT     H129609   6.471   7.367   1.161
 9789WAT     H229610   6.430   7.322   1.312
 9790WAT      O29611   1.363   2.084   4.340
 9790WAT     H129612   1.429   2.009   4.347
 9790WAT     H229613   1.324   2.102   4.431
 9791WAT      O29614   8.679   2.913   2.064
 9791WAT     H129615   8.709   2.850   2.136
 9791WAT     H229616   8.622   2.984   2.104
 9792WAT      O29617   0.925   4.406   9.874
 9792WAT     H129618   1.020   4.431   9.853
 9792WAT     H229619   0.915   4.395   9.973
 9793WAT      O29620   1.269   9.252   9.101
 9793WAT     H129621   1.319   9.338   9.091
 9793WAT     H229622   1.282   9.217   9.194
 9794WAT      O29623   5.566   2.640   8.580
 9794WAT     H129624   5.479   2.605   8.615
 9794WAT     H229625   5.634   2.566   8.579
 9795WAT      O29626   4.450   3.021   6.430
 9795WAT     H129627   4.495   3.106   6.458
 9795WAT     H229628   4.519   2.953   6.405
 9796WAT      O29629   8.062   3.107   2.753
 9796WAT     H129630   8.063   3.028   2.814
 9796WAT     H229631   8.092   3.189   2.802
 9797WAT      O29632   6.537   8.175   7.428
 9797WAT     H129633   6.440   8.167   7.402
 9797WAT     H229634   6.543   8.187   7.527
 9798WAT      O29635   5.648   2.612   7.367
 9798WAT     H129636   5.605   2.527   7.398
 9798WAT     H229637   5.578   2.682   7.353
 9799WAT      O29638   2.847   0.682   2.223
 9799WAT     H129639   2.831   0.587   2.250
 9799WAT     H229640   2.772   0.739   2.256
 9800WAT      O29641   1.504   3.600   9.466
 9800WAT     H129642   1.563   3.639   9.537
 9800WAT     H229643   1.561   3.555   9.397
 9801WAT      O29644   9.674   0.085   2.004
 9801WAT     H129645   9.589   0.033   2.012
 9801WAT     H229646   9.691   0.134   2.090
 9802WAT      O29647   4.167   5.439   1.486
 9802WAT     H129648   4.142   5.507   1.555
 9802WAT     H229649   4.258   5.403   1.505
 9803WAT      O29650   6.035   0.358   3.872
 9803WAT     H129651   6.002   0.388   3.782
 9803WAT     H229652   5.962   0.369   3.940
 9804WAT      O29653   4.981   9.662   1.210
 9804WAT     H129654   5.032   9.720   1.272
 9804WAT     H229655   4.883   9.669   1.231
 9805WAT      O29656   7.804   9.247   7.850
 9805WAT     H129657   7.887   9.269   7.799
 9805WAT     H229658   7.752   9.330   7.868
 9806WAT      O29659   0.533   1.604   4.552
 9806WAT     H129660   0.508   1.509   4.570
 9806WAT     H229661   0.535   1.619   4.453
 9807WAT      O29662   0.251   7.485   6.344
 9807WAT     H129663   0.282   7.431   6.422
 9807WAT     H229664   0.161   7.454   6.314
 9808WAT      O29665   5.967   3.348   2.824
 9808WAT     H129666   5.876   3.356   2.863
 9808WAT     H229667   6.017   3.274   2.870
 9809WAT      O29668   2.854   4.224   1.709
 9809WAT     H129669   2.909   4.308   1.715
 9809WAT     H229670   2.908   4.153   1.663
 9810WAT      O29671   7.196   2.026   8.408
 9810WAT     H129672   7.165   1.937   8.375
 9810WAT     H229673   7.291   2.021   8.436
 9811WAT      O29674   6.603   3.927   7.859
 9811WAT     H129675   6.703   3.929   7.857
 9811WAT     H229676   6.569   3.877   7.780
 9812WAT      O29677   3.807   8.138   8.832
 9812WAT     H129678   3.712   8.109   8.817
 9812WAT     H229679   3.811   8.194   8.915
 9813WAT      O29680   1.090   1.397   4.066
 9813WAT     H129681   1.116   1.487   4.032
 9813WAT     H229682   1.055   1.342   3.990
 9814WAT      O29683   1.831   2.999   0.266
 9814WAT     H129684   1.891   2.942   0.322
 9814WAT     H229685   1.736   2.976   0.285
 9815WAT      O29686   9.164   5.543   5.085
 9815WAT     H129687   9.168   5.469   5.019
 9815WAT     H229688   9.245   5.542   5.143
 9816WAT      O29689   1.718   1.900   8.638
 9816WAT     H129690   1.687   1.979   8.586
 9816WAT     H229691   1.804   1.922   8.684
 9817WAT      O29692   5.119   1.372   3.088
 9817WAT     H129693   5.061   1.425   3.026
 9817WAT     H229694   5.134   1.281   3.049
 9818WAT      O29695   7.908   3.521   0.785
 9818WAT     H129696   7.838   3.585   0.754
 9818WAT     H229697   7.864   3.439   0.823
 9819WAT      O29698   7.402   4.348   8.459
 9819WAT     H129699   7.365   4.387   8.374
 9819WAT     H229700   7.327   4.331   8.523
 9820WAT      O29701   1.716   2.393   7.809
 9820WAT     H129702   1.658   2.325   7.765
 9820WAT     H229703   1.731   2.469   7.746
 9821WAT      O29704   6.519   5.620   2.443
 9821WAT     H129705   6.529   5.565   2.361
 9821WAT     H229706   6.548   5.567   2.523
 9822WAT      O29707   1.387   2.265   7.945
 9822WAT     H129708   1.440   2.344   7.975
 9822WAT     H229709   1.429   2.181   7.981
 9823WAT      O29710   8.043   0.126   0.681
 9823WAT     H129711   8.111   0.107   0.610
 9823WAT     H229712   7.979   0.049   0.687
 9824WAT      O29713   7.558   1.594   0.305
 9824WAT     H129714   7.560   1.532   0.227
 9824WAT     H229715   7.514   1.680   0.278
 9825WAT      O29716   2.554   0.797   0.886
 9825WAT     H129717   2.611   0.868   0.845
 9825WAT     H229718   2.497   0.755   0.816
 9826WAT      O29719   4.929   7.181   7.882
 9826WAT     H129720   5.005   7.201   7.820
 9826WAT     H229721   4.861   7.254   7.875
 9827WAT      O29722   5.382   9.546   1.573
 9827WAT     H129723   5.446   9.479   1.611
 9827WAT     H229724   5.295   9.500   1.551
 9828WAT      O29725   1.360   3.373   5.542
 9828WAT     H129726   1.431   3.443   5.549
 9828WAT     H229727   1.270   3.415   5.551
 9829WAT      O29728   5.919   4.550   1.851
 9829WAT     H129729   5.847   4.617   1.868
 9829WAT     H229730   5.889   4.460   1.881
 9830WAT      O29731   4.200   4.231   0.691
 9830WAT     H129732   4.157   4.190   0.610
 9830WAT     H229733   4.258   4.308   0.662
 9831WAT      O29734   1.939   2.848   0.464
 9831WAT     H129735   1.864   2.864   0.528
 9831WAT     H229736   2.010   2.793   0.510
 9832WAT      O29737   8.819   6.764   7.145
 9832WAT     H129738   8.916   6.756   7.123
 9832WAT     H229739   8.809   6.808   7.235
 9833WAT      O29740   7.365   6.361   3.673
 9833WAT     H129741   7.408   6.287   3.623
 9833WAT     H229742   7.434   6.409   3.728
 9834WAT      O29743   7.912   8.343   6.805
 9834WAT     H129744   7.950   8.410   6.740
 9834WAT     H229745   7.924   8.251   6.768
 9835WAT      O29746   9.840   9.778   9.355
 9835WAT     H129747   9.797   9.862   9.388
 9835WAT     H229748   9.808   9.758   9.263
 9836WAT      O29749   3.115   1.650   4.668
 9836WAT     H129750   3.048   1.651   4.594
 9836WAT     H229751   3.164   1.737   4.669
 9837WAT      O29752   8.419   5.789   0.326
 9837WAT     H129753   8.491   5.857   0.317
 9837WAT     H229754   8.438   5.731   0.405
 9838WAT      O29755   0.965   8.595   1.108
 9838WAT     H129756   0.995   8.566   1.018
 9838WAT     H229757   1.031   8.661   1.145
 9839WAT      O29758   4.800   7.405   2.695
 9839WAT     H129759   4.748   7.478   2.651
 9839WAT     H229760   4.896   7.412   2.667
 9840WAT      O29761   3.795   7.529   1.735
 9840WAT     H129762   3.855   7.594   1.690
 9840WAT     H229763   3.755   7.467   1.667
 9841WAT      O29764   3.914   7.934   7.019
 9841WAT     H129765   3.897   7.976   6.930
 9841WAT     H229766   3.975   7.856   7.007
 9842WAT      O29767   2.939   6.454   3.727
 9842WAT     H129768   2.935   6.364   3.771
 9842WAT     H229769   2.853   6.471   3.679
 9843WAT      O29770   3.433   4.783   1.045
 9843WAT     H129771   3.360   4.848   1.066
 9843WAT     H229772   3.395   4.691   1.037
 9844WAT      O29773   4.581   3.313   2.166
 9844WAT     H129774   4.633   3.373   2.106
 9844WAT     H229775   4.483   3.323   2.147
 9845WAT      O29776   2.837   6.817   2.170
 9845WAT     H129777   2.934   6.836   2.164
 9845WAT     H229778   2.814   6.789   2.263
 9846WAT      O29779   3.588   1.555   0.399
 9846WAT     H129780   3.653   1.578   0.327
 9846WAT     H229781   3.626   1.582   0.488
 9847WAT      O29782   0.381   5.965   3.741
 9847WAT     H129783   0.481   5.957   3.749
 9847WAT     H229784   0.339   5.876   3.755
 9848WAT      O29785   7.747   7.465   8.334
 9848WAT     H129786   7.774   7.541   8.392
 9848WAT     H229787   7.829   7.420   8.298
 9849WAT      O29788   3.356   4.871   6.459
 9849WAT     H129789   3.412   4.872   6.376
 9849WAT     H229790   3.259   4.865   6.434
 9850WAT      O29791   9.394   6.253   9.103
 9850WAT     H129792   9.360   6.317   9.034
 9850WAT     H229793   9.425   6.169   9.057
 9851WAT      O29794   4.239   6.277   6.110
 9851WAT     H129795   4.320   6.269   6.167
 9851WAT     H229796   4.162   6.311   6.165
 9852WAT      O29797   1.529   9.163   7.893
 9852WAT     H129798   1.563   9.151   7.986
 9852WAT     H229799   1.455   9.098   7.876
 9853WAT      O29800   0.266   1.413   8.670
 9853WAT     H129801   0.329   1.477   8.625
 9853WAT     H229802   0.234   1.346   8.603
 9854WAT      O29803   6.794   5.006   8.044
 9854WAT     H129804   6.867   5.069   8.016
 9854WAT     H229805   6.757   5.035   8.132
 9855WAT      O29806   3.749   9.680   8.992
 9855WAT     H129807   3.811   9.682   9.070
 9855WAT     H229808   3.663   9.637   9.019
 9856WAT      O29809   6.252   0.794   2.575
 9856WAT     H129810   6.197   0.710   2.575
 9856WAT     H229811   6.264   0.826   2.669
 9857WAT      O29812   4.448   1.288   0.090
 9857WAT     H129813   4.493   1.354   0.030
 9857WAT     H229814   4.432   1.203   0.041
 9858WAT      O29815   3.664   7.834   5.507
 9858WAT     H129816   3.612   7.869   5.586
 9858WAT     H229817   3.605   7.831   5.427
 9859WAT      O29818   8.387   5.206   8.245
 9859WAT     H129819   8.348   5.275   8.184
 9859WAT     H229820   8.487   5.207   8.238
 9860WAT      O29821   4.876   9.468   5.877
 9860WAT     H129822   4.891   9.379   5.835
 9860WAT     H229823   4.893   9.461   5.976
 9861WAT      O29824   2.201   4.336   5.146
 9861WAT     H129825   2.181   4.255   5.092
 9861WAT     H229826   2.224   4.412   5.085
 9862WAT      O29827   1.854   1.693   4.675
 9862WAT     H129828   1.838   1.759   4.602
 9862WAT     H229829   1.952   1.687   4.695
 9863WAT      O29830   8.489   6.507   2.989
 9863WAT     H129831   8.463   6.433   3.051
 9863WAT     H229832   8.486   6.594   3.039
 9864WAT      O29833   4.397   3.697   8.866
 9864WAT     H129834   4.373   3.600   8.856
 9864WAT     H229835   4.342   3.738   8.939
 9865WAT      O29836   4.434   1.669   7.656
 9865WAT     H129837   4.354   1.707   7.703
 9865WAT     H229838   4.490   1.743   7.618
 9866WAT      O29839   7.410   9.845   8.692
 9866WAT     H129840   7.426   9.807   8.601
 9866WAT     H229841   7.498   9.854   8.739
 9867WAT      O29842   1.225   5.173   8.358
 9867WAT     H129843   1.164   5.100   8.326
 9867WAT     H229844   1.247   5.232   8.281
 9868WAT      O29845   8.304   0.092   6.459
 9868WAT     H129846   8.331   0.160   6.528
 9868WAT     H229847   8.385   0.061   6.410
 9869WAT      O29848   5.758   1.742   6.319
 9869WAT     H129849   5.845   1.771   6.358
 9869WAT     H229850   5.774   1.700   6.230
 9870WAT      O29851   7.453   7.639   5.949
 9870WAT     H129852   7.545   7.678   5.938
 9870WAT     H229853   7.448   7.552   5.900
 9871WAT      O29854   5.277   3.948   7.143
 9871WAT     H129855   5.196   4.006   7.142
 9871WAT     H229856   5.280   3.893   7.059
 9872WAT      O29857   5.647   5.231   2.419
 9872WAT     H129858   5.731   5.189   2.455
 9872WAT     H229859   5.648   5.225   2.319
 9873WAT      O29860   5.770   2.470   4.487
 9873WAT     H129861   5.733   2.452   4.578
 9873WAT     H229862   5.807   2.385   4.448
 9874WAT      O29863   0.604   3.171   2.963
 9874WAT     H129864   0.667   3.093   2.967
 9874WAT     H229865   0.647   3.247   2.914
 9875WAT      O29866   1.115   1.880   4.379
 9875WAT     H129867   1.047   1.809   4.362
 9875WAT     H229868   1.180   1.848   4.448
 9876WAT      O29869   2.468   1.127   6.879
 9876WAT     H129870   2.414   1.158   6.801
 9876WAT     H229871   2.443   1.181   6.960
 9877WAT      O29872   2.112   8.669   2.231
 9877WAT     H129873   2.164   8.742   2.186
 9877WAT     H229874   2.174   8.595   2.256
 9878WAT      O29875   9.320   6.354   6.156
 9878WAT     H129876   9.376   6.386   6.079
 9878WAT     H229877   9.272   6.432   6.196
 9879WAT      O29878   7.837   2.712   9.371
 9879WAT     H129879   7.905   2.728   9.442
 9879WAT     H229880   7.825   2.795   9.317
 9880WAT      O29881   4.698   4.301   1.404
 9880WAT     H129882   4.681   4.314   1.502
 9880WAT     H229883   4.689   4.204   1.381
 9881WAT      O29884   9.477   6.028   5.777
 9881WAT     H129885   9.516   5.943   5.811
 9881WAT     H229886   9.377   6.025   5.785
 9882WAT      O29887   3.363   0.016   5.102
 9882WAT     H129888   3.355  -0.040   5.019
 9882WAT     H229889   3.427   0.091   5.085
 9883WAT      O29890   6.337   4.602   1.989
 9883WAT     H129891   6.305   4.629   1.898
 9883WAT     H229892   6.339   4.502   1.995
 9884WAT      O29893   0.548   5.857   0.887
 9884WAT     H129894   0.630   5.800   0.883
 9884WAT     H229895   0.574   5.953   0.884
 9885WAT      O29896   8.550   6.569   9.320
 9885WAT     H129897   8.632   6.620   9.293
 9885WAT     H229898   8.507   6.531   9.238
 9886WAT      O29899   7.446   7.237   2.841
 9886WAT     H129900   7.472   7.239   2.938
 9886WAT     H229901   7.392   7.155   2.823
 9887WAT      O29902   8.475   6.616   9.775
 9887WAT     H129903   8.385   6.572   9.782
 9887WAT     H229904   8.471   6.707   9.817
 9888WAT      O29905   6.568   0.138   5.121
 9888WAT     H129906   6.532   0.088   5.043
 9888WAT     H229907   6.506   0.129   5.199
 9889WAT      O29908   4.778   0.791   7.431
 9889WAT     H129909   4.726   0.829   7.354
 9889WAT     H229910   4.740   0.702   7.456
 9890WAT      O29911   6.463   0.750   4.554
 9890WAT     H129912   6.408   0.833   4.547
 9890WAT     H229913   6.416   0.675   4.508
 9891WAT      O29914   5.950   0.007   8.664
 9891WAT     H129915   6.010  -0.015   8.740
 9891WAT     H229916   5.913   0.099   8.675
 9892WAT      O29917   9.001   6.204   8.363
 9892WAT     H129918   9.049   6.285   8.396
 9892WAT     H229919   9.067   6.132   8.343
 9893WAT      O29920   3.970   4.397   0.809
 9893WAT     H129921   4.054   4.440   0.774
 9893WAT     H229922   3.986   4.363   0.901
 9894WAT      O29923   6.929   7.835   6.624
 9894WAT     H129924   6.924   7.854   6.722
 9894WAT     H229925   6.841   7.857   6.581
 9895WAT      O29926   4.435   0.654   7.338
 9895WAT     H129927   4.507   0.646   7.407
 9895WAT     H229928   4.406   0.562   7.310
 9896WAT      O29929   5.033   1.927   8.724
 9896WAT     H129930   5.005   1.926   8.628
 9896WAT     H229931   5.000   2.010   8.768
 9897WAT      O29932   6.937   2.444   9.063
 9897WAT     H129933   6.949   2.345   9.056
 9897WAT     H229934   7.005   2.490   9.006
 9898WAT      O29935   9.387   8.790   5.883
 9898WAT     H129936   9.451   8.729   5.929
 9898WAT     H229937   9.317   8.821   5.948
 9899WAT      O29938   1.951   9.056   9.403
 9899WAT     H129939   1.957   8.957   9.416
 9899WAT     H229940   1.870   9.091   9.449
 9900WAT      O29941   4.753   1.485   8.990
 9900WAT     H129942   4.717   1.532   9.070
 9900WAT     H229943   4.763   1.550   8.914
 9901WAT      O29944   9.785   0.454   2.110
 9901WAT     H129945   9.778   0.369   2.163
 9901WAT     H229946   9.717   0.454   2.037
 9902WAT      O29947   5.445   7.314   8.188
 9902WAT     H129948   5.347   7.323   8.204
 9902WAT     H229949   5.487   7.267   8.266
 9903WAT      O29950   9.278   6.081   0.148
 9903WAT     H129951   9.181   6.085   0.126
 9903WAT     H229952   9.292   6.098   0.245
 9904WAT      O29953   0.740   1.711   5.010
 9904WAT     H129954   0.711   1.716   4.915
 9904WAT     H229955   0.686   1.642   5.058
 9905WAT      O29956   4.825   3.738   7.429
 9905WAT     H129957   4.729   3.742   7.457
 9905WAT     H229958   4.839   3.798   7.351
 9906WAT      O29959   2.976   3.641   1.252
 9906WAT     H129960   3.005   3.736   1.259
 9906WAT     H229961   2.990   3.595   1.340
 9907WAT      O29962   9.025   6.088   6.018
 9907WAT     H129963   9.048   6.150   6.093
 9907WAT     H229964   9.023   5.994   6.051
 9908WAT      O29965   9.870   9.064   2.627
 9908WAT     H129966   9.909   9.077   2.718
 9908WAT     H229967   9.814   8.981   2.626
 9909WAT      O29968   2.294   2.891   6.298
 9909WAT     H129969   2.247   2.806   6.273
 9909WAT     H229970   2.366   2.910   6.231
 9910WAT      O29971   6.480   7.598   5.167
 9910WAT     H129972   6.493   7.519   5.227
 9910WAT     H229973   6.400   7.650   5.198
 9911WAT      O29974   4.435   5.084   8.326
 9911WAT     H129975   4.415   4.988   8.343
 9911WAT     H229976   4.355   5.140   8.348
 9912WAT      O29977   2.639   6.309   7.527
 9912WAT     H129978   2.564   6.365   7.563
 9912WAT     H229979   2.611   6.213   7.525
 9913WAT      O29980   9.011   4.743   0.714
 9913WAT     H129981   8.947   4.736   0.791
 9913WAT     H229982   9.099   4.703   0.740
 9914WAT      O29983   8.917   4.428   9.088
 9914WAT     H129984   8.994   4.453   9.030
 9914WAT     H229985   8.890   4.333   9.070
 9915WAT      O29986   8.841   5.139   7.292
 9915WAT     H129987   8.858   5.060   7.233
 9915WAT     H229988   8.816   5.107   7.383
 9916WAT      O29989   7.008   3.019   0.856
 9916WAT     H129990   6.973   3.052   0.769
 9916WAT     H229991   6.951   2.943   0.888
 9917WAT      O29992   4.542   1.367   3.204
 9917WAT     H129993   4.615   1.348   3.139
 9917WAT     H229994   4.502   1.457   3.184
 9918WAT      O29995   4.779   7.231   9.048
 9918WAT     H129996   4.757   7.153   8.990
 9918WAT     H229997   4.829   7.299   8.995
 9919WAT      O29998   3.888   4.096   4.928
 9919WAT     H129999   3.885   4.081   4.829
 9919WAT     H230000   3.823   4.034   4.972
 9920WAT      O30001   0.982   3.350   4.141
 9920WAT     H130002   1.011   3.282   4.073
 9920WAT     H230003   1.061   3.381   4.193
 9921WAT      O30004   0.046   6.653   9.704
 9921WAT     H130005   0.111   6.604   9.647
 9921WAT     H230006   0.063   6.631   9.800
 9922WAT      O30007   6.473   8.159   9.615
 9922WAT     H130008   6.401   8.097   9.586
 9922WAT     H230009   6.469   8.172   9.714
 9923WAT      O30010   8.274   0.539   7.147
 9923WAT     H130011   8.250   0.516   7.241
 9923WAT     H230012   8.309   0.458   7.100
 9924WAT      O30013   9.480   8.321   8.239
 9924WAT     H130014   9.481   8.416   8.209
 9924WAT     H230015   9.537   8.266   8.178
 9925WAT      O30016   4.505   7.386   4.741
 9925WAT     H130017   4.465   7.301   4.777
 9925WAT     H230018   4.539   7.369   4.649
 9926WAT      O30019   4.467   4.593   9.478
 9926WAT     H130020   4.551   4.646   9.468
 9926WAT     H230021   4.488   4.495   9.475
 9927WAT      O30022   1.641   9.504   2.061
 9927WAT     H130023   1.678   9.442   1.993
 9927WAT     H230024   1.655   9.598   2.032
 9928WAT      O30025   7.830   4.259   2.795
 9928WAT     H130026   7.887   4.238   2.874
 9928WAT     H230027   7.887   4.261   2.713
 9929WAT      O30028   4.440   2.962   9.274
 9929WAT     H130029   4.535   2.990   9.292
 9929WAT     H230030   4.400   3.023   9.205
 9930WAT      O30031   7.987   8.070   1.418
 9930WAT     H130032   8.041   8.003   1.367
 9930WAT     H230033   7.933   8.023   1.488
 9931WAT      O30034   6.997   6.116   6.078
 9931WAT     H130035   7.063   6.139   6.006
 9931WAT     H230036   7.046   6.082   6.158
 9932WAT      O30037   5.462   9.639   5.639
 9932WAT     H130038   5.427   9.726   5.675
 9932WAT     H230039   5.401   9.565   5.668
 9933WAT      O30040   9.343   8.576   7.835
 9933WAT     H130041   9.284   8.638   7.888
 9933WAT     H230042   9.294   8.490   7.818
 9934WAT      O30043   0.634   2.894   8.524
 9934WAT     H130044   0.547   2.850   8.545
 9934WAT     H230045   0.648   2.895   8.425
 9935WAT      O30046   7.034   8.895   7.028
 9935WAT     H130047   7.083   8.926   7.110
 9935WAT     H230048   7.039   8.795   7.022
 9936WAT      O30049   8.901   5.027   4.768
 9936WAT     H130050   8.928   5.023   4.864
 9936WAT     H230051   8.980   5.053   4.713
 9937WAT      O30052   1.739   3.442   3.137
 9937WAT     H130053   1.691   3.413   3.220
 9937WAT     H230054   1.804   3.515   3.160
 9938WAT      O30055   9.504   9.771   3.711
 9938WAT     H130056   9.571   9.843   3.728
 9938WAT     H230057   9.516   9.735   3.618
 9939WAT      O30058   0.688   3.766   9.512
 9939WAT     H130059   0.720   3.775   9.607
 9939WAT     H230060   0.764   3.742   9.453
 9940WAT      O30061   8.960   2.133   0.980
 9940WAT     H130062   8.903   2.056   1.006
 9940WAT     H230063   8.946   2.153   0.883
 9941WAT      O30064   7.306   8.849   3.770
 9941WAT     H130065   7.290   8.907   3.690
 9941WAT     H230066   7.362   8.899   3.836
 9942WAT      O30067   2.992   2.966   2.064
 9942WAT     H130068   2.947   2.877   2.053
 9942WAT     H230069   3.076   2.955   2.117
 9943WAT      O30070   0.638   7.668   9.739
 9943WAT     H130071   0.671   7.762   9.736
 9943WAT     H230072   0.626   7.639   9.834
 9944WAT      O30073   1.135   6.884   1.479
 9944WAT     H130074   1.078   6.865   1.399
 9944WAT     H230075   1.094   6.958   1.533
 9945WAT      O30076   0.428   4.443   7.833
 9945WAT     H130077   0.494   4.373   7.808
 9945WAT     H230078   0.457   4.486   7.919
 9946WAT      O30079   5.975   3.856   4.405
 9946WAT     H130080   5.890   3.806   4.426
 9946WAT     H230081   5.953   3.941   4.357
 9947WAT      O30082   3.233   4.364   1.781
 9947WAT     H130083   3.281   4.450   1.761
 9947WAT     H230084   3.135   4.377   1.765
 9948WAT      O30085   7.079   5.388   7.589
 9948WAT     H130086   7.043   5.386   7.682
 9948WAT     H230087   7.004   5.374   7.524
 9949WAT      O30088   1.142   2.163   6.250
 9949WAT     H130089   1.188   2.153   6.338
 9949WAT     H230090   1.191   2.230   6.194
 9950WAT      O30091   1.017   3.041   7.444
 9950WAT     H130092   0.942   3.085   7.395
 9950WAT     H230093   0.986   2.955   7.483
 9951WAT      O30094   7.674   4.796   2.825
 9951WAT     H130095   7.710   4.780   2.734
 9951WAT     H230096   7.705   4.724   2.887
 9952WAT      O30097   1.926   3.656   6.153
 9952WAT     H130098   1.848   3.719   6.156
 9952WAT     H230099   1.898   3.567   6.189
 9953WAT      O30100   2.680   0.150   3.283
 9953WAT     H130101   2.736   0.093   3.343
 9953WAT     H230102   2.603   0.096   3.248
 9954WAT      O30103   3.067   7.976   0.233
 9954WAT     H130104   3.127   7.901   0.207
 9954WAT     H230105   3.002   7.995   0.159
 9955WAT      O30106   2.890   8.574   6.158
 9955WAT     H130107   2.820   8.554   6.089
 9955WAT     H230108   2.857   8.543   6.247
 9956WAT      O30109   1.752   7.542   3.965
 9956WAT     H130110   1.844   7.553   3.929
 9956WAT     H230111   1.756   7.526   4.064
 9957WAT      O30112   1.238   3.907   8.796
 9957WAT     H130113   1.177   3.828   8.791
 9957WAT     H230114   1.276   3.926   8.705
 9958WAT      O30115   3.899   8.081   7.296
 9958WAT     H130116   3.997   8.075   7.317
 9958WAT     H230117   3.879   8.027   7.214
 9959WAT      O30118   0.059   7.599   2.365
 9959WAT     H130119   0.006   7.554   2.294
 9959WAT     H230120   0.114   7.672   2.325
 9960WAT      O30121   6.304   0.652   7.798
 9960WAT     H130122   6.359   0.585   7.847
 9960WAT     H230123   6.337   0.659   7.704
 9961WAT      O30124   8.298   0.510   2.479
 9961WAT     H130125   8.211   0.495   2.431
 9961WAT     H230126   8.370   0.528   2.413
 9962WAT      O30127   8.347   5.168   6.867
 9962WAT     H130128   8.321   5.118   6.784
 9962WAT     H230129   8.445   5.190   6.863
 9963WAT      O30130   6.107   1.395   8.575
 9963WAT     H130131   6.056   1.474   8.541
 9963WAT     H230132   6.073   1.312   8.530
 9964WAT      O30133   6.500   9.031   0.583
 9964WAT     H130134   6.527   8.973   0.506
 9964WAT     H230135   6.578   9.044   0.644
 9965WAT      O30136   2.830   6.443   1.907
 9965WAT     H130137   2.806   6.499   1.828
 9965WAT     H230138   2.871   6.358   1.876
 9966WAT      O30139   2.675   7.609   6.467
 9966WAT     H130140   2.647   7.601   6.371
 9966WAT     H230141   2.599   7.582   6.526
 9967WAT      O30142   8.096   8.007   7.546
 9967WAT     H130143   8.102   7.945   7.468
 9967WAT     H230144   8.053   8.093   7.517
 9968WAT      O30145   3.270   7.333   2.974
 9968WAT     H130146   3.210   7.369   2.903
 9968WAT     H230147   3.229   7.348   3.064
 9969WAT      O30148   7.551   0.650   8.679
 9969WAT     H130149   7.544   0.627   8.582
 9969WAT     H230150   7.475   0.608   8.729
 9970WAT      O30151   8.114   1.333   6.056
 9970WAT     H130152   8.109   1.233   6.056
 9970WAT     H230153   8.050   1.370   6.124
 9971WAT      O30154   3.694   1.285   7.047
 9971WAT     H130155   3.626   1.335   6.993
 9971WAT     H230156   3.727   1.343   7.121
 9972WAT      O30157   8.406   2.584   1.253
 9972WAT     H130158   8.336   2.518   1.281
 9972WAT     H230159   8.482   2.537   1.210
 9973WAT      O30160   5.770   6.134   1.111
 9973WAT     H130161   5.815   6.056   1.153
 9973WAT     H230162   5.710   6.178   1.177
 9974WAT      O30163   7.558   8.318   7.259
 9974WAT     H130164   7.497   8.302   7.181
 9974WAT     H230165   7.622   8.242   7.267
 9975WAT      O30166   7.044   9.832   8.792
 9975WAT     H130167   7.093   9.906   8.746
 9975WAT     H230168   6.958   9.815   8.744
 9976WAT      O30169   8.502   4.687   1.236
 9976WAT     H130170   8.578   4.624   1.217
 9976WAT     H230171   8.531   4.781   1.220
 9977WAT      O30172   2.608   5.198   5.989
 9977WAT     H130173   2.681   5.222   5.925
 9977WAT     H230174   2.615   5.101   6.012
 9978WAT      O30175   7.519   9.291   4.430
 9978WAT     H130176   7.548   9.221   4.365
 9978WAT     H230177   7.425   9.319   4.409
 9979WAT      O30178   6.989   9.108   7.580
 9979WAT     H130179   6.968   9.018   7.620
 9979WAT     H230180   6.937   9.119   7.495
 9980WAT      O30181   4.527   1.568   2.589
 9980WAT     H130182   4.543   1.480   2.545
 9980WAT     H230183   4.523   1.555   2.689
 9981WAT      O30184   2.536   1.474   5.151
 9981WAT     H130185   2.461   1.505   5.091
 9981WAT     H230186   2.529   1.520   5.239
 9982WAT      O30187   4.775   2.842   5.961
 9982WAT     H130188   4.806   2.858   6.055
 9982WAT     H230189   4.816   2.910   5.901
 9983WAT      O30190   0.763   1.380   5.321
 9983WAT     H130191   0.708   1.448   5.273
 9983WAT     H230192   0.705   1.323   5.378
 9984WAT      O30193   1.082   3.385   0.971
 9984WAT     H130194   1.049   3.478   0.990
 9984WAT     H230195   1.180   3.388   0.950
 9985WAT      O30196   9.846   8.663   8.409
 9985WAT     H130197   9.813   8.647   8.502
 9985WAT     H230198   9.797   8.602   8.345
 9986WAT      O30199   3.615   1.523   8.600
 9986WAT     H130200   3.546   1.513   8.672
 9986WAT     H230201   3.577   1.575   8.524
 9987WAT      O30202   9.152   9.029   6.935
 9987WAT     H130203   9.185   8.999   7.025
 9987WAT     H230204   9.149   8.951   6.873
 9988WAT      O30205   8.438   3.275   9.579
 9988WAT     H130206   8.384   3.356   9.558
 9988WAT     H230207   8.520   3.273   9.522
 9989WAT      O30208   3.272   3.821   5.213
 9989WAT     H130209   3.258   3.910   5.257
 9989WAT     H230210   3.191   3.798   5.159
 9990WAT      O30211   1.097   2.769   5.187
 9990WAT     H130212   1.109   2.737   5.281
 9990WAT     H230213   1.042   2.702   5.136
 9991WAT      O30214   9.439   6.996   3.028
 9991WAT     H130215   9.442   6.913   3.084
 9991WAT     H230216   9.518   6.998   2.967
 9992WAT      O30217   9.575   7.758   9.576
 9992WAT     H130218   9.490   7.804   9.603
 9992WAT     H230219   9.556   7.661   9.559
 9993WAT      O30220   3.984   6.900   6.998
 9993WAT     H130221   4.028   6.914   7.087
 9993WAT     H230222   3.975   6.803   6.980
 9994WAT      O30223   3.513   9.201   4.420
 9994WAT     H130224   3.415   9.186   4.432
 9994WAT     H230225   3.556   9.210   4.510
 9995WAT      O30226   8.856   5.314   8.281
 9995WAT     H130227   8.924   5.315   8.208
 9995WAT     H230228   8.833   5.408   8.306
 9996WAT      O30229   3.700   1.272   8.360
 9996WAT     H130230   3.660   1.362   8.375
 9996WAT     H230231   3.627   1.207   8.336
 9997WAT      O30232   5.104   6.314   5.633
 9997WAT     H130233   5.180   6.318   5.567
 9997WAT     H230234   5.139   6.335   5.724
 9998WAT      O30235   3.621   8.974   3.329
 9998WAT     H130236   3.558   8.975   3.407
 9998WAT     H230237   3.645   8.879   3.306
 9999WAT      O30238   6.672   6.315   0.124
 9999WAT     H130239   6.722   6.241   0.079
 9999WAT     H230240   6.728   6.398   0.124
10000WAT      O30241   0.422   3.299   5.228
10000WAT     H130242   0.458   3.300   5.135
10000WAT     H230243   0.371   3.214   5.242
10001WAT      O30244   2.295   3.750   0.075
10001WAT     H130245   2.241   3.676   0.115
10001WAT     H230246   2.356   3.713   0.005
10002WAT      O30247   3.637   6.563   5.349
10002WAT     H130248   3.649   6.615   5.434
10002WAT     H230249   3.709   6.494   5.342
10003WAT      O30250   7.953   9.386   2.562
10003WAT     H130251   7.930   9.288   2.556
10003WAT     H230252   7.929   9.420   2.652
10004WAT      O30253   1.727   1.759   8.052
10004WAT     H130254   1.750   1.778   7.957
10004WAT     H230255   1.641   1.708   8.057
10005WAT      O30256   9.805   4.136   6.794
10005WAT     H130257   9.891   4.085   6.792
10005WAT     H230258   9.737   4.087   6.849
10006WAT      O30259   9.456   3.773   6.765
10006WAT     H130260   9.488   3.773   6.859
10006WAT     H230261   9.385   3.704   6.752
10007WAT      O30262   8.051   7.920   7.797
10007WAT     H130263   8.134   7.882   7.836
10007WAT     H230264   8.072   7.968   7.712
10008WAT      O30265   3.732   1.227   5.864
10008WAT     H130266   3.727   1.144   5.920
10008WAT     H230267   3.640   1.263   5.850
10009WAT      O30268   0.212   9.426   9.410
10009WAT     H130269   0.148   9.381   9.471
10009WAT     H230270   0.305   9.394   9.430
10010WAT      O30271   2.397   6.790   5.506
10010WAT     H130272   2.411   6.691   5.501
10010WAT     H230273   2.334   6.818   5.433
10011WAT      O30274   2.653   3.645   4.200
10011WAT     H130275   2.653   3.744   4.183
10011WAT     H230276   2.716   3.600   4.137
10012WAT      O30277   4.417   6.907   9.501
10012WAT     H130278   4.366   6.952   9.427
10012WAT     H230279   4.379   6.816   9.517
10013WAT      O30280   5.446   0.709   2.461
10013WAT     H130281   5.528   0.673   2.417
10013WAT     H230282   5.385   0.748   2.392
10014WAT      O30283   9.436   6.093   6.876
10014WAT     H130284   9.461   6.189   6.887
10014WAT     H230285   9.511   6.036   6.910
10015WAT      O30286   0.079   2.454   5.217
10015WAT     H130287   0.106   2.386   5.285
10015WAT     H230288  -0.002   2.421   5.168
10016WAT      O30289   4.979   3.665   3.653
10016WAT     H130290   4.993   3.729   3.577
10016WAT     H230291   4.882   3.663   3.677
10017WAT      O30292   0.282   9.112   6.433
10017WAT     H130293   0.307   9.016   6.439
10017WAT     H230294   0.282   9.153   6.525
10018WAT      O30295   1.841   7.256   0.173
10018WAT     H130296   1.930   7.234   0.213
10018WAT     H230297   1.816   7.350   0.195
10019WAT      O30298   5.455   4.722   7.678
10019WAT     H130299   5.533   4.743   7.619
10019WAT     H230300   5.483   4.658   7.749
10020WAT      O30301   6.601   6.567   1.287
10020WAT     H130302   6.535   6.602   1.354
10020WAT     H230303   6.691   6.604   1.306
10021WAT      O30304   3.043   9.446   4.855
10021WAT     H130305   3.116   9.379   4.867
10021WAT     H230306   2.960   9.401   4.822
10022WAT      O30307   0.254   0.327   5.493
10022WAT     H130308   0.300   0.322   5.581
10022WAT     H230309   0.310   0.282   5.423
10023WAT      O30310   9.494   6.805   4.808
10023WAT     H130311   9.424   6.868   4.775
10023WAT     H230312   9.513   6.824   4.905
10024WAT      O30313   0.020   2.743   9.783
10024WAT     H130314  -0.057   2.679   9.781
10024WAT     H230315   0.065   2.745   9.694
10025WAT      O30316   5.841   5.172   1.800
10025WAT     H130317   5.775   5.109   1.760
10025WAT     H230318   5.926   5.123   1.820
10026WAT      O30319   4.750   3.181   7.702
10026WAT     H130320   4.778   3.192   7.797
10026WAT     H230321   4.805   3.242   7.644
10027WAT      O30322   3.972   2.943   5.394
10027WAT     H130323   3.929   2.854   5.407
10027WAT     H230324   4.043   2.936   5.323
10028WAT      O30325   1.122   9.428   1.842
10028WAT     H130326   1.153   9.474   1.925
10028WAT     H230327   1.043   9.370   1.865
10029WAT      O30328   0.422   2.950   9.107
10029WAT     H130329   0.475   2.954   9.023
10029WAT     H230330   0.352   3.021   9.105
10030WAT      O30331   1.300   1.067   2.795
10030WAT     H130332   1.287   1.104   2.887
10030WAT     H230333   1.367   1.122   2.745
10031WAT      O30334   0.700   5.465   7.632
10031WAT     H130335   0.750   5.518   7.563
10031WAT     H230336   0.741   5.480   7.722
10032WAT      O30337   2.736   3.537   0.573
10032WAT     H130338   2.830   3.520   0.543
10032WAT     H230339   2.719   3.636   0.575
10033WAT      O30340   4.501   8.098   3.485
10033WAT     H130341   4.454   8.020   3.444
10033WAT     H230342   4.599   8.093   3.464
10034WAT      O30343   8.162   1.718   3.019
10034WAT     H130344   8.109   1.641   2.983
10034WAT     H230345   8.126   1.804   2.984
10035WAT      O30346   0.224   4.776   8.424
10035WAT     H130347   0.318   4.809   8.415
10035WAT     H230348   0.197   4.779   8.520
10036WAT      O30349   0.343   9.411   3.366
10036WAT     H130350   0.419   9.416   3.431
10036WAT     H230351   0.341   9.495   3.312
10037WAT      O30352   8.498   9.730   3.877
10037WAT     H130353   8.573   9.731   3.944
10037WAT     H230354   8.450   9.643   3.882
10038WAT      O30355   1.991   9.248   4.694
10038WAT     H130356   1.978   9.188   4.772
10038WAT     H230357   1.903   9.288   4.667
10039WAT      O30358   0.439   8.904   1.342
10039WAT     H130359   0.474   8.816   1.374
10039WAT     H230360   0.413   8.895   1.245
10040WAT      O30361   3.945   7.491   9.626
10040WAT     H130362   3.872   7.549   9.591
10040WAT     H230363   3.977   7.430   9.554
10041WAT      O30364   3.863   5.662   6.396
10041WAT     H130365   3.876   5.654   6.297
10041WAT     H230366   3.912   5.743   6.429
10042WAT      O30367   1.045   9.266   7.432
10042WAT     H130368   1.091   9.189   7.387
10042WAT     H230369   1.064   9.349   7.380
10043WAT      O30370   1.109   2.486   8.042
10043WAT     H130371   1.154   2.538   7.969
10043WAT     H230372   1.089   2.394   8.009
10044WAT      O30373   2.100   2.543   0.348
10044WAT     H130374   2.186   2.494   0.335
10044WAT     H230375   2.115   2.621   0.408
10045WAT      O30376   7.716   9.638   0.536
10045WAT     H130377   7.673   9.559   0.580
10045WAT     H230378   7.771   9.608   0.458
10046WAT      O30379   2.121   4.471   6.872
10046WAT     H130380   2.041   4.468   6.811
10046WAT     H230381   2.097   4.431   6.960
10047WAT      O30382   7.046   0.257   5.449
10047WAT     H130383   7.023   0.248   5.545
10047WAT     H230384   6.995   0.190   5.396
10048WAT      O30385   9.301   4.813   0.164
10048WAT     H130386   9.326   4.851   0.075
10048WAT     H230387   9.264   4.886   0.222
10049WAT      O30388   5.451   7.387   4.268
10049WAT     H130389   5.486   7.296   4.248
10049WAT     H230390   5.374   7.408   4.208
10050WAT      O30391   5.740   3.689   1.287
10050WAT     H130392   5.755   3.774   1.237
10050WAT     H230393   5.643   3.665   1.282
10051WAT      O30394   6.434   4.658   5.530
10051WAT     H130395   6.407   4.685   5.623
10051WAT     H230396   6.431   4.737   5.470
10052WAT      O30397   9.083   1.892   5.616
10052WAT     H130398   9.094   1.973   5.674
10052WAT     H230399   9.095   1.810   5.670
10053WAT      O30400   4.405   2.362   4.079
10053WAT     H130401   4.369   2.426   4.012
10053WAT     H230402   4.501   2.343   4.060
10054WAT      O30403   1.630   6.130   2.569
10054WAT     H130404   1.605   6.070   2.493
10054WAT     H230405   1.551   6.142   2.630
10055WAT      O30406   5.459   4.452   5.693
10055WAT     H130407   5.404   4.408   5.764
10055WAT     H230408   5.456   4.551   5.705
10056WAT      O30409   3.169   7.749   3.053
10056WAT     H130410   3.170   7.681   2.981
10056WAT     H230411   3.103   7.821   3.032
10057WAT      O30412   5.443   0.925   2.721
10057WAT     H130413   5.506   0.849   2.728
10057WAT     H230414   5.358   0.903   2.768
10058WAT      O30415   6.890   5.874   8.744
10058WAT     H130416   6.890   5.913   8.651
10058WAT     H230417   6.796   5.857   8.773
10059WAT      O30418   4.323   2.516   0.666
10059WAT     H130419   4.227   2.495   0.688
10059WAT     H230420   4.334   2.518   0.566
10060WAT      O30421   4.310   8.452   9.861
10060WAT     H130422   4.320   8.359   9.897
10060WAT     H230423   4.362   8.515   9.919
10061WAT      O30424   6.527   6.437   8.122
10061WAT     H130425   6.531   6.343   8.155
10061WAT     H230426   6.453   6.486   8.168
10062WAT      O30427   3.894   2.499   0.157
10062WAT     H130428   3.895   2.420   0.096
10062WAT     H230429   3.985   2.509   0.199
10063WAT      O30430   7.943   8.804   6.206
10063WAT     H130431   7.854   8.844   6.184
10063WAT     H230432   8.012   8.841   6.145
10064WAT      O30433   7.809   0.608   8.692
10064WAT     H130434   7.712   0.629   8.677
10064WAT     H230435   7.865   0.676   8.646
10065WAT      O30436   0.843   6.434   3.148
10065WAT     H130437   0.752   6.474   3.133
10065WAT     H230438   0.889   6.425   3.060
10066WAT      O30439   8.529   4.573   5.208
10066WAT     H130440   8.569   4.551   5.119
10066WAT     H230441   8.439   4.614   5.196
10067WAT      O30442   6.634   8.770   5.356
10067WAT     H130443   6.615   8.774   5.454
10067WAT     H230444   6.558   8.812   5.306
10068WAT      O30445   7.130   3.751   1.588
10068WAT     H130446   7.102   3.673   1.532
10068WAT     H230447   7.085   3.834   1.555
10069WAT      O30448   8.641   4.815   0.724
10069WAT     H130449   8.629   4.760   0.641
10069WAT     H230450   8.706   4.770   0.785
10070WAT      O30451   9.870   1.436   9.259
10070WAT     H130452   9.952   1.383   9.283
10070WAT     H230453   9.812   1.380   9.200
10071WAT      O30454   7.734   1.729   2.052
10071WAT     H130455   7.738   1.823   2.086
10071WAT     H230456   7.814   1.678   2.085
10072WAT      O30457   4.757   9.656   6.811
10072WAT     H130458   4.779   9.687   6.719
10072WAT     H230459   4.795   9.719   6.878
10073WAT      O30460   0.350   6.304   3.863
10073WAT     H130461   0.447   6.326   3.875
10073WAT     H230462   0.319   6.246   3.938
10074WAT      O30463   2.569   3.308   1.478
10074WAT     H130464   2.668   3.319   1.483
10074WAT     H230465   2.533   3.289   1.570
10075WAT      O30466   8.861   5.780   4.778
10075WAT     H130467   8.846   5.776   4.876
10075WAT     H230468   8.888   5.872   4.751
10076WAT      O30469   4.747   7.099   8.152
10076WAT     H130470   4.752   7.191   8.192
10076WAT     H230471   4.786   7.101   8.060
10077WAT      O30472   9.849   7.312   7.519
10077WAT     H130473   9.819   7.366   7.598
10077WAT     H230474   9.780   7.242   7.500
10078WAT      O30475   1.156   7.064   8.951
10078WAT     H130476   1.140   6.975   8.993
10078WAT     H230477   1.254   7.078   8.937
10079WAT      O30478   4.089   1.927   0.751
10079WAT     H130479   4.078   1.829   0.769
10079WAT     H230480   4.022   1.957   0.683
10080WAT      O30481   2.563   0.605   6.626
10080WAT     H130482   2.640   0.644   6.677
10080WAT     H230483   2.598   0.543   6.556
10081WAT      O30484   1.202   0.395   4.657
10081WAT     H130485   1.179   0.320   4.719
10081WAT     H230486   1.118   0.442   4.629
10082WAT      O30487   4.767   9.228   7.429
10082WAT     H130488   4.676   9.271   7.424
10082WAT     H230489   4.764   9.153   7.494
10083WAT      O30490   1.281   6.339   1.596
10083WAT     H130491   1.183   6.351   1.578
10083WAT     H230492   1.330   6.420   1.564
10084WAT      O30493   3.320   5.531   9.145
10084WAT     H130494   3.322   5.484   9.057
10084WAT     H230495   3.405   5.513   9.195
10085WAT      O30496   3.156   1.266   1.684
10085WAT     H130497   3.174   1.311   1.772
10085WAT     H230498   3.221   1.298   1.616
10086WAT      O30499   5.921   6.190   3.712
10086WAT     H130500   5.943   6.097   3.741
10086WAT     H230501   6.001   6.232   3.671
10087WAT      O30502   5.050   7.497   6.125
10087WAT     H130503   5.033   7.596   6.117
10087WAT     H230504   5.144   7.482   6.155
10088WAT      O30505   3.549   4.939   5.703
10088WAT     H130506   3.612   4.876   5.658
10088WAT     H230507   3.515   4.897   5.787
10089WAT      O30508   4.669   2.447   3.467
10089WAT     H130509   4.725   2.412   3.542
10089WAT     H230510   4.686   2.394   3.384
10090WAT      O30511   6.152   4.838   7.455
10090WAT     H130512   6.167   4.818   7.358
10090WAT     H230513   6.229   4.804   7.508
10091WAT      O30514   1.156   3.005   0.187
10091WAT     H130515   1.179   3.046   0.275
10091WAT     H230516   1.106   2.919   0.203
10092WAT      O30517   4.382   8.243   8.967
10092WAT     H130518   4.335   8.155   8.965
10092WAT     H230519   4.439   8.253   8.884
10093WAT      O30520   9.742   1.159   2.311
10093WAT     H130521   9.746   1.122   2.218
10093WAT     H230522   9.656   1.131   2.354
10094WAT      O30523   5.292   5.870   0.383
10094WAT     H130524   5.282   5.873   0.482
10094WAT     H230525   5.389   5.878   0.359
10095WAT      O30526   8.651   6.972   9.663
10095WAT     H130527   8.670   7.069   9.646
10095WAT     H230528   8.595   6.936   9.588
10096WAT      O30529   2.966   5.424   3.486
10096WAT     H130530   3.062   5.451   3.480
10096WAT     H230531   2.955   5.352   3.554
10097WAT      O30532   8.710   2.624   8.452
10097WAT     H130533   8.613   2.640   8.471
10097WAT     H230534   8.748   2.703   8.405
10098WAT      O30535   1.950   3.506   0.611
10098WAT     H130536   1.943   3.601   0.644
10098WAT     H230537   2.046   3.482   0.601
10099WAT      O30538   1.448   1.433   7.608
10099WAT     H130539   1.426   1.371   7.532
10099WAT     H230540   1.441   1.528   7.577
10100WAT      O30541   1.504   7.530   0.104
10100WAT     H130542   1.497   7.430   0.105
10100WAT     H230543   1.600   7.557   0.110
10101WAT      O30544   3.184   3.922   2.131
10101WAT     H130545   3.217   3.879   2.215
10101WAT     H230546   3.260   3.969   2.085
10102WAT      O30547   0.398   8.249   3.033
10102WAT     H130548   0.410   8.317   2.961
10102WAT     H230549   0.436   8.162   3.003
10103WAT      O30550   8.380   9.825   3.098
10103WAT     H130551   8.328   9.908   3.076
10103WAT     H230552   8.440   9.802   3.020
10104WAT      O30553   8.330   7.726   9.663
10104WAT     H130554   8.251   7.668   9.639
10104WAT     H230555   8.298   7.817   9.687
10105WAT      O30556   7.685   9.110   3.534
10105WAT     H130557   7.709   9.037   3.598
10105WAT     H230558   7.679   9.197   3.583
10106WAT      O30559   3.040   9.119   5.508
10106WAT     H130560   3.037   9.020   5.499
10106WAT     H230561   2.958   9.159   5.465
10107WAT      O30562   8.383   2.849   9.497
10107WAT     H130563   8.385   2.900   9.583
10107WAT     H230564   8.461   2.787   9.492
10108WAT      O30565   0.605   6.240   2.918
10108WAT     H130566   0.561   6.185   2.847
10108WAT     H230567   0.681   6.188   2.957
10109WAT      O30568   3.885   7.674   2.409
10109WAT     H130569   3.829   7.690   2.329
10109WAT     H230570   3.868   7.745   2.477
10110WAT      O30571   4.981   4.648   0.892
10110WAT     H130572   4.900   4.687   0.935
10110WAT     H230573   4.954   4.589   0.816
10111WAT      O30574   8.666   6.273   7.074
10111WAT     H130575   8.744   6.220   7.107
10111WAT     H230576   8.645   6.345   7.140
10112WAT      O30577   1.920   1.209   9.833
10112WAT     H130578   1.826   1.186   9.810
10112WAT     H230579   1.921   1.288   9.894
10113WAT      O30580   3.455   2.313   6.729
10113WAT     H130581   3.448   2.352   6.821
10113WAT     H230582   3.505   2.375   6.670
10114WAT      O30583   0.408   3.038   5.324
10114WAT     H130584   0.503   3.027   5.353
10114WAT     H230585   0.352   3.063   5.402
10115WAT      O30586   4.391   7.183   4.881
10115WAT     H130587   4.302   7.227   4.873
10115WAT     H230588   4.413   7.171   4.978
10116WAT      O30589   1.650   0.308   8.330
10116WAT     H130590   1.688   0.376   8.267
10116WAT     H230591   1.552   0.299   8.315
10117WAT      O30592   8.559   3.084   5.388
10117WAT     H130593   8.507   3.100   5.471
10117WAT     H230594   8.540   2.992   5.354
10118WAT      O30595   1.002   7.359   3.700
10118WAT     H130596   1.074   7.414   3.743
10118WAT     H230597   0.998   7.269   3.742
10119WAT      O30598   7.720   8.119   1.712
10119WAT     H130599   7.672   8.200   1.680
10119WAT     H230600   7.726   8.051   1.638
10120WAT      O30601   4.856   3.588   6.836
10120WAT     H130602   4.800   3.511   6.807
10120WAT     H230603   4.890   3.637   6.755
10121WAT      O30604   3.968   5.435   5.402
10121WAT     H130605   3.953   5.340   5.373
10121WAT     H230606   3.882   5.486   5.394
10122WAT      O30607   7.038   7.450   8.544
10122WAT     H130608   7.045   7.425   8.641
10122WAT     H230609   6.944   7.478   8.524
10123WAT      O30610   6.551   7.678   3.171
10123WAT     H130611   6.649   7.658   3.174
10123WAT     H230612   6.535   7.769   3.210
10124WAT      O30613   1.606   4.320   7.738
10124WAT     H130614   1.630   4.416   7.746
10124WAT     H230615   1.683   4.263   7.769
10125WAT      O30616   3.449   0.183   0.251
10125WAT     H130617   3.366   0.240   0.252
10125WAT     H230618   3.424   0.088   0.265
10126WAT      O30619   6.072   4.900   4.265
10126WAT     H130620   6.115   4.826   4.213
10126WAT     H230621   6.024   4.862   4.345
10127WAT      O30622   9.343   0.158   9.337
10127WAT     H130623   9.281   0.236   9.325
10127WAT     H230624   9.385   0.134   9.249
10128WAT      O30625   7.421   7.298   4.401
10128WAT     H130626   7.357   7.222   4.411
10128WAT     H230627   7.441   7.337   4.491
10129WAT      O30628   0.114   1.430   2.563
10129WAT     H130629   0.129   1.355   2.499
10129WAT     H230630   0.199   1.448   2.614
10130WAT      O30631   7.972   6.893   9.074
10130WAT     H130632   7.935   6.812   9.120
10130WAT     H230633   8.032   6.864   8.999
10131WAT      O30634   9.590   5.656   0.846
10131WAT     H130635   9.618   5.720   0.775
10131WAT     H230636   9.502   5.685   0.884
10132WAT      O30637   7.559   9.704   4.439
10132WAT     H130638   7.575   9.669   4.347
10132WAT     H230639   7.469   9.675   4.471
10133WAT      O30640   0.350   8.739   0.012
10133WAT     H130641   0.403   8.810  -0.034
10133WAT     H230642   0.392   8.718   0.100
10134WAT      O30643   1.173   2.458   2.651
10134WAT     H130644   1.253   2.404   2.624
10134WAT     H230645   1.093   2.399   2.654
10135WAT      O30646   3.354   8.181   8.838
10135WAT     H130647   3.293   8.182   8.916
10135WAT     H230648   3.362   8.272   8.799
10136WAT      O30649   4.380   8.588   1.074
10136WAT     H130650   4.415   8.674   1.112
10136WAT     H230651   4.356   8.602   0.978
10137WAT      O30652   1.462   7.532   8.566
10137WAT     H130653   1.429   7.577   8.483
10137WAT     H230654   1.476   7.601   8.638
10138WAT      O30655   9.359   1.676   4.668
10138WAT     H130656   9.280   1.636   4.620
10138WAT     H230657   9.427   1.605   4.684
10139WAT      O30658   1.139   9.484   1.032
10139WAT     H130659   1.107   9.576   1.059
10139WAT     H230660   1.112   9.418   1.102
10140WAT      O30661   4.059   6.818   4.512
10140WAT     H130662   3.995   6.790   4.441
10140WAT     H230663   4.120   6.889   4.477
10141WAT      O30664   6.372   1.904   4.334
10141WAT     H130665   6.351   1.819   4.286
10141WAT     H230666   6.325   1.980   4.290
10142WAT      O30667   2.044   5.200   7.146
10142WAT     H130668   1.988   5.173   7.068
10142WAT     H230669   2.083   5.118   7.189
10143WAT      O30670   9.504   3.745   7.033
10143WAT     H130671   9.441   3.732   7.110
10143WAT     H230672   9.598   3.750   7.067
10144WAT      O30673   1.314   2.795   0.056
10144WAT     H130674   1.412   2.810   0.049
10144WAT     H230675   1.271   2.875   0.097
10145WAT      O30676   0.896   7.557   0.430
10145WAT     H130677   0.841   7.476   0.408
10145WAT     H230678   0.897   7.618   0.352
10146WAT      O30679   0.435   5.875   4.095
10146WAT     H130680   0.533   5.892   4.087
10146WAT     H230681   0.392   5.947   4.150
10147WAT      O30682   9.173   4.485   8.003
10147WAT     H130683   9.184   4.399   8.053
10147WAT     H230684   9.166   4.561   8.068
10148WAT      O30685   6.891   7.639   0.173
10148WAT     H130686   6.967   7.702   0.188
10148WAT     H230687   6.859   7.647   0.078
10149WAT      O30688   2.884   0.896   3.294
10149WAT     H130689   2.982   0.901   3.274
10149WAT     H230690   2.849   0.807   3.265
10150WAT      O30691   3.923   2.077   7.507
10150WAT     H130692   3.855   2.008   7.531
10150WAT     H230693   3.973   2.104   7.589
10151WAT      O30694   3.494   1.300   0.804
10151WAT     H130695   3.591   1.291   0.782
10151WAT     H230696   3.483   1.303   0.904
10152WAT      O30697   0.713   1.757   2.560
10152WAT     H130698   0.770   1.775   2.480
10152WAT     H230699   0.617   1.767   2.535
10153WAT      O30700   5.961   0.594   2.721
10153WAT     H130701   6.049   0.552   2.700
10153WAT     H230702   5.959   0.621   2.817
10154WAT      O30703   8.424   4.021   8.368
10154WAT     H130704   8.332   4.009   8.406
10154WAT     H230705   8.421   4.008   8.269
10155WAT      O30706   9.406   9.234   3.710
10155WAT     H130707   9.320   9.219   3.662
10155WAT     H230708   9.482   9.231   3.645
10156WAT      O30709   5.675   5.227   2.151
10156WAT     H130710   5.738   5.274   2.089
10156WAT     H230711   5.605   5.179   2.099
10157WAT      O30712   2.730   1.251   6.793
10157WAT     H130713   2.691   1.162   6.771
10157WAT     H230714   2.688   1.321   6.736
10158WAT      O30715   6.286   8.560   2.440
10158WAT     H130716   6.204   8.613   2.461
10158WAT     H230717   6.325   8.525   2.525
10159WAT      O30718   8.734   8.591   1.203
10159WAT     H130719   8.792   8.511   1.218
10159WAT     H230720   8.715   8.635   1.291
10160WAT      O30721   6.148   4.741   7.831
10160WAT     H130722   6.089   4.732   7.750
10160WAT     H230723   6.095   4.719   7.913
10161WAT      O30724   1.054   0.749   7.270
10161WAT     H130725   1.143   0.715   7.238
10161WAT     H230726   0.996   0.671   7.293
10162WAT      O30727   6.078   6.294   3.218
10162WAT     H130728   6.103   6.372   3.162
10162WAT     H230729   6.158   6.262   3.269
10163WAT      O30730   1.026   7.945   9.802
10163WAT     H130731   1.065   8.027   9.842
10163WAT     H230732   1.092   7.903   9.739
10164WAT      O30733   9.734   6.458   2.432
10164WAT     H130734   9.768   6.422   2.345
10164WAT     H230735   9.742   6.387   2.502
10165WAT      O30736   9.127   6.638   1.810
10165WAT     H130737   9.097   6.703   1.881
10165WAT     H230738   9.199   6.680   1.755
10166WAT      O30739   1.598   5.921   0.257
10166WAT     H130740   1.647   5.834   0.266
10166WAT     H230741   1.505   5.902   0.223
10167WAT      O30742   0.091   2.943   6.514
10167WAT     H130743   0.044   2.930   6.428
10167WAT     H230744   0.137   2.859   6.541
10168WAT      O30745   0.853   4.552   0.886
10168WAT     H130746   0.862   4.455   0.911
10168WAT     H230747   0.813   4.560   0.795
10169WAT      O30748   4.050   0.795   9.460
10169WAT     H130749   4.001   0.882   9.458
10169WAT     H230750   4.046   0.753   9.369
10170WAT      O30751   3.193   2.036   7.773
10170WAT     H130752   3.252   2.097   7.721
10170WAT     H230753   3.120   2.001   7.714
10171WAT      O30754   0.444   3.804   8.107
10171WAT     H130755   0.471   3.762   8.193
10171WAT     H230756   0.518   3.862   8.073
10172WAT      O30757   0.275   1.982   9.637
10172WAT     H130758   0.287   1.975   9.538
10172WAT     H230759   0.192   2.034   9.657
10173WAT      O30760   7.558   1.672   8.199
10173WAT     H130761   7.623   1.749   8.199
10173WAT     H230762   7.575   1.614   8.279
10174WAT      O30763   8.903   5.227   9.664
10174WAT     H130764   8.911   5.327   9.664
10174WAT     H230765   8.817   5.201   9.620
10175WAT      O30766   9.382   2.576   3.641
10175WAT     H130767   9.447   2.568   3.716
10175WAT     H230768   9.317   2.500   3.644
10176WAT      O30769   0.731   3.360   9.876
10176WAT     H130770   0.826   3.381   9.853
10176WAT     H230771   0.671   3.434   9.845
10177WAT      O30772   1.504   4.051   6.146
10177WAT     H130773   1.422   4.074   6.197
10177WAT     H230774   1.480   3.989   6.071
10178WAT      O30775   8.993   1.547   3.155
10178WAT     H130776   9.036   1.579   3.240
10178WAT     H230777   9.006   1.615   3.083
10179WAT      O30778   1.869   1.183   7.225
10179WAT     H130779   1.796   1.212   7.287
10179WAT     H230780   1.869   1.242   7.144
10180WAT      O30781   0.147   9.172   8.068
10180WAT     H130782   0.078   9.236   8.035
10180WAT     H230783   0.222   9.166   8.001
10181WAT      O30784   4.217   0.426   0.313
10181WAT     H130785   4.315   0.448   0.312
10181WAT     H230786   4.182   0.427   0.220
10182WAT      O30787   5.818   9.223   0.419
10182WAT     H130788   5.911   9.194   0.440
10182WAT     H230789   5.793   9.302   0.475
10183WAT      O30790   2.276   3.424   3.202
10183WAT     H130791   2.310   3.516   3.182
10183WAT     H230792   2.223   3.426   3.287
10184WAT      O30793   5.798   7.646   4.528
10184WAT     H130794   5.829   7.552   4.512
10184WAT     H230795   5.716   7.663   4.474
10185WAT      O30796   6.996   7.970   3.623
10185WAT     H130797   7.032   8.060   3.648
10185WAT     H230798   6.937   7.979   3.543
10186WAT      O30799   8.759   4.323   7.020
10186WAT     H130800   8.855   4.298   7.017
10186WAT     H230801   8.709   4.277   6.947
10187WAT      O30802   5.405   1.469   1.671
10187WAT     H130803   5.368   1.485   1.579
10187WAT     H230804   5.343   1.508   1.739
10188WAT      O30805   5.587   3.197   0.802
10188WAT     H130806   5.649   3.276   0.809
10188WAT     H230807   5.538   3.202   0.715
10189WAT      O30808   1.455   7.758   7.604
10189WAT     H130809   1.478   7.836   7.546
10189WAT     H230810   1.469   7.782   7.700
10190WAT      O30811   1.869   8.257   1.545
10190WAT     H130812   1.941   8.261   1.614
10190WAT     H230813   1.903   8.210   1.463
10191WAT      O30814   4.052   5.245   6.210
10191WAT     H130815   4.145   5.209   6.212
10191WAT     H230816   4.026   5.267   6.115
10192WAT      O30817   5.122   1.660   1.100
10192WAT     H130818   5.098   1.574   1.144
10192WAT     H230819   5.213   1.690   1.131
10193WAT      O30820   8.375   2.435   4.070
10193WAT     H130821   8.429   2.404   4.149
10193WAT     H230822   8.302   2.495   4.102
10194WAT      O30823   9.110   6.024   9.461
10194WAT     H130824   9.117   6.115   9.422
10194WAT     H230825   9.016   5.990   9.452
10195WAT      O30826   1.173   6.962   4.182
10195WAT     H130827   1.243   6.986   4.249
10195WAT     H230828   1.208   6.890   4.121
10196WAT      O30829   1.973   2.726   8.458
10196WAT     H130830   1.875   2.707   8.465
10196WAT     H230831   1.993   2.762   8.367
10197WAT      O30832   9.843   6.697   8.012
10197WAT     H130833   9.867   6.622   8.073
10197WAT     H230834   9.744   6.697   7.997
10198WAT      O30835   0.718   4.688   1.306
10198WAT     H130836   0.684   4.782   1.304
10198WAT     H230837   0.647   4.626   1.274
10199WAT      O30838   4.666   5.491   7.079
10199WAT     H130839   4.676   5.569   7.017
10199WAT     H230840   4.654   5.408   7.025
10200WAT      O30841   0.418   4.841   0.487
10200WAT     H130842   0.423   4.785   0.404
10200WAT     H230843   0.355   4.799   0.552
10201WAT      O30844   7.490   3.500   8.214
10201WAT     H130845   7.437   3.441   8.153
10201WAT     H230846   7.588   3.481   8.202
10202WAT      O30847   2.616   7.557   7.290
10202WAT     H130848   2.699   7.584   7.339
10202WAT     H230849   2.642   7.501   7.211
10203WAT      O30850   4.035   3.984   6.937
10203WAT     H130851   4.117   3.929   6.920
10203WAT     H230852   3.957   3.924   6.952
10204WAT      O30853   6.594   4.498   9.278
10204WAT     H130854   6.556   4.538   9.361
10204WAT     H230855   6.532   4.428   9.243
10205WAT      O30856   1.397   7.105   3.490
10205WAT     H130857   1.437   7.197   3.486
10205WAT     H230858   1.342   7.096   3.572
10206WAT      O30859   7.038   5.677   6.043
10206WAT     H130860   6.990   5.599   6.084
10206WAT     H230861   6.972   5.742   6.007
10207WAT      O30862   4.118   4.574   6.811
10207WAT     H130863   4.162   4.664   6.814
10207WAT     H230864   4.120   4.539   6.717
10208WAT      O30865   1.330   5.974   4.260
10208WAT     H130866   1.388   5.926   4.195
10208WAT     H230867   1.288   6.053   4.215
10209WAT      O30868   0.672   7.570   2.379
10209WAT     H130869   0.711   7.507   2.445
10209WAT     H230870   0.589   7.612   2.417
10210WAT      O30871   9.114   7.411   9.066
10210WAT     H130872   9.067   7.388   9.150
10210WAT     H230873   9.055   7.391   8.988
10211WAT      O30874   5.260   8.852   3.723
10211WAT     H130875   5.266   8.946   3.690
10211WAT     H230876   5.352   8.813   3.732
10212WAT      O30877   2.297   3.135   4.769
10212WAT     H130878   2.382   3.082   4.767
10212WAT     H230879   2.262   3.147   4.676
10213WAT      O30880   5.794   2.203   2.151
10213WAT     H130881   5.706   2.220   2.106
10213WAT     H230882   5.789   2.234   2.246
10214WAT      O30883   1.236   8.676   7.615
10214WAT     H130884   1.229   8.698   7.712
10214WAT     H230885   1.194   8.749   7.561
10215WAT      O30886   5.864   9.357   3.323
10215WAT     H130887   5.810   9.335   3.242
10215WAT     H230888   5.908   9.273   3.356
10216WAT      O30889   1.706   2.542   2.579
10216WAT     H130890   1.627   2.479   2.579
10216WAT     H230891   1.775   2.508   2.516
10217WAT      O30892   7.642   1.531   6.397
10217WAT     H130893   7.616   1.624   6.373
10217WAT     H230894   7.699   1.531   6.479
10218WAT      O30895   0.828   0.167   9.039
10218WAT     H130896   0.898   0.232   9.010
10218WAT     H230897   0.765   0.150   8.964
10219WAT      O30898   9.001   2.336   7.098
10219WAT     H130899   8.925   2.343   7.032
10219WAT     H230900   9.086   2.318   7.048
10220WAT      O30901   3.361   2.621   3.401
10220WAT     H130902   3.323   2.668   3.480
10220WAT     H230903   3.410   2.686   3.343
10221WAT      O30904   1.521   1.580   9.722
10221WAT     H130905   1.467   1.547   9.800
10221WAT     H230906   1.467   1.643   9.667
10222WAT      O30907   4.213   7.099   6.411
10222WAT     H130908   4.280   7.058   6.349
10222WAT     H230909   4.202   7.196   6.390
10223WAT      O30910   0.100   3.247   6.769
10223WAT     H130911   0.200   3.251   6.773
10223WAT     H230912   0.067   3.184   6.839
10224WAT      O30913   8.253   8.565   6.743
10224WAT     H130914   8.264   8.486   6.803
10224WAT     H230915   8.221   8.534   6.653
10225WAT      O30916   5.959   9.034   2.582
10225WAT     H130917   6.025   9.104   2.611
10225WAT     H230918   5.925   9.057   2.491
10226WAT      O30919   6.824   2.313   5.925
10226WAT     H130920   6.891   2.315   5.850
10226WAT     H230921   6.856   2.372   5.999
10227WAT      O30922   8.817   3.464   5.247
10227WAT     H130923   8.782   3.502   5.162
10227WAT     H230924   8.864   3.536   5.299
10228WAT      O30925   7.067   1.220   7.933
10228WAT     H130926   7.161   1.250   7.947
10228WAT     H230927   7.013   1.295   7.896
10229WAT      O30928   3.031   9.627   2.576
10229WAT     H130929   3.126   9.656   2.592
10229WAT     H230930   3.031   9.536   2.534
10230WAT      O30931   7.774   4.397   5.826
10230WAT     H130932   7.716   4.327   5.783
10230WAT     H230933   7.834   4.438   5.756
10231WAT      O30934   8.330   8.294   2.853
10231WAT     H130935   8.389   8.264   2.779
10231WAT     H230936   8.359   8.384   2.885
10232WAT      O30937   1.094   3.935   5.230
10232WAT     H130938   1.161   3.920   5.158
10232WAT     H230939   1.021   3.995   5.197
10233WAT      O30940   6.309   9.520   7.898
10233WAT     H130941   6.346   9.468   7.821
10233WAT     H230942   6.375   9.589   7.926
10234WAT      O30943   0.981   2.432   7.133
10234WAT     H130944   1.018   2.367   7.066
10234WAT     H230945   0.924   2.499   7.085
10235WAT      O30946   0.562   8.005   7.840
10235WAT     H130947   0.504   7.963   7.770
10235WAT     H230948   0.643   7.948   7.853
10236WAT      O30949   5.186   6.349   5.031
10236WAT     H130950   5.093   6.317   5.049
10236WAT     H230951   5.212   6.415   5.101
10237WAT      O30952   3.565   3.589   7.315
10237WAT     H130953   3.488   3.614   7.374
10237WAT     H230954   3.613   3.511   7.355
10238WAT      O30955   0.678   8.970   8.264
10238WAT     H130956   0.590   9.012   8.242
10238WAT     H230957   0.729   9.030   8.327
10239WAT      O30958   4.579   4.067   4.185
10239WAT     H130959   4.635   4.148   4.205
10239WAT     H230960   4.563   4.017   4.270
10240WAT      O30961   0.211   3.812   5.962
10240WAT     H130962   0.272   3.829   6.039
10240WAT     H230963   0.187   3.715   5.959
10241WAT      O30964   1.692   8.765   8.354
10241WAT     H130965   1.622   8.711   8.307
10241WAT     H230966   1.696   8.737   8.450
10242WAT      O30967   3.462   7.339   1.675
10242WAT     H130968   3.367   7.345   1.643
10242WAT     H230969   3.524   7.374   1.605
10243WAT      O30970   0.061   8.787   6.440
10243WAT     H130971   0.122   8.781   6.518
10243WAT     H230972   0.114   8.792   6.356
10244WAT      O30973   5.803   7.215   7.409
10244WAT     H130974   5.739   7.183   7.339
10244WAT     H230975   5.891   7.235   7.365
10245WAT      O30976   8.086   0.890   9.234
10245WAT     H130977   7.992   0.914   9.208
10245WAT     H230978   8.091   0.791   9.252
10246WAT      O30979   8.082   7.237   2.952
10246WAT     H130980   8.166   7.277   2.989
10246WAT     H230981   8.007   7.251   3.017
10247WAT      O30982   2.975   3.380   2.055
10247WAT     H130983   2.922   3.462   2.030
10247WAT     H230984   2.915   3.316   2.103
10248WAT      O30985   6.304   4.320   2.033
10248WAT     H130986   6.285   4.308   2.130
10248WAT     H230987   6.349   4.239   1.997
10249WAT      O30988   4.697   2.733   2.556
10249WAT     H130989   4.630   2.807   2.556
10249WAT     H230990   4.685   2.677   2.474
10250WAT      O30991   3.030   1.328   5.077
10250WAT     H130992   3.024   1.414   5.028
10250WAT     H230993   2.947   1.275   5.060
10251WAT      O30994   9.013   1.261   3.129
10251WAT     H130995   9.004   1.247   3.228
10251WAT     H230996   9.001   1.358   3.108
10252WAT      O30997   1.350   4.342   6.191
10252WAT     H130998   1.284   4.345   6.116
10252WAT     H230999   1.338   4.423   6.249
10253WAT      O31000   7.444   6.616   8.524
10253WAT     H131001   7.409   6.682   8.590
10253WAT     H231002   7.470   6.531   8.571
10254WAT      O31003   0.078   4.731   4.400
10254WAT     H131004   0.124   4.710   4.314
10254WAT     H231005  -0.021   4.732   4.386
10255WAT      O31006   0.956   6.637   7.689
10255WAT     H131007   0.989   6.686   7.608
10255WAT     H231008   0.890   6.567   7.661
10256WAT      O31009   7.673   0.717   5.692
10256WAT     H131010   7.655   0.767   5.777
10256WAT     H231011   7.649   0.774   5.614
10257WAT      O31012   3.558   5.419   4.884
10257WAT     H131013   3.469   5.395   4.845
10257WAT     H231014   3.575   5.517   4.870
10258WAT      O31015   8.423   9.008   0.218
10258WAT     H131016   8.464   9.099   0.216
10258WAT     H231017   8.374   8.991   0.133
10259WAT      O31018   7.102   1.083   8.180
10259WAT     H131019   7.021   1.094   8.237
10259WAT     H231020   7.089   1.130   8.093
10260WAT      O31021   7.124   8.117   1.494
10260WAT     H131022   7.148   8.201   1.543
10260WAT     H231023   7.109   8.043   1.559
10261WAT      O31024   2.239   6.305   6.241
10261WAT     H131025   2.266   6.357   6.160
10261WAT     H231026   2.315   6.249   6.272
10262WAT      O31027   7.118   0.383   4.239
10262WAT     H131028   7.072   0.436   4.309
10262WAT     H231029   7.050   0.333   4.185
10263WAT      O31030   9.694   1.314   7.803
10263WAT     H131031   9.750   1.374   7.746
10263WAT     H231032   9.598   1.341   7.797
10264WAT      O31033   1.825   8.315   0.496
10264WAT     H131034   1.733   8.278   0.479
10264WAT     H231035   1.893   8.242   0.486
10265WAT      O31036   0.416   6.806   6.460
10265WAT     H131037   0.444   6.817   6.364
10265WAT     H231038   0.328   6.850   6.474
10266WAT      O31039   1.787   5.538   7.897
10266WAT     H131040   1.849   5.487   7.957
10266WAT     H231041   1.722   5.590   7.952
10267WAT      O31042   3.765   5.368   5.136
10267WAT     H131043   3.725   5.418   5.058
10267WAT     H231044   3.843   5.314   5.104
10268WAT      O31045   0.366   1.520   9.153
10268WAT     H131046   0.443   1.513   9.089
10268WAT     H231047   0.281   1.527   9.102
10269WAT      O31048   5.102   4.277   5.745
10269WAT     H131049   5.102   4.178   5.737
10269WAT     H231050   5.180   4.306   5.801
10270WAT      O31051   6.468   8.503   1.705
10270WAT     H131052   6.515   8.585   1.738
10270WAT     H231053   6.420   8.524   1.620
10271WAT      O31054   1.798   9.479   7.258
10271WAT     H131055   1.766   9.545   7.326
10271WAT     H231056   1.843   9.403   7.304
10272WAT      O31057   1.411   5.109   4.710
10272WAT     H131058   1.379   5.154   4.793
10272WAT     H231059   1.492   5.157   4.675
10273WAT      O31060   5.676   0.903   9.080
10273WAT     H131061   5.699   0.874   8.987
10273WAT     H231062   5.607   0.975   9.076
10274WAT      O31063   9.815   8.537   8.662
10274WAT     H131064   9.759   8.539   8.745
10274WAT     H231065   9.911   8.553   8.686
10275WAT      O31066   2.392   0.240   5.944
10275WAT     H131067   2.459   0.314   5.947
10275WAT     H231068   2.410   0.176   6.019
10276WAT      O31069   4.243   9.778   2.211
10276WAT     H131070   4.153   9.780   2.254
10276WAT     H231071   4.242   9.719   2.130
10277WAT      O31072   7.627   9.013   0.473
10277WAT     H131073   7.627   8.957   0.391
10277WAT     H231074   7.698   9.084   0.466
10278WAT      O31075   0.345   5.888   6.022
10278WAT     H131076   0.404   5.840   5.956
10278WAT     H231077   0.263   5.921   5.976
10279WAT      O31078   7.565   7.284   5.109
10279WAT     H131079   7.599   7.377   5.096
10279WAT     H231080   7.511   7.279   5.192
10280WAT      O31081   1.676   3.122   4.263
10280WAT     H131082   1.737   3.096   4.337
10280WAT     H231083   1.725   3.181   4.198
10281WAT      O31084   9.697   2.856   4.625
10281WAT     H131085   9.605   2.874   4.592
10281WAT     H231086   9.747   2.942   4.633
10282WAT      O31087   9.532   5.665   9.585
10282WAT     H131088   9.515   5.732   9.658
10282WAT     H231089   9.622   5.623   9.600
10283WAT      O31090   3.288   1.454   8.298
10283WAT     H131091   3.242   1.531   8.255
10283WAT     H231092   3.385   1.456   8.276
10284WAT      O31093   7.439   9.586   6.663
10284WAT     H131094   7.419   9.524   6.587
10284WAT     H231095   7.492   9.664   6.629
10285WAT      O31096   4.790   3.380   3.493
10285WAT     H131097   4.715   3.438   3.461
10285WAT     H231098   4.867   3.437   3.522
10286WAT      O31099   9.085   6.459   8.432
10286WAT     H131100   9.002   6.483   8.481
10286WAT     H231101   9.165   6.493   8.483
10287WAT      O31102   1.732   2.288   3.201
10287WAT     H131103   1.686   2.355   3.143
10287WAT     H231104   1.770   2.334   3.281
10288WAT      O31105   2.322   0.752   1.590
10288WAT     H131106   2.406   0.806   1.585
10288WAT     H231107   2.335   0.666   1.540
10289WAT      O31108   6.024   9.538   9.487
10289WAT     H131109   6.112   9.569   9.521
10289WAT     H231110   6.004   9.582   9.399
10290WAT      O31111   5.289   0.369   0.996
10290WAT     H131112   5.315   0.307   0.923
10290WAT     H231113   5.316   0.462   0.972
10291WAT      O31114   2.273   2.476   2.725
10291WAT     H131115   2.366   2.441   2.733
10291WAT     H231116   2.275   2.576   2.724
10292WAT      O31117   1.568   4.366   2.311
10292WAT     H131118   1.567   4.298   2.239
10292WAT     H231119   1.474   4.393   2.333
10293WAT      O31120   0.908   0.367   9.734
10293WAT     H131121   0.850   0.379   9.653
10293WAT     H231122   1.004   0.378   9.708
10294WAT      O31123   9.321   9.747   5.973
10294WAT     H131124   9.391   9.762   6.043
10294WAT     H231125   9.322   9.652   5.944
10295WAT      O31126   6.534   3.266   9.716
10295WAT     H131127   6.565   3.231   9.804
10295WAT     H231128   6.511   3.363   9.726
10296WAT      O31129   9.117   8.798   4.317
10296WAT     H131130   9.061   8.762   4.243
10296WAT     H231131   9.151   8.889   4.293
10297WAT      O31132   8.693   3.903   6.208
10297WAT     H131133   8.695   4.003   6.204
10297WAT     H231134   8.633   3.873   6.282
10298WAT      O31135   3.390   5.522   1.476
10298WAT     H131136   3.453   5.599   1.460
10298WAT     H231137   3.407   5.483   1.566
10299WAT      O31138   2.569   7.557   8.401
10299WAT     H131139   2.504   7.606   8.342
10299WAT     H231140   2.661   7.592   8.384
10300WAT      O31141   3.376   0.409   5.271
10300WAT     H131142   3.428   0.380   5.351
10300WAT     H231143   3.320   0.489   5.293
10301WAT      O31144   3.015   7.396   6.667
10301WAT     H131145   2.969   7.381   6.579
10301WAT     H231146   3.112   7.373   6.659
10302WAT      O31147   8.096   6.807   2.952
10302WAT     H131148   8.044   6.785   2.870
10302WAT     H231149   8.034   6.840   3.023
10303WAT      O31150   6.777   1.812   4.523
10303WAT     H131151   6.729   1.868   4.591
10303WAT     H231152   6.716   1.739   4.492
10304WAT      O31153   8.809   3.568   5.645
10304WAT     H131154   8.903   3.600   5.643
10304WAT     H231155   8.808   3.468   5.653
10305WAT      O31156   2.842   2.582   6.370
10305WAT     H131157   2.893   2.652   6.420
10305WAT     H231158   2.894   2.496   6.371
10306WAT      O31159   4.766   3.093   2.126
10306WAT     H131160   4.789   3.056   2.036
10306WAT     H231161   4.675   3.133   2.124
10307WAT      O31162   5.185   5.677   8.615
10307WAT     H131163   5.271   5.717   8.585
10307WAT     H231164   5.134   5.744   8.670
10308WAT      O31165   1.093   1.575   6.603
10308WAT     H131166   0.998   1.573   6.634
10308WAT     H231167   1.150   1.527   6.670
10309WAT      O31168   9.128   3.605   9.813
10309WAT     H131169   9.162   3.511   9.808
10309WAT     H231170   9.147   3.642   9.904
10310WAT      O31171   7.980   7.776   3.753
10310WAT     H131172   8.074   7.750   3.775
10310WAT     H231173   7.919   7.699   3.773
10311WAT      O31174   6.619   4.356   4.211
10311WAT     H131175   6.641   4.444   4.253
10311WAT     H231176   6.560   4.372   4.132
10312WAT      O31177   1.758   9.373   5.303
10312WAT     H131178   1.810   9.457   5.289
10312WAT     H231179   1.667   9.383   5.264
10313WAT      O31180   1.173   1.356   5.490
10313WAT     H131181   1.093   1.410   5.464
10313WAT     H231182   1.218   1.320   5.408
10314WAT      O31183   1.524   5.233   7.611
10314WAT     H131184   1.553   5.148   7.655
10314WAT     H231185   1.601   5.296   7.606
10315WAT      O31186   6.830   0.213   5.114
10315WAT     H131187   6.867   0.156   5.188
10315WAT     H231188   6.734   0.191   5.099
10316WAT      O31189   9.595   5.222   1.182
10316WAT     H131190   9.575   5.252   1.275
10316WAT     H231191   9.510   5.198   1.136
10317WAT      O31192   7.453   9.401   3.859
10317WAT     H131193   7.491   9.408   3.952
10317WAT     H231194   7.402   9.316   3.850
10318WAT      O31195   6.351   1.087   3.164
10318WAT     H131196   6.327   1.141   3.083
10318WAT     H231197   6.403   1.144   3.228
10319WAT      O31198   0.766   9.227   4.012
10319WAT     H131199   0.788   9.325   4.012
10319WAT     H231200   0.761   9.195   3.917
10320WAT      O31201   1.639   3.682   6.674
10320WAT     H131202   1.655   3.590   6.636
10320WAT     H231203   1.698   3.695   6.754
10321WAT      O31204   1.621   0.596   7.354
10321WAT     H131205   1.628   0.665   7.282
10321WAT     H231206   1.577   0.636   7.434
10322WAT      O31207   2.453   0.065   2.212
10322WAT     H131208   2.545   0.071   2.251
10322WAT     H231209   2.396   0.004   2.267
10323WAT      O31210   2.394   8.745   6.737
10323WAT     H131211   2.354   8.714   6.651
10323WAT     H231212   2.322   8.760   6.804
10324WAT      O31213   4.327   4.889   8.082
10324WAT     H131214   4.245   4.861   8.033
10324WAT     H231215   4.310   4.885   8.181
10325WAT      O31216   6.846   6.668   9.686
10325WAT     H131217   6.909   6.633   9.617
10325WAT     H231218   6.899   6.699   9.765
10326WAT      O31219   7.160   8.321   1.684
10326WAT     H131220   7.195   8.238   1.727
10326WAT     H231221   7.086   8.359   1.740
10327WAT      O31222   4.398   9.388   8.196
10327WAT     H131223   4.377   9.313   8.259
10327WAT     H231224   4.486   9.429   8.221
10328WAT      O31225   0.369   6.078   9.583
10328WAT     H131226   0.382   6.148   9.513
10328WAT     H231227   0.324   6.118   9.663
10329WAT      O31228   5.615   1.996   4.524
10329WAT     H131229   5.609   2.054   4.605
10329WAT     H231230   5.534   1.937   4.520
10330WAT      O31231   6.744   0.165   7.131
10330WAT     H131232   6.786   0.143   7.043
10330WAT     H231233   6.671   0.099   7.150
10331WAT      O31234   2.575   1.330   2.673
10331WAT     H131235   2.641   1.405   2.672
10331WAT     H231236   2.498   1.352   2.613
10332WAT      O31237   1.496   5.458   3.104
10332WAT     H131238   1.475   5.407   3.187
10332WAT     H231239   1.440   5.541   3.101
10333WAT      O31240   1.164   5.286   3.777
10333WAT     H131241   1.208   5.201   3.747
10333WAT     H231242   1.074   5.265   3.816
10334WAT      O31243   1.976   6.399   3.322
10334WAT     H131244   1.929   6.480   3.286
10334WAT     H231245   2.025   6.353   3.248
10335WAT      O31246   8.702   5.040   3.896
10335WAT     H131247   8.684   5.043   3.994
10335WAT     H231248   8.797   5.017   3.880
10336WAT      O31249   4.285   6.746   2.621
10336WAT     H131250   4.274   6.837   2.660
10336WAT     H231251   4.269   6.750   2.523
10337WAT      O31252   5.480   8.254   9.163
10337WAT     H131253   5.562   8.311   9.152
10337WAT     H231254   5.501   8.177   9.224
10338WAT      O31255   7.042   8.729   2.131
10338WAT     H131256   6.969   8.664   2.110
10338WAT     H231257   7.043   8.802   2.063
10339WAT      O31258   2.147   8.888   2.634
10339WAT     H131259   2.124   8.925   2.544
10339WAT     H231260   2.187   8.961   2.690
10340WAT      O31261   9.137   6.676   6.693
10340WAT     H131262   9.046   6.676   6.651
10340WAT     H231263   9.174   6.769   6.693
10341WAT      O31264   5.210   0.062   7.541
10341WAT     H131265   5.282   0.067   7.610
10341WAT     H231266   5.148   0.140   7.551
10342WAT      O31267   3.926   2.077   9.586
10342WAT     H131268   3.989   2.139   9.632
10342WAT     H231269   3.919   1.992   9.638
10343WAT      O31270   4.451   4.403   0.118
10343WAT     H131271   4.503   4.472   0.167
10343WAT     H231272   4.374   4.373   0.173
10344WAT      O31273   9.386   1.103   1.018
10344WAT     H131274   9.375   1.161   0.937
10344WAT     H231275   9.464   1.042   1.005
10345WAT      O31276   6.180   5.180   2.066
10345WAT     H131277   6.107   5.113   2.056
10345WAT     H231278   6.262   5.148   2.019
10346WAT      O31279   5.093   9.728   5.043
10346WAT     H131280   5.024   9.779   4.991
10346WAT     H231281   5.061   9.634   5.058
10347WAT      O31282   6.999   6.572   0.278
10347WAT     H131283   7.040   6.486   0.309
10347WAT     H231284   6.988   6.633   0.356
10348WAT      O31285   2.560   6.130   5.475
10348WAT     H131286   2.462   6.143   5.456
10348WAT     H231287   2.612   6.200   5.426
10349WAT      O31288   9.077   1.198   6.367
10349WAT     H131289   8.994   1.146   6.346
10349WAT     H231290   9.138   1.198   6.288
10350WAT      O31291   2.474   3.501   0.572
10350WAT     H131292   2.574   3.510   0.579
10350WAT     H231293   2.436   3.584   0.530
10351WAT      O31294   7.052   2.878   7.327
10351WAT     H131295   7.132   2.830   7.292
10351WAT     H231296   6.983   2.811   7.355
10352WAT      O31297   7.337   3.880   9.599
10352WAT     H131298   7.350   3.938   9.519
10352WAT     H231299   7.390   3.796   9.589
10353WAT      O31300   8.270   9.113   8.874
10353WAT     H131301   8.319   9.034   8.838
10353WAT     H231302   8.295   9.195   8.822
10354WAT      O31303   3.590   7.884   0.283
10354WAT     H131304   3.607   7.798   0.235
10354WAT     H231305   3.640   7.885   0.370
10355WAT      O31306   1.422   4.023   3.768
10355WAT     H131307   1.508   4.019   3.819
10355WAT     H231308   1.405   4.118   3.739
10356WAT      O31309   2.321   3.041   2.758
10356WAT     H131310   2.228   3.071   2.778
10356WAT     H231311   2.367   3.111   2.703
10357WAT      O31312   1.698   3.825   9.887
10357WAT     H131313   1.661   3.912   9.918
10357WAT     H231314   1.675   3.754   9.954
10358WAT      O31315   4.798   4.193   5.995
10358WAT     H131316   4.895   4.192   6.021
10358WAT     H231317   4.745   4.145   6.065
10359WAT      O31318   8.632   5.908   0.982
10359WAT     H131319   8.721   5.949   1.003
10359WAT     H231320   8.632   5.812   1.011
10360WAT      O31321   1.485   1.844   2.135
10360WAT     H131322   1.528   1.814   2.049
10360WAT     H231323   1.412   1.909   2.114
10361WAT      O31324   1.194   0.963   0.183
10361WAT     H131325   1.115   0.901   0.179
10361WAT     H231326   1.203   1.000   0.276
10362WAT      O31327   0.886   8.393   4.145
10362WAT     H131328   0.797   8.348   4.144
10362WAT     H231329   0.951   8.337   4.196
10363WAT      O31330   2.614   3.631   8.344
10363WAT     H131331   2.608   3.729   8.365
10363WAT     H231332   2.701   3.611   8.299
10364WAT      O31333   2.362   5.139   3.313
10364WAT     H131334   2.371   5.225   3.365
10364WAT     H231335   2.305   5.155   3.233
10365WAT      O31336   0.005   5.771   2.738
10365WAT     H131337  -0.030   5.804   2.651
10365WAT     H231338   0.101   5.744   2.727
10366WAT      O31339   0.428   2.480   8.457
10366WAT     H131340   0.488   2.401   8.452
10366WAT     H231341   0.374   2.487   8.374
10367WAT      O31342   4.768   7.047   2.120
10367WAT     H131343   4.683   6.995   2.126
10367WAT     H231344   4.749   7.137   2.080
10368WAT      O31345   1.417   9.671   2.634
10368WAT     H131346   1.406   9.629   2.544
10368WAT     H231347   1.337   9.652   2.690
10369WAT      O31348   3.762   9.126   2.607
10369WAT     H131349   3.699   9.188   2.559
10369WAT     H231350   3.856   9.159   2.594
10370WAT      O31351   9.390   0.589   8.993
10370WAT     H131352   9.308   0.561   9.043
10370WAT     H231353   9.379   0.683   8.961
10371WAT      O31354   4.530   3.832   8.276
10371WAT     H131355   4.437   3.795   8.271
10371WAT     H231356   4.587   3.787   8.206
10372WAT      O31357   9.130   3.317   0.731
10372WAT     H131358   9.155   3.413   0.740
10372WAT     H231359   9.121   3.276   0.822
10373WAT      O31360   9.869   5.431   1.466
10373WAT     H131361   9.952   5.485   1.461
10373WAT     H231362   9.836   5.428   1.560
10374WAT      O31363   8.555   0.419   1.703
10374WAT     H131364   8.577   0.495   1.643
10374WAT     H231365   8.574   0.445   1.798
10375WAT      O31366   0.644   9.741   7.492
10375WAT     H131367   0.585   9.661   7.477
10375WAT     H231368   0.598   9.805   7.554
10376WAT      O31369   7.237   7.633   6.125
10376WAT     H131370   7.313   7.646   6.061
10376WAT     H231371   7.272   7.639   6.219
10377WAT      O31372   0.956   9.589   0.169
10377WAT     H131373   0.891   9.613   0.097
10377WAT     H231374   0.909   9.539   0.241
10378WAT      O31375   7.558   6.419   6.997
10378WAT     H131376   7.591   6.504   7.040
10378WAT     H231377   7.627   6.348   7.008
10379WAT      O31378   3.286   6.868   7.342
10379WAT     H131379   3.236   6.786   7.313
10379WAT     H231380   3.285   6.936   7.269
10380WAT      O31381   4.337   6.274   4.053
10380WAT     H131382   4.335   6.248   3.957
10380WAT     H231383   4.364   6.370   4.061
10381WAT      O31384   6.483   0.287   3.707
10381WAT     H131385   6.438   0.347   3.773
10381WAT     H231386   6.449   0.194   3.718
10382WAT      O31387   5.466   9.017   2.154
10382WAT     H131388   5.376   8.975   2.152
10382WAT     H231389   5.480   9.063   2.242
10383WAT      O31390   8.063   5.044   7.228
10383WAT     H131391   8.058   5.084   7.136
10383WAT     H231392   8.011   4.958   7.229
10384WAT      O31393   4.432   9.815   9.759
10384WAT     H131394   4.467   9.867   9.682
10384WAT     H231395   4.413   9.876   9.836
10385WAT      O31396   8.966   3.215   3.044
10385WAT     H131397   8.978   3.162   3.128
10385WAT     H231398   9.022   3.298   3.048
10386WAT      O31399   6.202   0.408   4.182
10386WAT     H131400   6.163   0.332   4.129
10386WAT     H231401   6.128   0.458   4.227
10387WAT      O31402   6.477   9.583   3.955
10387WAT     H131403   6.501   9.535   3.871
10387WAT     H231404   6.383   9.559   3.981
10388WAT      O31405   0.899   3.032   4.725
10388WAT     H131406   0.809   2.989   4.735
10388WAT     H231407   0.923   3.035   4.628
10389WAT      O31408   8.533   2.696   1.462
10389WAT     H131409   8.632   2.688   1.470
10389WAT     H231410   8.501   2.642   1.384
10390WAT      O31411   3.868   9.248   1.228
10390WAT     H131412   3.936   9.203   1.286
10390WAT     H231413   3.902   9.251   1.133
10391WAT      O31414   7.962   4.571   9.432
10391WAT     H131415   7.933   4.603   9.342
10391WAT     H231416   7.887   4.521   9.475
10392WAT      O31417   5.621   9.527   9.500
10392WAT     H131418   5.665   9.438   9.489
10392WAT     H231419   5.535   9.515   9.550
10393WAT      O31420   3.316   4.077   7.332
10393WAT     H131421   3.360   4.060   7.244
10393WAT     H231422   3.233   4.021   7.339
10394WAT      O31423   9.348   0.305   6.893
10394WAT     H131424   9.399   0.389   6.916
10394WAT     H231425   9.284   0.284   6.967
10395WAT      O31426   5.278   8.154   2.902
10395WAT     H131427   5.349   8.096   2.861
10395WAT     H231428   5.236   8.210   2.831
10396WAT      O31429   6.463   9.363   2.043
10396WAT     H131430   6.516   9.297   1.990
10396WAT     H231431   6.384   9.393   1.989
10397WAT      O31432   8.087   5.812   0.539
10397WAT     H131433   8.145   5.859   0.472
10397WAT     H231434   7.997   5.856   0.541
10398WAT      O31435   2.962   0.248   0.362
10398WAT     H131436   2.948   0.266   0.264
10398WAT     H231437   2.953   0.151   0.380
10399WAT      O31438   7.524   6.204   1.422
10399WAT     H131439   7.429   6.184   1.399
10399WAT     H231440   7.564   6.125   1.469
10400WAT      O31441   3.419   4.054   0.675
10400WAT     H131442   3.514   4.038   0.703
10400WAT     H231443   3.414   4.059   0.576
10401WAT      O31444   1.173   6.446   7.214
10401WAT     H131445   1.189   6.512   7.287
10401WAT     H231446   1.198   6.486   7.126
10402WAT      O31447   0.838   2.358   3.614
10402WAT     H131448   0.823   2.286   3.682
10402WAT     H231449   0.762   2.358   3.549
10403WAT      O31450   1.834   6.388   9.195
10403WAT     H131451   1.777   6.463   9.162
10403WAT     H231452   1.856   6.327   9.119
10404WAT      O31453   2.510   5.339   6.222
10404WAT     H131454   2.472   5.282   6.295
10404WAT     H231455   2.539   5.281   6.146
10405WAT      O31456   3.938   9.656   1.370
10405WAT     H131457   4.034   9.632   1.384
10405WAT     H231458   3.881   9.576   1.391
10406WAT      O31459   3.691   9.780   4.876
10406WAT     H131460   3.597   9.761   4.847
10406WAT     H231461   3.690   9.851   4.946
10407WAT      O31462   4.952   4.423   2.204
10407WAT     H131463   4.985   4.462   2.118
10407WAT     H231464   4.886   4.351   2.185
10408WAT      O31465   9.532   4.148   8.526
10408WAT     H131466   9.566   4.108   8.440
10408WAT     H231467   9.549   4.084   8.601
10409WAT      O31468   9.064   0.787   9.620
10409WAT     H131469   9.071   0.871   9.566
10409WAT     H231470   8.980   0.789   9.674
10410WAT      O31471   6.156   7.551   8.839
10410WAT     H131472   6.127   7.645   8.860
10410WAT     H231473   6.241   7.531   8.889
10411WAT      O31474   7.495   1.284   2.150
10411WAT     H131475   7.525   1.232   2.071
10411WAT     H231476   7.485   1.380   2.125
10412WAT      O31477   8.313   3.622   5.521
10412WAT     H131478   8.395   3.677   5.500
10412WAT     H231479   8.292   3.563   5.443
10413WAT      O31480   9.792   4.771   4.925
10413WAT     H131481   9.822   4.864   4.950
10413WAT     H231482   9.770   4.768   4.828
10414WAT      O31483   4.864   8.843   3.619
10414WAT     H131484   4.878   8.885   3.709
10414WAT     H231485   4.782   8.786   3.621
10415WAT      O31486   3.086   6.004   5.584
10415WAT     H131487   3.035   5.920   5.563
10415WAT     H231488   3.172   5.980   5.630
10416WAT      O31489   4.522   6.872   5.804
10416WAT     H131490   4.617   6.882   5.833
10416WAT     H231491   4.464   6.933   5.858
10417WAT      O31492   3.475   1.111   6.246
10417WAT     H131493   3.548   1.078   6.307
10417WAT     H231494   3.485   1.210   6.233
10418WAT      O31495   1.080   1.095   6.257
10418WAT     H131496   1.096   1.055   6.167
10418WAT     H231497   1.120   1.186   6.262
10419WAT      O31498   4.076   3.724   1.472
10419WAT     H131499   4.075   3.635   1.518
10419WAT     H231500   4.040   3.793   1.534
10420WAT      O31501   0.113   4.696   2.109
10420WAT     H131502   0.030   4.646   2.085
10420WAT     H231503   0.188   4.665   2.051
10421WAT      O31504   4.607   9.577   8.253
10421WAT     H131505   4.666   9.539   8.324
10421WAT     H231506   4.662   9.628   8.187
10422WAT      O31507   3.096   8.308   4.760
10422WAT     H131508   3.126   8.283   4.852
10422WAT     H231509   3.065   8.226   4.713
10423WAT      O31510   9.656   5.070   2.325
10423WAT     H131511   9.737   5.021   2.294
10423WAT     H231512   9.574   5.027   2.286
10424WAT      O31513   0.056   8.441   2.423
10424WAT     H131514   0.105   8.424   2.508
10424WAT     H231515   0.019   8.354   2.388
10425WAT      O31516   0.580   7.643   3.250
10425WAT     H131517   0.557   7.555   3.207
10425WAT     H231518   0.514   7.663   3.322
10426WAT      O31519   5.659   1.038   2.275
10426WAT     H131520   5.597   0.983   2.219
10426WAT     H231521   5.748   1.044   2.229
10427WAT      O31522   2.558   4.123   1.711
10427WAT     H131523   2.655   4.119   1.689
10427WAT     H231524   2.521   4.030   1.713
10428WAT      O31525   2.768   1.115   3.196
10428WAT     H131526   2.684   1.164   3.222
10428WAT     H231527   2.772   1.028   3.244
10429WAT      O31528   5.154   8.018   1.977
10429WAT     H131529   5.140   7.962   2.058
10429WAT     H231530   5.218   7.973   1.915
10430WAT      O31531   2.114   6.119   2.550
10430WAT     H131532   2.094   6.110   2.453
10430WAT     H231533   2.031   6.100   2.603
10431WAT      O31534   4.722   6.017   0.507
10431WAT     H131535   4.804   5.963   0.523
10431WAT     H231536   4.745   6.114   0.508
10432WAT      O31537   2.874   1.275   1.581
10432WAT     H131538   2.944   1.241   1.644
10432WAT     H231539   2.784   1.244   1.613
10433WAT      O31540   5.011   2.305   4.154
10433WAT     H131541   5.084   2.248   4.191
10433WAT     H231542   4.935   2.247   4.125
10434WAT      O31543   4.361   5.712   6.164
10434WAT     H131544   4.353   5.673   6.072
10434WAT     H231545   4.429   5.661   6.216
10435WAT      O31546   4.536   9.722   4.907
10435WAT     H131547   4.510   9.630   4.938
10435WAT     H231548   4.511   9.731   4.810
10436WAT      O31549   6.298   9.448   1.778
10436WAT     H131550   6.349   9.486   1.701
10436WAT     H231551   6.281   9.520   1.845
10437WAT      O31552   9.604   2.585   3.797
10437WAT     H131553   9.592   2.589   3.896
10437WAT     H231554   9.669   2.512   3.775
10438WAT      O31555   8.004   6.628   5.085
10438WAT     H131556   7.942   6.586   5.152
10438WAT     H231557   8.091   6.578   5.085
10439WAT      O31558   0.152   4.442   5.040
10439WAT     H131559   0.130   4.534   5.009
10439WAT     H231560   0.077   4.380   5.019
10440WAT      O31561   9.550   5.298   9.049
10440WAT     H131562   9.509   5.389   9.045
10440WAT     H231563   9.638   5.299   9.002
10441WAT      O31564   5.923   7.506   1.291
10441WAT     H131565   5.918   7.461   1.202
10441WAT     H231566   6.018   7.531   1.309
10442WAT      O31567   0.995   2.618   4.852
10442WAT     H131568   0.910   2.603   4.801
10442WAT     H231569   0.982   2.592   4.948
10443WAT      O31570   6.173   2.392   3.996
10443WAT     H131571   6.132   2.318   3.942
10443WAT     H231572   6.115   2.412   4.075
10444WAT      O31573   1.862   7.473   4.617
10444WAT     H131574   1.956   7.441   4.628
10444WAT     H231575   1.862   7.560   4.567
10445WAT      O31576   0.400   8.504   2.873
10445WAT     H131577   0.485   8.465   2.906
10445WAT     H231578   0.391   8.598   2.905
10446WAT      O31579   9.351   6.082   4.466
10446WAT     H131580   9.387   5.993   4.494
10446WAT     H231581   9.325   6.135   4.547
10447WAT      O31582   4.678   0.848   4.356
10447WAT     H131583   4.774   0.835   4.333
10447WAT     H231584   4.637   0.760   4.378
10448WAT      O31585   3.561   0.521   8.750
10448WAT     H131586   3.485   0.521   8.815
10448WAT     H231587   3.644   0.488   8.796
10449WAT      O31588   9.156   4.708   4.410
10449WAT     H131589   9.229   4.775   4.422
10449WAT     H231590   9.195   4.616   4.408
10450WAT      O31591   2.873   9.546   9.190
10450WAT     H131592   2.909   9.636   9.168
10450WAT     H231593   2.849   9.498   9.106
10451WAT      O31594   4.845   4.291   7.579
10451WAT     H131595   4.885   4.226   7.643
10451WAT     H231596   4.747   4.273   7.570
10452WAT      O31597   2.314   7.084   2.722
10452WAT     H131598   2.375   7.126   2.789
10452WAT     H231599   2.356   7.089   2.631
10453WAT      O31600   2.055   8.415   4.090
10453WAT     H131601   2.013   8.500   4.122
10453WAT     H231602   2.105   8.372   4.164
10454WAT      O31603   7.584   0.703   2.616
10454WAT     H131604   7.561   0.680   2.710
10454WAT     H231605   7.572   0.623   2.558
10455WAT      O31606   9.635   0.279   2.508
10455WAT     H131607   9.673   0.363   2.469
10455WAT     H231608   9.539   0.271   2.482
10456WAT      O31609   4.253   4.299   4.638
10456WAT     H131610   4.232   4.228   4.571
10456WAT     H231611   4.234   4.389   4.599
10457WAT      O31612   6.736   8.563   0.116
10457WAT     H131613   6.803   8.550   0.043
10457WAT     H231614   6.666   8.628   0.086
10458WAT      O31615   6.380   9.793   7.378
10458WAT     H131616   6.293   9.745   7.369
10458WAT     H231617   6.418   9.777   7.469
10459WAT      O31618   3.771   0.688   9.153
10459WAT     H131619   3.840   0.685   9.081
10459WAT     H231620   3.777   0.774   9.203
10460WAT      O31621   2.853   7.910   2.350
10460WAT     H131622   2.855   7.998   2.302
10460WAT     H231623   2.945   7.888   2.382
10461WAT      O31624   1.637   3.791   0.684
10461WAT     H131625   1.588   3.703   0.688
10461WAT     H231626   1.572   3.865   0.699
10462WAT      O31627   1.755   9.424   7.892
10462WAT     H131628   1.694   9.347   7.908
10462WAT     H231629   1.709   9.509   7.919
10463WAT      O31630   7.148   3.567   7.261
10463WAT     H131631   7.220   3.572   7.330
10463WAT     H231632   7.071   3.624   7.290
10464WAT      O31633   0.633   3.292   7.075
10464WAT     H131634   0.596   3.200   7.069
10464WAT     H231635   0.709   3.294   7.139
10465WAT      O31636   1.122   5.686   0.798
10465WAT     H131637   1.077   5.659   0.713
10465WAT     H231638   1.220   5.666   0.791
10466WAT      O31639   0.133   8.603   1.099
10466WAT     H131640   0.115   8.699   1.122
10466WAT     H231641   0.217   8.574   1.144
10467WAT      O31642   2.775   5.099   9.119
10467WAT     H131643   2.730   5.076   9.033
10467WAT     H231644   2.715   5.159   9.173
10468WAT      O31645   3.329   5.774   4.821
10468WAT     H131646   3.257   5.841   4.804
10468WAT     H231647   3.306   5.721   4.904
10469WAT      O31648   7.652   7.104   9.422
10469WAT     H131649   7.732   7.043   9.422
10469WAT     H231650   7.570   7.052   9.444
10470WAT      O31651   4.554   8.998   7.407
10470WAT     H131652   4.620   8.960   7.472
10470WAT     H231653   4.598   9.072   7.355
10471WAT      O31654   7.863   7.418   1.430
10471WAT     H131655   7.892   7.379   1.342
10471WAT     H231656   7.934   7.400   1.498
10472WAT      O31657   4.265   4.686   6.404
10472WAT     H131658   4.364   4.691   6.393
10472WAT     H231659   4.222   4.765   6.360
10473WAT      O31660   6.756   2.861   8.237
10473WAT     H131661   6.764   2.909   8.325
10473WAT     H231662   6.841   2.872   8.185
10474WAT      O31663   9.106   9.340   7.256
10474WAT     H131664   9.084   9.424   7.304
10474WAT     H231665   9.029   9.312   7.199
10475WAT      O31666   4.284   4.476   9.165
10475WAT     H131667   4.205   4.523   9.125
10475WAT     H231668   4.362   4.538   9.167
10476WAT      O31669   1.962   3.352   9.854
10476WAT     H131670   2.046   3.329   9.804
10476WAT     H231671   1.893   3.384   9.789
10477WAT      O31672   7.433   8.498   3.764
10477WAT     H131673   7.497   8.532   3.695
10477WAT     H231674   7.341   8.532   3.744
10478WAT      O31675   8.326   8.730   9.409
10478WAT     H131676   8.389   8.751   9.484
10478WAT     H231677   8.316   8.631   9.400
10479WAT      O31678   4.534   4.171   3.095
10479WAT     H131679   4.573   4.131   3.012
10479WAT     H231680   4.567   4.265   3.105
10480WAT      O31681   7.772   5.194   8.997
10480WAT     H131682   7.754   5.232   8.906
10480WAT     H231683   7.732   5.254   9.066
10481WAT      O31684   6.994   3.065   7.115
10481WAT     H131685   7.010   3.007   7.195
10481WAT     H231686   6.986   3.160   7.144
10482WAT      O31687   7.563   4.258   5.708
10482WAT     H131688   7.487   4.211   5.753
10482WAT     H231689   7.530   4.344   5.670
10483WAT      O31690   3.739   6.404   3.744
10483WAT     H131691   3.700   6.461   3.816
10483WAT     H231692   3.670   6.339   3.711
10484WAT      O31693   3.780   9.382   0.272
10484WAT     H131694   3.735   9.451   0.328
10484WAT     H231695   3.856   9.424   0.222
10485WAT      O31696   1.307   7.656   4.080
10485WAT     H131697   1.313   7.749   4.115
10485WAT     H231698   1.215   7.639   4.045
10486WAT      O31699   3.381   3.242   5.400
10486WAT     H131700   3.436   3.159   5.403
10486WAT     H231701   3.287   3.219   5.373
10487WAT      O31702   6.254   9.354   2.905
10487WAT     H131703   6.352   9.343   2.923
10487WAT     H231704   6.203   9.337   2.990
10488WAT      O31705   9.648   6.535   4.558
10488WAT     H131706   9.630   6.463   4.491
10488WAT     H231707   9.747   6.554   4.560
10489WAT      O31708   3.161   0.915   5.589
10489WAT     H131709   3.081   0.972   5.574
10489WAT     H231710   3.225   0.962   5.649
10490WAT      O31711   0.259   6.214   5.272
10490WAT     H131712   0.250   6.227   5.370
10490WAT     H231713   0.332   6.149   5.253
10491WAT      O31714   4.688   3.669   2.450
10491WAT     H131715   4.640   3.588   2.483
10491WAT     H231716   4.713   3.727   2.528
10492WAT      O31717   2.930   5.808   4.226
10492WAT     H131718   2.957   5.712   4.213
10492WAT     H231719   2.914   5.850   4.136
10493WAT      O31720   7.667   1.430   0.666
10493WAT     H131721   7.709   1.463   0.581
10493WAT     H231722   7.681   1.331   0.673
10494WAT      O31723   2.251   0.428   3.455
10494WAT     H131724   2.169   0.407   3.508
10494WAT     H231725   2.288   0.343   3.416
10495WAT      O31726   1.740   7.748   4.957
10495WAT     H131727   1.666   7.801   4.998
10495WAT     H231728   1.716   7.651   4.957
10496WAT      O31729   8.133   8.731   0.696
10496WAT     H131730   8.108   8.821   0.659
10496WAT     H231731   8.153   8.668   0.621
10497WAT      O31732   9.724   0.225   9.083
10497WAT     H131733   9.681   0.234   9.173
10497WAT     H231734   9.732   0.315   9.041
10498WAT      O31735   1.597   6.734   5.800
10498WAT     H131736   1.671   6.713   5.863
10498WAT     H231737   1.522   6.779   5.848
10499WAT      O31738   9.509   8.818   3.720
10499WAT     H131739   9.485   8.721   3.716
10499WAT     H231740   9.566   8.842   3.642
10500WAT      O31741   1.846   7.295   7.518
10500WAT     H131742   1.944   7.314   7.523
10500WAT     H231743   1.820   7.231   7.590
10501WAT      O31744   3.558   1.143   9.671
10501WAT     H131745   3.462   1.167   9.658
10501WAT     H231746   3.615   1.224   9.654
10502WAT      O31747   0.949   9.154   1.529
10502WAT     H131748   0.885   9.113   1.594
10502WAT     H231749   0.936   9.113   1.438
10503WAT      O31750   7.077   9.094   0.794
10503WAT     H131751   7.098   9.160   0.722
10503WAT     H231752   7.104   9.002   0.764
10504WAT      O31753   6.762   0.077   3.053
10504WAT     H131754   6.781   0.168   3.090
10504WAT     H231755   6.790   0.007   3.119
10505WAT      O31756   0.733   1.277   5.949
10505WAT     H131757   0.645   1.311   5.982
10505WAT     H231758   0.734   1.177   5.951
10506WAT      O31759   7.982   8.564   0.014
10506WAT     H131760   8.066   8.567   0.068
10506WAT     H231761   8.003   8.549  -0.082
10507WAT      O31762   8.805   1.686   7.853
10507WAT     H131763   8.771   1.779   7.866
10507WAT     H231764   8.770   1.650   7.766
10508WAT      O31765   2.841   4.934   5.905
10508WAT     H131766   2.748   4.907   5.931
10508WAT     H231767   2.863   5.022   5.946
10509WAT      O31768   5.331   9.270   4.439
10509WAT     H131769   5.252   9.210   4.425
10509WAT     H231770   5.410   9.232   4.392
10510WAT      O31771   4.742   1.738   4.987
10510WAT     H131772   4.685   1.725   4.906
10510WAT     H231773   4.837   1.719   4.963
10511WAT      O31774   9.766   2.712   5.056
10511WAT     H131775   9.720   2.711   5.145
10511WAT     H231776   9.856   2.755   5.066
10512WAT      O31777   6.492   0.240   8.426
10512WAT     H131778   6.555   0.309   8.462
10512WAT     H231779   6.481   0.167   8.494
10513WAT      O31780   7.325   8.481   4.632
10513WAT     H131781   7.380   8.402   4.604
10513WAT     H231782   7.336   8.554   4.565
10514WAT      O31783   9.763   3.661   0.344
10514WAT     H131784   9.719   3.579   0.381
10514WAT     H231785   9.708   3.741   0.366
10515WAT      O31786   0.123   7.133   3.080
10515WAT     H131787   0.219   7.108   3.086
10515WAT     H231788   0.066   7.051   3.083
10516WAT      O31789   5.496   1.967   2.668
10516WAT     H131790   5.507   1.908   2.748
10516WAT     H231791   5.537   2.056   2.687
10517WAT      O31792   9.846   5.490   8.139
10517WAT     H131793   9.872   5.482   8.043
10517WAT     H231794   9.923   5.461   8.197
10518WAT      O31795   3.220   0.945   4.064
10518WAT     H131796   3.222   0.959   4.163
10518WAT     H231797   3.247   1.030   4.018
10519WAT      O31798   7.790   9.360   3.397
10519WAT     H131799   7.759   9.265   3.402
10519WAT     H231800   7.872   9.371   3.454
10520WAT      O31801   1.426   3.741   0.243
10520WAT     H131802   1.475   3.673   0.297
10520WAT     H231803   1.476   3.828   0.246
10521WAT      O31804   3.158   5.322   2.367
10521WAT     H131805   3.141   5.271   2.283
10521WAT     H231806   3.171   5.418   2.347
10522WAT      O31807   4.672   3.337   0.241
10522WAT     H131808   4.573   3.338   0.226
10522WAT     H231809   4.691   3.358   0.337
10523WAT      O31810   8.591   8.462   6.690
10523WAT     H131811   8.536   8.381   6.669
10523WAT     H231812   8.563   8.500   6.778
10524WAT      O31813   9.013   6.698   2.882
10524WAT     H131814   8.924   6.653   2.872
10524WAT     H231815   9.079   6.656   2.819
10525WAT      O31816   2.116   0.126   8.098
10525WAT     H131817   2.030   0.157   8.138
10525WAT     H231818   2.157   0.200   8.045
10526WAT      O31819   2.882   3.401   6.012
10526WAT     H131820   2.927   3.325   6.059
10526WAT     H231821   2.860   3.374   5.919
10527WAT      O31822   2.404   2.837   5.858
10527WAT     H131823   2.379   2.892   5.779
10527WAT     H231824   2.437   2.748   5.828
10528WAT      O31825   1.764   2.807   5.827
10528WAT     H131826   1.667   2.783   5.830
10528WAT     H231827   1.799   2.793   5.734
10529WAT      O31828   0.095   0.328   5.227
10529WAT     H131829   0.159   0.323   5.151
10529WAT     H231830   0.140   0.372   5.305
10530WAT      O31831   3.251   1.965   3.130
10530WAT     H131832   3.309   1.891   3.163
10530WAT     H231833   3.299   2.017   3.060
10531WAT      O31834   6.403   7.941   3.797
10531WAT     H131835   6.337   7.910   3.728
10531WAT     H231836   6.397   7.882   3.878
10532WAT      O31837   1.117   5.286   7.026
10532WAT     H131838   1.066   5.372   7.029
10532WAT     H231839   1.142   5.265   6.931
10533WAT      O31840   6.137   2.342   1.203
10533WAT     H131841   6.138   2.429   1.153
10533WAT     H231842   6.087   2.274   1.149
10534WAT      O31843   6.382   3.606   1.806
10534WAT     H131844   6.465   3.660   1.822
10534WAT     H231845   6.334   3.593   1.893
10535WAT      O31846   4.502   2.591   8.741
10535WAT     H131847   4.512   2.493   8.758
10535WAT     H231848   4.467   2.605   8.648
10536WAT      O31849   4.278   5.875   8.865
10536WAT     H131850   4.182   5.901   8.852
10536WAT     H231851   4.337   5.954   8.850
10537WAT      O31852   5.564   8.876   0.254
10537WAT     H131853   5.511   8.959   0.237
10537WAT     H231854   5.524   8.826   0.330
10538WAT      O31855   7.059   0.204   0.291
10538WAT     H131856   6.966   0.211   0.326
10538WAT     H231857   7.123   0.193   0.367
10539WAT      O31858   5.203   2.746   3.932
10539WAT     H131859   5.229   2.837   3.965
10539WAT     H231860   5.171   2.751   3.838
10540WAT      O31861   8.634   3.281   7.556
10540WAT     H131862   8.542   3.278   7.595
10540WAT     H231863   8.700   3.246   7.622
10541WAT      O31864   7.609   4.544   5.323
10541WAT     H131865   7.519   4.534   5.283
10541WAT     H231866   7.640   4.638   5.314
10542WAT      O31867   6.547   0.891   9.081
10542WAT     H131868   6.459   0.847   9.100
10542WAT     H231869   6.534   0.960   9.009
10543WAT      O31870   4.035   2.590   7.029
10543WAT     H131871   4.053   2.587   7.128
10543WAT     H231872   3.964   2.523   7.007
10544WAT      O31873   8.835   6.448   8.973
10544WAT     H131874   8.900   6.413   9.040
10544WAT     H231875   8.863   6.539   8.942
10545WAT      O31876   3.567   3.603   1.881
10545WAT     H131877   3.650   3.655   1.902
10545WAT     H231878   3.592   3.520   1.830
10546WAT      O31879   1.213   1.884   4.095
10546WAT     H131880   1.217   1.969   4.042
10546WAT     H231881   1.180   1.903   4.187
10547WAT      O31882   6.210   3.467   0.293
10547WAT     H131883   6.180   3.378   0.326
10547WAT     H231884   6.195   3.536   0.364
10548WAT      O31885   9.265   8.357   2.967
10548WAT     H131886   9.257   8.284   3.034
10548WAT     H231887   9.279   8.318   2.876
10549WAT      O31888   2.843   3.399   4.281
10549WAT     H131889   2.834   3.412   4.182
10549WAT     H231890   2.922   3.450   4.315
10550WAT      O31891   5.882   2.173   1.521
10550WAT     H131892   5.923   2.082   1.519
10550WAT     H231893   5.951   2.241   1.495
10551WAT      O31894   1.816   1.467   2.250
10551WAT     H131895   1.724   1.441   2.221
10551WAT     H231896   1.836   1.427   2.339
10552WAT      O31897   6.331   5.932   8.854
10552WAT     H131898   6.327   5.896   8.947
10552WAT     H231899   6.273   5.876   8.794
10553WAT      O31900   8.355   5.641   0.583
10553WAT     H131901   8.282   5.709   0.577
10553WAT     H231902   8.316   5.549   0.574
10554WAT      O31903   4.226   0.537   1.908
10554WAT     H131904   4.249   0.564   1.814
10554WAT     H231905   4.247   0.440   1.921
10555WAT      O31906   2.263   4.373   1.535
10555WAT     H131907   2.322   4.312   1.483
10555WAT     H231908   2.316   4.452   1.566
10556WAT      O31909   6.322   3.915   1.784
10556WAT     H131910   6.369   3.871   1.707
10556WAT     H231911   6.232   3.948   1.753
10557WAT      O31912   3.547   2.115   6.081
10557WAT     H131913   3.499   2.078   6.161
10557WAT     H231914   3.515   2.208   6.063
10558WAT      O31915   0.226   1.014   0.987
10558WAT     H131916   0.185   1.105   0.979
10558WAT     H231917   0.191   0.969   1.069
10559WAT      O31918   7.508   9.130   5.878
10559WAT     H131919   7.574   9.180   5.934
10559WAT     H231920   7.548   9.111   5.788
10560WAT      O31921   3.306   1.988   6.854
10560WAT     H131922   3.382   1.982   6.789
10560WAT     H231923   3.341   2.013   6.944
10561WAT      O31924   1.419   5.300   9.578
10561WAT     H131925   1.379   5.281   9.489
10561WAT     H231926   1.347   5.310   9.646
10562WAT      O31927   0.738   2.465   6.884
10562WAT     H131928   0.784   2.546   6.918
10562WAT     H231929   0.735   2.468   6.784
10563WAT      O31930   5.856   3.999   2.885
10563WAT     H131931   5.924   4.035   2.820
10563WAT     H231932   5.865   3.899   2.890
10564WAT      O31933   1.297   3.319   5.197
10564WAT     H131934   1.249   3.280   5.119
10564WAT     H231935   1.280   3.418   5.200
10565WAT      O31936   4.172   9.081   2.931
10565WAT     H131937   4.255   9.066   2.984
10565WAT     H231938   4.187   9.049   2.837
10566WAT      O31939   7.301   5.189   4.012
10566WAT     H131940   7.315   5.095   4.043
10566WAT     H231941   7.222   5.192   3.950
10567WAT      O31942   5.049   0.064   1.712
10567WAT     H131943   5.041   0.129   1.637
10567WAT     H231944   5.127   0.004   1.696
10568WAT      O31945   3.736   9.049   5.562
10568WAT     H131946   3.721   8.954   5.536
10568WAT     H231947   3.758   9.103   5.481
10569WAT      O31948   5.779   7.114   0.070
10569WAT     H131949   5.809   7.186   0.133
10569WAT     H231950   5.740   7.038   0.123
10570WAT      O31951   8.950   1.432   1.238
10570WAT     H131952   9.011   1.439   1.159
10570WAT     H231953   8.879   1.502   1.231
10571WAT      O31954   4.622   0.118   3.572
10571WAT     H131955   4.542   0.167   3.608
10571WAT     H231956   4.609   0.099   3.475
10572WAT      O31957   4.971   7.481   1.392
10572WAT     H131958   5.007   7.570   1.422
10572WAT     H231959   4.944   7.428   1.471
10573WAT      O31960   9.368   3.268   1.292
10573WAT     H131961   9.274   3.269   1.258
10573WAT     H231962   9.386   3.352   1.343
10574WAT      O31963   6.844   4.322   4.970
10574WAT     H131964   6.871   4.255   4.900
10574WAT     H231965   6.886   4.410   4.948
10575WAT      O31966   2.157   4.954   0.478
10575WAT     H131967   2.092   5.027   0.497
10575WAT     H231968   2.125   4.901   0.399
10576WAT      O31969   7.981   8.037   9.643
10576WAT     H131970   7.891   8.078   9.660
10576WAT     H231971   7.973   7.968   9.571
10577WAT      O31972   3.908   1.880   6.978
10577WAT     H131973   3.999   1.873   7.018
10577WAT     H231974   3.898   1.812   6.906
10578WAT      O31975   0.008   5.614   2.419
10578WAT     H131976   0.021   5.708   2.451
10578WAT     H231977  -0.061   5.613   2.346
10579WAT      O31978   9.331   4.847   5.729
10579WAT     H131979   9.308   4.808   5.818
10579WAT     H231980   9.247   4.880   5.684
10580WAT      O31981   5.491   5.107   7.227
10580WAT     H131982   5.512   5.200   7.258
10580WAT     H231983   5.547   5.085   7.147
10581WAT      O31984   1.944   3.914   7.020
10581WAT     H131985   1.916   3.884   7.111
10581WAT     H231986   2.018   3.855   6.987
10582WAT      O31987   7.964   3.957   0.096
10582WAT     H131988   7.866   3.963   0.074
10582WAT     H231989   8.009   3.894   0.032
10583WAT      O31990   3.135   4.036   6.925
10583WAT     H131991   3.126   3.971   6.850
10583WAT     H231992   3.219   4.017   6.976
10584WAT      O31993   2.027   9.747   4.435
10584WAT     H131994   1.938   9.704   4.444
10584WAT     H231995   2.037   9.784   4.343
10585WAT      O31996   5.085   3.289   8.960
10585WAT     H131997   5.019   3.237   9.014
10585WAT     H231998   5.047   3.307   8.869
10586WAT      O31999   9.018   9.803   8.221
10586WAT     H132000   8.940   9.859   8.193
10586WAT     H232001   9.069   9.775   8.140
10587WAT      O32002   8.253   7.697   8.453
10587WAT     H132003   8.167   7.647   8.463
10587WAT     H232004   8.234   7.791   8.424
10588WAT      O32005   0.274   0.880   6.144
10588WAT     H132006   0.358   0.935   6.149
10588WAT     H232007   0.200   0.936   6.106
10589WAT      O32008   4.801   5.720   2.792
10589WAT     H132009   4.857   5.652   2.840
10589WAT     H232010   4.811   5.809   2.836
10590WAT      O32011   3.774   6.007   6.049
10590WAT     H132012   3.770   6.104   6.073
10590WAT     H232013   3.848   5.991   5.984
10591WAT      O32014   6.004   2.425   2.219
10591WAT     H132015   6.030   2.512   2.260
10591WAT     H232016   5.937   2.440   2.147
10592WAT      O32017   8.154   3.271   1.815
10592WAT     H132018   8.162   3.174   1.837
10592WAT     H232019   8.161   3.325   1.899
10593WAT      O32020   4.932   1.924   9.306
10593WAT     H132021   4.939   1.985   9.384
10593WAT     H232022   4.852   1.949   9.251
10594WAT      O32023   4.804   3.133   6.108
10594WAT     H132024   4.844   3.056   6.157
10594WAT     H232025   4.707   3.114   6.091
10595WAT      O32026   3.616   0.245   4.753
10595WAT     H132027   3.596   0.284   4.843
10595WAT     H232028   3.715   0.237   4.741
10596WAT      O32029   9.619   1.678   7.969
10596WAT     H132030   9.581   1.756   8.018
10596WAT     H232031   9.546   1.611   7.952
10597WAT      O32032   8.306   4.949   4.313
10597WAT     H132033   8.389   4.916   4.357
10597WAT     H232034   8.327   5.028   4.255
10598WAT      O32035   1.744   5.768   5.631
10598WAT     H132036   1.776   5.744   5.539
10598WAT     H232037   1.803   5.725   5.699
10599WAT      O32038   1.115   7.576   1.208
10599WAT     H132039   1.104   7.606   1.303
10599WAT     H232040   1.038   7.517   1.183
10600WAT      O32041   8.878   2.420   6.051
10600WAT     H132042   8.917   2.481   5.982
10600WAT     H232043   8.783   2.398   6.026
10601WAT      O32044   2.313   0.175   3.335
10601WAT     H132045   2.374   0.159   3.258
10601WAT     H232046   2.315   0.096   3.396
10602WAT      O32047   6.752   3.341   0.931
10602WAT     H132048   6.683   3.400   0.973
10602WAT     H232049   6.752   3.252   0.977
10603WAT      O32050   7.049   5.205   1.653
10603WAT     H132051   6.973   5.149   1.688
10603WAT     H232052   7.084   5.162   1.569
10604WAT      O32053   7.457   4.300   3.980
10604WAT     H132054   7.533   4.312   4.044
10604WAT     H232055   7.443   4.203   3.962
10605WAT      O32056   7.442   4.679   3.587
10605WAT     H132057   7.481   4.644   3.672
10605WAT     H232058   7.392   4.605   3.540
10606WAT      O32059   4.191   4.975   7.545
10606WAT     H132060   4.201   5.070   7.574
10606WAT     H232061   4.126   4.969   7.469
10607WAT      O32062   5.534   6.812   0.042
10607WAT     H132063   5.446   6.845   0.077
10607WAT     H232064   5.601   6.810   0.116
10608WAT      O32065   5.544   2.326   8.797
10608WAT     H132066   5.593   2.353   8.714
10608WAT     H232067   5.562   2.392   8.869
10609WAT      O32068   8.232   7.371   0.512
10609WAT     H132069   8.161   7.335   0.572
10609WAT     H232070   8.308   7.307   0.509
10610WAT      O32071   3.937   7.719   7.616
10610WAT     H132072   3.892   7.685   7.533
10610WAT     H232073   4.035   7.703   7.609
10611WAT      O32074   2.723   4.612   8.111
10611WAT     H132075   2.773   4.525   8.109
10611WAT     H232076   2.626   4.594   8.126
10612WAT      O32077   8.906   2.799   3.495
10612WAT     H132078   8.893   2.859   3.574
10612WAT     H232079   8.998   2.813   3.457
10613WAT      O32080   2.296   8.721   9.454
10613WAT     H132081   2.217   8.779   9.431
10613WAT     H232082   2.321   8.667   9.373
10614WAT      O32083   4.445   1.790   4.409
10614WAT     H132084   4.543   1.786   4.388
10614WAT     H232085   4.428   1.861   4.477
10615WAT      O32086   2.868   1.604   1.164
10615WAT     H132087   2.790   1.666   1.158
10615WAT     H232088   2.926   1.615   1.083
10616WAT      O32089   9.443   7.794   4.354
10616WAT     H132090   9.535   7.783   4.316
10616WAT     H232091   9.376   7.791   4.280
10617WAT      O32092   0.937   8.609   3.918
10617WAT     H132093   0.924   8.554   4.000
10617WAT     H232094   1.013   8.571   3.864
10618WAT      O32095   1.277   2.815   4.274
10618WAT     H132096   1.242   2.764   4.353
10618WAT     H232097   1.202   2.833   4.211
10619WAT      O32098   1.334   3.597   8.673
10619WAT     H132099   1.250   3.562   8.716
10619WAT     H232100   1.397   3.629   8.744
10620WAT      O32101   6.392   6.856   1.191
10620WAT     H132102   6.489   6.838   1.172
10620WAT     H232103   6.335   6.803   1.129
10621WAT      O32104   0.930   8.840   1.900
10621WAT     H132105   0.838   8.873   1.922
10621WAT     H232106   0.931   8.802   1.807
10622WAT      O32107   0.704   5.988   8.067
10622WAT     H132108   0.721   5.913   8.003
10622WAT     H232109   0.652   6.060   8.021
10623WAT      O32110   9.018   4.702   8.754
10623WAT     H132111   9.099   4.645   8.769
10623WAT     H232112   8.939   4.643   8.738
10624WAT      O32113   8.972   7.374   4.434
10624WAT     H132114   8.913   7.407   4.508
10624WAT     H232115   8.942   7.413   4.347
10625WAT      O32116   8.550   4.577   9.765
10625WAT     H132117   8.558   4.554   9.862
10625WAT     H232118   8.532   4.675   9.755
10626WAT      O32119   2.081   7.018   1.996
10626WAT     H132120   2.092   6.937   2.053
10626WAT     H232121   1.984   7.041   1.989
10627WAT      O32122   7.520   7.665   8.301
10627WAT     H132123   7.482   7.702   8.386
10627WAT     H232124   7.569   7.580   8.321
10628WAT      O32125   3.522   6.589   3.807
10628WAT     H132126   3.474   6.628   3.729
10628WAT     H232127   3.488   6.497   3.826
10629WAT      O32128   5.321   0.780   7.439
10629WAT     H132129   5.300   0.700   7.382
10629WAT     H232130   5.237   0.831   7.456
10630WAT      O32131   6.031   7.029   3.124
10630WAT     H132132   6.066   7.108   3.175
10630WAT     H232133   6.051   7.041   3.027
10631WAT      O32134   8.155   5.204   7.441
10631WAT     H132135   8.112   5.293   7.434
10631WAT     H232136   8.118   5.143   7.371
10632WAT      O32137   7.375   6.808   5.127
10632WAT     H132138   7.303   6.765   5.072
10632WAT     H232139   7.464   6.793   5.083
10633WAT      O32140   0.580   3.971   9.360
10633WAT     H132141   0.621   3.894   9.408
10633WAT     H232142   0.638   4.052   9.372
10634WAT      O32143   7.689   9.341   4.914
10634WAT     H132144   7.623   9.275   4.950
10634WAT     H232145   7.666   9.363   4.820
10635WAT      O32146   4.569   2.977   2.531
10635WAT     H132147   4.504   2.984   2.607
10635WAT     H232148   4.521   2.996   2.445
10636WAT      O32149   8.119   0.705   0.947
10636WAT     H132150   8.109   0.639   0.872
10636WAT     H232151   8.029   0.741   0.972
10637WAT      O32152   0.012   1.605   5.094
10637WAT     H132153  -0.007   1.517   5.139
10637WAT     H232154  -0.061   1.670   5.116
10638WAT      O32155   9.461   8.579   6.944
10638WAT     H132156   9.389   8.514   6.965
10638WAT     H232157   9.422   8.658   6.896
10639WAT      O32158   9.003   6.137   6.734
10639WAT     H132159   8.951   6.218   6.760
10639WAT     H232160   8.939   6.062   6.712
10640WAT      O32161   7.171   8.777   2.865
10640WAT     H132162   7.207   8.849   2.806
10640WAT     H232163   7.120   8.711   2.810
10641WAT      O32164   0.308   8.253   5.597
10641WAT     H132165   0.338   8.220   5.687
10641WAT     H232166   0.354   8.340   5.576
10642WAT      O32167   6.964   8.616   0.875
10642WAT     H132168   6.893   8.684   0.895
10642WAT     H232169   7.054   8.657   0.891
10643WAT      O32170   1.099   0.742   2.994
10643WAT     H132171   1.092   0.743   3.094
10643WAT     H232172   1.195   0.739   2.967
10644WAT      O32173   2.052   5.918   0.992
10644WAT     H132174   2.116   5.994   0.994
10644WAT     H232175   1.981   5.932   1.061
10645WAT      O32176   1.537   3.026   3.462
10645WAT     H132177   1.619   3.061   3.507
10645WAT     H232178   1.474   3.102   3.444
10646WAT      O32179   5.126   7.714   5.033
10646WAT     H132180   5.112   7.661   4.949
10646WAT     H232181   5.156   7.653   5.106
10647WAT      O32182   0.811   1.599   3.028
10647WAT     H132183   0.841   1.615   3.122
10647WAT     H232184   0.885   1.556   2.976
10648WAT      O32185   1.597   8.762   5.437
10648WAT     H132186   1.557   8.692   5.378
10648WAT     H232187   1.585   8.852   5.394
10649WAT      O32188   8.445   4.036   7.082
10649WAT     H132189   8.435   3.937   7.070
10649WAT     H232190   8.494   4.075   7.004
10650WAT      O32191   4.703   0.035   5.780
10650WAT     H132192   4.620   0.089   5.772
10650WAT     H232193   4.778   0.094   5.811
10651WAT      O32194   8.275   4.038   8.759
10651WAT     H132195   8.283   3.953   8.708
10651WAT     H232196   8.366   4.078   8.770
10652WAT      O32197   6.152   9.691   2.935
10652WAT     H132198   6.197   9.766   2.983
10652WAT     H232199   6.100   9.728   2.857
10653WAT      O32200   1.132   8.380   5.647
10653WAT     H132201   1.117   8.332   5.561
10653WAT     H232202   1.045   8.411   5.684
10654WAT      O32203   4.929   7.599   8.567
10654WAT     H132204   5.022   7.625   8.593
10654WAT     H232205   4.870   7.600   8.648
10655WAT      O32206   6.216   4.913   9.570
10655WAT     H132207   6.256   4.822   9.577
10655WAT     H232208   6.144   4.912   9.500
10656WAT      O32209   1.348   8.390   1.737
10656WAT     H132210   1.296   8.426   1.815
10656WAT     H232211   1.444   8.412   1.748
10657WAT      O32212   4.106   3.369   5.189
10657WAT     H132213   4.165   3.440   5.149
10657WAT     H232214   4.086   3.392   5.284
10658WAT      O32215   6.698   0.784   8.718
10658WAT     H132216   6.659   0.867   8.678
10658WAT     H232217   6.795   0.799   8.737
10659WAT      O32218   2.391   3.817   8.216
10659WAT     H132219   2.405   3.899   8.271
10659WAT     H232220   2.442   3.825   8.130
10660WAT      O32221   3.633   2.004   8.793
10660WAT     H132222   3.656   1.907   8.784
10660WAT     H232223   3.567   2.029   8.722
10661WAT      O32224   9.845   4.842   9.681
10661WAT     H132225   9.875   4.754   9.644
10661WAT     H232226   9.814   4.900   9.606
10662WAT      O32227   9.538   5.942   1.149
10662WAT     H132228   9.540   5.992   1.236
10662WAT     H232229   9.600   5.864   1.154
10663WAT      O32230   1.711   1.706   9.554
10663WAT     H132231   1.639   1.691   9.621
10663WAT     H232232   1.798   1.671   9.590
10664WAT      O32233   1.118   2.904   6.499
10664WAT     H132234   1.157   2.994   6.480
10664WAT     H232235   1.044   2.885   6.434
10665WAT      O32236   6.799   7.331   8.928
10665WAT     H132237   6.819   7.238   8.961
10665WAT     H232238   6.878   7.366   8.878
10666WAT      O32239   0.215   3.546   3.664
10666WAT     H132240   0.197   3.449   3.649
10666WAT     H232241   0.213   3.566   3.762
10667WAT      O32242   4.871   0.175   7.778
10667WAT     H132243   4.797   0.141   7.721
10667WAT     H232244   4.918   0.098   7.821
10668WAT      O32245   6.241   4.196   8.589
10668WAT     H132246   6.157   4.143   8.600
10668WAT     H232247   6.218   4.292   8.573
10669WAT      O32248   8.704   6.864   6.704
10669WAT     H132249   8.682   6.877   6.800
10669WAT     H232250   8.749   6.945   6.668
10670WAT      O32251   0.624   2.488   0.930
10670WAT     H132252   0.630   2.556   0.856
10670WAT     H232253   0.529   2.484   0.963
10671WAT      O32254   8.141   1.130   8.148
10671WAT     H132255   8.081   1.193   8.099
10671WAT     H232256   8.095   1.097   8.230
10672WAT      O32257   9.442   3.635   9.222
10672WAT     H132258   9.501   3.571   9.271
10672WAT     H232259   9.463   3.632   9.124
10673WAT      O32260   5.211   8.274   7.824
10673WAT     H132261   5.231   8.250   7.729
10673WAT     H232262   5.130   8.224   7.855
10674WAT      O32263   3.925   9.832   8.846
10674WAT     H132264   3.865   9.779   8.906
10674WAT     H232265   3.870   9.872   8.772
10675WAT      O32266   5.017   7.222   6.928
10675WAT     H132267   5.051   7.132   6.954
10675WAT     H232268   5.093   7.288   6.931
10676WAT      O32269   4.680   0.355   1.873
10676WAT     H132270   4.659   0.277   1.933
10676WAT     H232271   4.651   0.333   1.779
10677WAT      O32272   6.538   7.412   2.847
10677WAT     H132273   6.479   7.398   2.927
10677WAT     H232274   6.610   7.343   2.847
10678WAT      O32275   9.353   7.340   4.965
10678WAT     H132276   9.447   7.348   4.997
10678WAT     H232277   9.342   7.391   4.880
10679WAT      O32278   6.347   4.531   6.578
10679WAT     H132279   6.441   4.548   6.607
10679WAT     H232280   6.314   4.610   6.526
10680WAT      O32281   5.289   5.691   1.273
10680WAT     H132282   5.262   5.769   1.330
10680WAT     H232283   5.389   5.684   1.271
10681WAT      O32284   4.896   4.621   5.437
10681WAT     H132285   4.935   4.682   5.369
10681WAT     H232286   4.967   4.594   5.503
10682WAT      O32287   1.524   1.531   1.100
10682WAT     H132288   1.569   1.536   1.190
10682WAT     H232289   1.578   1.582   1.033
10683WAT      O32290   2.685   3.922   5.362
10683WAT     H132291   2.723   3.990   5.424
10683WAT     H232292   2.678   3.960   5.270
10684WAT      O32293   8.245   8.123   4.463
10684WAT     H132294   8.215   8.217   4.449
10684WAT     H232295   8.345   8.121   4.472
10685WAT      O32296   6.710   1.134   5.371
10685WAT     H132297   6.807   1.118   5.391
10685WAT     H232298   6.701   1.215   5.314
10686WAT      O32299   2.917   7.232   1.192
10686WAT     H132300   2.823   7.235   1.159
10686WAT     H232301   2.960   7.321   1.177
10687WAT      O32302   3.273   0.395   7.829
10687WAT     H132303   3.261   0.316   7.769
10687WAT     H232304   3.344   0.455   7.792
10688WAT      O32305   8.938   6.348   2.768
10688WAT     H132306   9.034   6.325   2.753
10688WAT     H232307   8.883   6.265   2.765
10689WAT      O32308   7.759   1.743   1.391
10689WAT     H132309   7.693   1.699   1.451
10689WAT     H232310   7.734   1.839   1.377
10690WAT      O32311   1.476   2.170   9.431
10690WAT     H132312   1.473   2.214   9.341
10690WAT     H232313   1.508   2.076   9.421
10691WAT      O32314   3.371   6.728   3.158
10691WAT     H132315   3.446   6.750   3.095
10691WAT     H232316   3.365   6.629   3.169
10692WAT      O32317   6.892   9.189   5.638
10692WAT     H132318   6.846   9.151   5.558
10692WAT     H232319   6.911   9.116   5.704
10693WAT      O32320   0.990   8.802   0.587
10693WAT     H132321   0.984   8.751   0.673
10693WAT     H232322   0.998   8.739   0.510
10694WAT      O32323   8.246   1.667   0.870
10694WAT     H132324   8.204   1.714   0.948
10694WAT     H232325   8.181   1.663   0.794
10695WAT      O32326   9.244   4.213   5.951
10695WAT     H132327   9.223   4.116   5.941
10695WAT     H232328   9.243   4.257   5.861
10696WAT      O32329   2.956   5.283   0.433
10696WAT     H132330   3.004   5.274   0.520
10696WAT     H232331   2.938   5.192   0.395
10697WAT      O32332   5.443   6.569   4.799
10697WAT     H132333   5.350   6.581   4.764
10697WAT     H232334   5.497   6.517   4.733
10698WAT      O32335   6.950   5.095   7.384
10698WAT     H132336   6.852   5.105   7.368
10698WAT     H232337   6.999   5.172   7.342
10699WAT      O32338   1.142   6.050   5.746
10699WAT     H132339   1.242   6.053   5.748
10699WAT     H232340   1.111   5.958   5.722
10700WAT      O32341   2.622   5.966   6.567
10700WAT     H132342   2.675   6.027   6.625
10700WAT     H232343   2.539   5.937   6.616
10701WAT      O32344   9.249   5.311   3.835
10701WAT     H132345   9.159   5.308   3.793
10701WAT     H232346   9.245   5.272   3.927
10702WAT      O32347   0.346   6.099   8.927
10702WAT     H132348   0.439   6.062   8.923
10702WAT     H232349   0.348   6.197   8.907
10703WAT      O32350   2.807   6.488   7.123
10703WAT     H132351   2.868   6.412   7.147
10703WAT     H232352   2.857   6.555   7.068
10704WAT      O32353   0.811   6.433   7.550
10704WAT     H132354   0.726   6.477   7.579
10704WAT     H232355   0.823   6.445   7.452
10705WAT      O32356   8.170   4.389   8.308
10705WAT     H132357   8.172   4.340   8.395
10705WAT     H232358   8.156   4.487   8.325
10706WAT      O32359   6.082   7.561   9.537
10706WAT     H132360   6.085   7.571   9.636
10706WAT     H232361   6.122   7.473   9.511
10707WAT      O32362   7.690   1.971   7.739
10707WAT     H132363   7.664   1.874   7.743
10707WAT     H232364   7.688   2.009   7.831
10708WAT      O32365   8.711   2.347   4.395
10708WAT     H132366   8.788   2.360   4.333
10708WAT     H232367   8.660   2.432   4.404
10709WAT      O32368   1.625   1.632   7.036
10709WAT     H132369   1.651   1.537   7.018
10709WAT     H232370   1.573   1.637   7.121
10710WAT      O32371   9.246   7.512   3.436
10710WAT     H132372   9.319   7.464   3.387
10710WAT     H232373   9.283   7.551   3.521
10711WAT      O32374   1.936   7.948   6.169
10711WAT     H132375   1.988   7.864   6.179
10711WAT     H232376   1.944   7.982   6.076
10712WAT      O32377   4.926   0.972   3.675
10712WAT     H132378   4.847   0.910   3.678
10712WAT     H232379   4.955   0.985   3.580
10713WAT      O32380   7.663   6.338   6.248
10713WAT     H132381   7.679   6.433   6.272
10713WAT     H232382   7.742   6.283   6.276
10714WAT      O32383   6.875   4.855   8.392
10714WAT     H132384   6.820   4.929   8.353
10714WAT     H232385   6.820   4.803   8.457
10715WAT      O32386   1.206   3.545   8.446
10715WAT     H132387   1.153   3.462   8.463
10715WAT     H232388   1.263   3.565   8.526
10716WAT      O32389   9.597   9.539   8.616
10716WAT     H132390   9.536   9.567   8.542
10716WAT     H232391   9.636   9.620   8.659
10717WAT      O32392   4.711   6.367   5.265
10717WAT     H132393   4.701   6.269   5.246
10717WAT     H232394   4.649   6.394   5.338
10718WAT      O32395   7.222   6.401   7.122
10718WAT     H132396   7.122   6.410   7.118
10718WAT     H232397   7.262   6.441   7.040
10719WAT      O32398   5.056   0.293   7.608
10719WAT     H132399   5.033   0.304   7.511
10719WAT     H232400   4.972   0.297   7.662
10720WAT      O32401   1.130   8.287   8.937
10720WAT     H132402   1.149   8.213   8.873
10720WAT     H232403   1.193   8.283   9.014
10721WAT      O32404   1.656   1.560   1.329
10721WAT     H132405   1.655   1.484   1.393
10721WAT     H232406   1.750   1.591   1.316
10722WAT      O32407   4.337   3.572   1.783
10722WAT     H132408   4.255   3.629   1.783
10722WAT     H232409   4.386   3.584   1.869
10723WAT      O32410   2.956   3.248   3.458
10723WAT     H132411   2.857   3.246   3.473
10723WAT     H232412   2.975   3.252   3.360
10724WAT      O32413   5.312   5.930   1.450
10724WAT     H132414   5.407   5.932   1.482
10724WAT     H232415   5.293   6.012   1.396
10725WAT      O32416   8.544   0.775   1.342
10725WAT     H132417   8.624   0.827   1.372
10725WAT     H232418   8.552   0.752   1.245
10726WAT      O32419   2.203   0.550   8.392
10726WAT     H132420   2.287   0.537   8.444
10726WAT     H232421   2.142   0.471   8.406
10727WAT      O32422   0.838   0.965   2.997
10727WAT     H132423   0.812   0.873   3.025
10727WAT     H232424   0.915   0.960   2.932
10728WAT      O32425   9.247   8.406   3.660
10728WAT     H132426   9.273   8.332   3.598
10728WAT     H232427   9.151   8.397   3.685
10729WAT      O32428   6.674   6.843   1.106
10729WAT     H132429   6.719   6.928   1.077
10729WAT     H232430   6.669   6.780   1.030
10730WAT      O32431   3.028   1.542   7.525
10730WAT     H132432   3.071   1.459   7.558
10730WAT     H232433   2.932   1.525   7.506
10731WAT      O32434   0.025   4.664   0.714
10731WAT     H132435   0.116   4.704   0.717
10731WAT     H232436  -0.001   4.648   0.619
10732WAT      O32437   8.173   4.712   0.471
10732WAT     H132438   8.115   4.645   0.425
10732WAT     H232439   8.138   4.729   0.564
10733WAT      O32440   4.932   3.074   3.573
10733WAT     H132441   4.923   3.169   3.602
10733WAT     H232442   4.924   3.014   3.653
10734WAT      O32443   4.273   8.078   1.266
10734WAT     H132444   4.273   8.099   1.168
10734WAT     H232445   4.224   8.150   1.316
10735WAT      O32446   7.035   0.564   5.783
10735WAT     H132447   6.965   0.590   5.716
10735WAT     H232448   7.004   0.484   5.834
10736WAT      O32449   1.682   4.177   6.305
10736WAT     H132450   1.692   4.109   6.377
10736WAT     H232451   1.626   4.140   6.231
10737WAT      O32452   7.320   3.366   2.453
10737WAT     H132453   7.379   3.295   2.491
10737WAT     H232454   7.376   3.437   2.411
10738WAT      O32455   4.866   2.771   0.459
10738WAT     H132456   4.906   2.680   0.449
10738WAT     H232457   4.810   2.774   0.542
10739WAT      O32458   1.520   6.084   3.913
10739WAT     H132459   1.522   6.091   4.013
10739WAT     H232460   1.589   6.146   3.874
10740WAT      O32461   6.084   3.718   5.364
10740WAT     H132462   6.041   3.789   5.419
10740WAT     H232463   6.033   3.706   5.279
10741WAT      O32464   1.938   6.113   9.766
10741WAT     H132465   1.938   6.192   9.827
10741WAT     H232466   2.032   6.096   9.735
10742WAT      O32467   7.959   2.827   0.416
10742WAT     H132468   7.984   2.817   0.319
10742WAT     H232469   7.986   2.918   0.448
10743WAT      O32470   8.764   6.744   5.962
10743WAT     H132471   8.853   6.775   5.996
10743WAT     H232472   8.754   6.646   5.979
10744WAT      O32473   9.170   6.557   7.802
10744WAT     H132474   9.203   6.477   7.853
10744WAT     H232475   9.175   6.638   7.861
10745WAT      O32476   0.865   8.887   0.261
10745WAT     H132477   0.906   8.866   0.349
10745WAT     H232478   0.770   8.917   0.273
10746WAT      O32479   4.783   7.020   1.035
10746WAT     H132480   4.758   7.086   0.965
10746WAT     H232481   4.720   6.942   1.033
10747WAT      O32482   0.075   3.593   3.039
10747WAT     H132483   0.093   3.646   2.955
10747WAT     H232484   0.005   3.640   3.093
10748WAT      O32485   2.366   1.227   8.059
10748WAT     H132486   2.312   1.311   8.070
10748WAT     H232487   2.341   1.182   7.973
10749WAT      O32488   0.009   2.754   1.446
10749WAT     H132489   0.096   2.800   1.428
10749WAT     H232490  -0.018   2.702   1.365
10750WAT      O32491   5.068   7.014   1.695
10750WAT     H132492   5.167   7.000   1.691
10750WAT     H232493   5.034   6.991   1.786
10751WAT      O32494   1.057   2.346   0.302
10751WAT     H132495   0.995   2.313   0.232
10751WAT     H232496   1.092   2.436   0.277
10752WAT      O32497   6.720   8.733   6.400
10752WAT     H132498   6.677   8.661   6.454
10752WAT     H232499   6.737   8.700   6.307
10753WAT      O32500   8.650   0.836   2.292
10753WAT     H132501   8.606   0.860   2.379
10753WAT     H232502   8.582   0.834   2.219
10754WAT      O32503   8.865   9.299   7.059
10754WAT     H132504   8.797   9.355   7.106
10754WAT     H232505   8.838   9.202   7.065
10755WAT      O32506   7.714   4.712   7.265
10755WAT     H132507   7.699   4.650   7.342
10755WAT     H232508   7.656   4.793   7.276
10756WAT      O32509   3.231   9.505   3.167
10756WAT     H132510   3.207   9.455   3.250
10756WAT     H232511   3.322   9.479   3.137
10757WAT      O32512   0.373   7.094   1.534
10757WAT     H132513   0.407   7.143   1.454
10757WAT     H232514   0.400   7.144   1.617
10758WAT      O32515   4.655   8.417   4.698
10758WAT     H132516   4.742   8.412   4.650
10758WAT     H232517   4.620   8.325   4.715
10759WAT      O32518   7.622   3.275   3.319
10759WAT     H132519   7.707   3.324   3.334
10759WAT     H232520   7.599   3.277   3.221
10760WAT      O32521   9.032   5.501   5.569
10760WAT     H132522   9.024   5.516   5.470
10760WAT     H232523   9.116   5.450   5.588
10761WAT      O32524   2.439   7.150   7.093
10761WAT     H132525   2.491   7.233   7.071
10761WAT     H232526   2.362   7.174   7.152
10762WAT      O32527   4.969   7.059   3.808
10762WAT     H132528   4.990   7.116   3.729
10762WAT     H232529   4.987   7.110   3.892
10763WAT      O32530   5.449   9.310   9.064
10763WAT     H132531   5.417   9.217   9.048
10763WAT     H232532   5.537   9.307   9.111
10764WAT      O32533   4.920   7.110   5.276
10764WAT     H132534   4.890   7.073   5.364
10764WAT     H232535   4.883   7.054   5.202
10765WAT      O32536   1.085   5.011   1.478
10765WAT     H132537   1.078   5.106   1.446
10765WAT     H232538   1.044   5.003   1.568
10766WAT      O32539   5.670   1.096   1.346
10766WAT     H132540   5.626   1.174   1.390
10766WAT     H232541   5.601   1.029   1.319
10767WAT      O32542   0.032   9.119   6.303
10767WAT     H132543   0.108   9.137   6.366
10767WAT     H232544   0.060   9.051   6.235
10768WAT      O32545   7.875   0.699   0.025
10768WAT     H132546   7.879   0.608   0.065
10768WAT     H232547   7.953   0.711  -0.038
10769WAT      O32548   5.549   7.725   1.932
10769WAT     H132549   5.638   7.770   1.923
10769WAT     H232550   5.541   7.654   1.862
10770WAT      O32551   3.852   0.093   6.193
10770WAT     H132552   3.875   0.015   6.252
10770WAT     H232553   3.933   0.119   6.139
10771WAT      O32554   9.002   9.251   7.750
10771WAT     H132555   9.071   9.179   7.748
10771WAT     H232556   8.965   9.265   7.658
10772WAT      O32557   0.580   7.495   3.885
10772WAT     H132558   0.486   7.520   3.864
10772WAT     H232559   0.585   7.397   3.904
10773WAT      O32560   1.754   5.564   3.015
10773WAT     H132561   1.678   5.532   3.071
10773WAT     H232562   1.741   5.535   2.920
10774WAT      O32563   4.591   5.479   1.130
10774WAT     H132564   4.493   5.495   1.144
10774WAT     H232565   4.643   5.556   1.168
10775WAT      O32566   8.879   6.143   1.914
10775WAT     H132567   8.833   6.157   1.826
10775WAT     H232568   8.945   6.217   1.929
10776WAT      O32569   6.024   5.880   6.962
10776WAT     H132570   6.048   5.825   7.042
10776WAT     H232571   6.031   5.977   6.985
10777WAT      O32572   4.967   4.852   0.300
10777WAT     H132573   4.878   4.870   0.258
10777WAT     H232574   4.956   4.788   0.376
10778WAT      O32575   4.903   1.196   0.731
10778WAT     H132576   4.925   1.228   0.639
10778WAT     H232577   4.983   1.202   0.790
10779WAT      O32578   2.981   8.354   7.123
10779WAT     H132579   3.000   8.257   7.140
10779WAT     H232580   3.057   8.393   7.071
10780WAT      O32581   0.068   6.345   4.136
10780WAT     H132582   0.095   6.405   4.061
10780WAT     H232583   0.134   6.352   4.211
10781WAT      O32584   9.433   4.536   6.121
10781WAT     H132585   9.509   4.578   6.170
10781WAT     H232586   9.442   4.436   6.125
10782WAT      O32587   2.002   7.677   1.650
10782WAT     H132588   2.023   7.753   1.589
10782WAT     H232589   1.930   7.705   1.714
10783WAT      O32590   8.778   8.981   0.878
10783WAT     H132591   8.803   8.965   0.783
10783WAT     H232592   8.768   9.079   0.895
10784WAT      O32593   3.349   9.495   4.957
10784WAT     H132594   3.276   9.544   5.006
10784WAT     H232595   3.403   9.560   4.904
10785WAT      O32596   1.340   5.383   8.143
10785WAT     H132597   1.364   5.416   8.052
10785WAT     H232598   1.364   5.451   8.212
10786WAT      O32599   0.535   5.535   1.952
10786WAT     H132600   0.624   5.580   1.941
10786WAT     H232601   0.522   5.512   2.048
10787WAT      O32602   6.769   3.050   2.467
10787WAT     H132603   6.715   2.967   2.479
10787WAT     H232604   6.767   3.105   2.551
10788WAT      O32605   0.871   3.199   2.748
10788WAT     H132606   0.873   3.111   2.794
10788WAT     H232607   0.963   3.238   2.745
10789WAT      O32608   1.692   7.477   4.844
10789WAT     H132609   1.757   7.472   4.767
10789WAT     H232610   1.690   7.389   4.891
10790WAT      O32611   8.783   0.582   5.576
10790WAT     H132612   8.837   0.645   5.519
10790WAT     H232613   8.802   0.488   5.549
10791WAT      O32614   3.230   8.564   1.290
10791WAT     H132615   3.166   8.559   1.367
10791WAT     H232616   3.293   8.641   1.304
10792WAT      O32617   7.736   4.419   6.395
10792WAT     H132618   7.792   4.464   6.325
10792WAT     H232619   7.641   4.449   6.386
10793WAT      O32620   0.019   5.345   1.911
10793WAT     H132621   0.053   5.379   1.998
10793WAT     H232622  -0.034   5.262   1.925
10794WAT      O32623   3.707   5.562   8.892
10794WAT     H132624   3.627   5.613   8.922
10794WAT     H232625   3.752   5.611   8.817
10795WAT      O32626   8.364   0.584   1.424
10795WAT     H132627   8.436   0.651   1.408
10795WAT     H232628   8.341   0.539   1.338
10796WAT      O32629   1.342   8.616   6.775
10796WAT     H132630   1.268   8.660   6.826
10796WAT     H232631   1.396   8.685   6.727
10797WAT      O32632   3.413   8.618   5.730
10797WAT     H132633   3.501   8.665   5.735
10797WAT     H232634   3.410   8.546   5.799
10798WAT      O32635   7.976   0.135   5.256
10798WAT     H132636   8.067   0.174   5.268
10798WAT     H232637   7.920   0.196   5.201
10799WAT      O32638   2.007   7.897   5.358
10799WAT     H132639   1.978   7.805   5.330
10799WAT     H232640   2.011   7.901   5.458
10800WAT      O32641   9.791   8.294   1.079
10800WAT     H132642   9.820   8.384   1.111
10800WAT     H232643   9.845   8.269   0.998
10801WAT      O32644   2.186   3.390   8.125
10801WAT     H132645   2.165   3.295   8.103
10801WAT     H232646   2.268   3.393   8.181
10802WAT      O32647   5.697   5.923   7.326
10802WAT     H132648   5.774   5.919   7.389
10802WAT     H232649   5.714   5.992   7.256
10803WAT      O32650   8.381   3.633   0.051
10803WAT     H132651   8.361   3.537   0.070
10803WAT     H232652   8.325   3.691   0.111
10804WAT      O32653   6.813   2.357   5.085
10804WAT     H132654   6.762   2.274   5.106
10804WAT     H232655   6.750   2.434   5.081
10805WAT      O32656   8.777   9.214   1.900
10805WAT     H132657   8.761   9.160   1.983
10805WAT     H232658   8.690   9.231   1.855
10806WAT      O32659   6.576   8.936   3.161
10806WAT     H132660   6.656   8.902   3.211
10806WAT     H232661   6.606   8.992   3.085
10807WAT      O32662   0.656   3.281   0.535
10807WAT     H132663   0.602   3.239   0.462
10807WAT     H232664   0.754   3.270   0.514
10808WAT      O32665   3.284   7.636   5.604
10808WAT     H132666   3.296   7.736   5.604
10808WAT     H232667   3.210   7.612   5.666
10809WAT      O32668   2.754   0.842   2.859
10809WAT     H132669   2.785   0.900   2.934
10809WAT     H232670   2.752   0.747   2.888
10810WAT      O32671   7.672   6.097   8.108
10810WAT     H132672   7.653   6.077   8.204
10810WAT     H232673   7.721   6.020   8.067
10811WAT      O32674   0.921   8.794   9.537
10811WAT     H132675   0.949   8.712   9.587
10811WAT     H232676   0.959   8.790   9.444
10812WAT      O32677   1.027   7.840   1.104
10812WAT     H132678   1.041   7.918   1.164
10812WAT     H232679   1.063   7.757   1.148
10813WAT      O32680   4.712   6.345   2.973
10813WAT     H132681   4.751   6.314   2.887
10813WAT     H232682   4.612   6.345   2.967
10814WAT      O32683   7.053   1.608   8.720
10814WAT     H132684   6.986   1.548   8.763
10814WAT     H232685   7.028   1.622   8.624
10815WAT      O32686   8.472   9.254   4.104
10815WAT     H132687   8.560   9.206   4.110
10815WAT     H232688   8.411   9.220   4.176
10816WAT      O32689   5.791   6.298   6.526
10816WAT     H132690   5.782   6.206   6.565
10816WAT     H232691   5.737   6.303   6.442
10817WAT      O32692   9.536   1.949   4.532
10817WAT     H132693   9.591   1.999   4.465
10817WAT     H232694   9.484   1.878   4.485
10818WAT      O32695   3.709   4.009   6.606
10818WAT     H132696   3.799   4.016   6.650
10818WAT     H232697   3.645   4.071   6.652
10819WAT      O32698   4.701   2.742   7.203
10819WAT     H132699   4.721   2.644   7.196
10819WAT     H232700   4.746   2.790   7.128
10820WAT      O32701   2.184   4.378   9.821
10820WAT     H132702   2.191   4.297   9.764
10820WAT     H232703   2.226   4.456   9.775
10821WAT      O32704   2.703   0.210   3.793
10821WAT     H132705   2.754   0.209   3.879
10821WAT     H232706   2.729   0.291   3.740
10822WAT      O32707   4.308   8.861   0.817
10822WAT     H132708   4.365   8.931   0.774
10822WAT     H232709   4.308   8.874   0.916
10823WAT      O32710   3.540   9.259   8.778
10823WAT     H132711   3.497   9.329   8.835
10823WAT     H232712   3.639   9.261   8.792
10824WAT      O32713   3.858   5.088   3.561
10824WAT     H132714   3.841   5.154   3.634
10824WAT     H232715   3.948   5.047   3.575
10825WAT      O32716   7.697   0.291   4.876
10825WAT     H132717   7.756   0.211   4.883
10825WAT     H232718   7.717   0.341   4.792
10826WAT      O32719   9.502   2.363   2.404
10826WAT     H132720   9.533   2.407   2.488
10826WAT     H232721   9.537   2.413   2.325
10827WAT      O32722   8.727   4.023   9.882
10827WAT     H132723   8.642   4.072   9.863
10827WAT     H232724   8.708   3.944   9.941
10828WAT      O32725   2.508   1.188   3.195
10828WAT     H132726   2.495   1.223   3.103
10828WAT     H232727   2.427   1.210   3.251
10829WAT      O32728   0.833   0.797   6.087
10829WAT     H132729   0.800   0.702   6.082
10829WAT     H232730   0.926   0.801   6.051
10830WAT      O32731   6.093   0.357   6.054
10830WAT     H132732   6.046   0.445   6.044
10830WAT     H232733   6.027   0.287   6.082
10831WAT      O32734   1.079   2.563   1.225
10831WAT     H132735   1.143   2.573   1.301
10831WAT     H232736   1.021   2.484   1.240
10832WAT      O32737   6.098   3.655   2.174
10832WAT     H132738   6.000   3.671   2.188
10832WAT     H232739   6.149   3.687   2.254
10833WAT      O32740   5.336   0.543   7.096
10833WAT     H132741   5.398   0.622   7.089
10833WAT     H232742   5.274   0.556   7.173
10834WAT      O32743   9.748   6.331   3.191
10834WAT     H132744   9.795   6.263   3.134
10834WAT     H232745   9.725   6.410   3.134
10835WAT      O32746   0.260   6.545   2.566
10835WAT     H132747   0.247   6.614   2.637
10835WAT     H232748   0.240   6.585   2.476
10836WAT      O32749   6.129   5.352   2.729
10836WAT     H132750   6.196   5.365   2.802
10836WAT     H232751   6.174   5.313   2.649
10837WAT      O32752   0.772   1.836   4.511
10837WAT     H132753   0.865   1.801   4.501
10837WAT     H232754   0.734   1.806   4.598
10838WAT      O32755   1.175   4.699   6.889
10838WAT     H132756   1.249   4.635   6.911
10838WAT     H232757   1.158   4.699   6.790
10839WAT      O32758   6.136   1.267   2.847
10839WAT     H132759   6.092   1.227   2.927
10839WAT     H232760   6.096   1.228   2.764
10840WAT      O32761   2.621   1.081   2.335
10840WAT     H132762   2.634   1.099   2.433
10840WAT     H232763   2.605   1.168   2.288
10841WAT      O32764   9.154   4.720   8.123
10841WAT     H132765   9.196   4.776   8.195
10841WAT     H232766   9.103   4.779   8.061
10842WAT      O32767   3.448   0.673   3.456
10842WAT     H132768   3.523   0.734   3.484
10842WAT     H232769   3.456   0.586   3.504
10843WAT      O32770   1.409   2.517   0.676
10843WAT     H132771   1.317   2.479   0.684
10843WAT     H232772   1.460   2.463   0.609
10844WAT      O32773   0.058   6.236   5.703
10844WAT     H132774   0.033   6.222   5.799
10844WAT     H232775   0.008   6.315   5.666
10845WAT      O32776   0.615   4.640   9.621
10845WAT     H132777   0.616   4.622   9.522
10845WAT     H232778   0.522   4.665   9.649
10846WAT      O32779   8.292   0.551   1.116
10846WAT     H132780   8.194   0.538   1.099
10846WAT     H232781   8.343   0.532   1.033
10847WAT      O32782   6.564   3.467   1.429
10847WAT     H132783   6.607   3.502   1.345
10847WAT     H232784   6.632   3.464   1.502
10848WAT      O32785   5.851   9.586   5.152
10848WAT     H132786   5.946   9.591   5.119
10848WAT     H232787   5.817   9.493   5.141
10849WAT      O32788   8.245   7.244   2.277
10849WAT     H132789   8.272   7.275   2.186
10849WAT     H232790   8.180   7.169   2.268
10850WAT      O32791   3.962   5.187   5.039
10850WAT     H132792   4.026   5.177   5.115
10850WAT     H232793   3.941   5.097   5.000
10851WAT      O32794   2.878   5.905   3.027
10851WAT     H132795   2.825   5.986   3.048
10851WAT     H232796   2.955   5.930   2.968
10852WAT      O32797   2.227   8.060   4.675
10852WAT     H132798   2.138   8.016   4.665
10852WAT     H232799   2.287   8.031   4.601
10853WAT      O32800   6.370   9.225   2.490
10853WAT     H132801   6.419   9.310   2.467
10853WAT     H232802   6.434   9.161   2.532
10854WAT      O32803   1.034   4.990   6.819
10854WAT     H132804   1.134   4.995   6.829
10854WAT     H232805   0.998   5.082   6.807
10855WAT      O32806   9.029   9.813   2.239
10855WAT     H132807   8.992   9.756   2.312
10855WAT     H232808   9.024   9.764   2.152
10856WAT      O32809   1.326   0.549   5.555
10856WAT     H132810   1.239   0.503   5.576
10856WAT     H232811   1.343   0.620   5.624
10857WAT      O32812   4.834   3.708   2.238
10857WAT     H132813   4.781   3.703   2.322
10857WAT     H232814   4.931   3.714   2.260
10858WAT      O32815   7.746   5.213   7.913
10858WAT     H132816   7.659   5.202   7.865
10858WAT     H232817   7.768   5.128   7.962
10859WAT      O32818   1.297   0.500   2.201
10859WAT     H132819   1.257   0.551   2.277
10859WAT     H232820   1.381   0.456   2.233
10860WAT      O32821   9.634   2.743   3.506
10860WAT     H132822   9.543   2.701   3.509
10860WAT     H232823   9.635   2.824   3.564
10861WAT      O32824   8.975   0.416   4.895
10861WAT     H132825   9.013   0.348   4.958
10861WAT     H232826   9.000   0.392   4.801
10862WAT      O32827   2.844   6.579   9.421
10862WAT     H132828   2.759   6.529   9.438
10862WAT     H232829   2.912   6.552   9.488
10863WAT      O32830   5.296   3.609   7.444
10863WAT     H132831   5.338   3.604   7.353
10863WAT     H232832   5.354   3.560   7.509
10864WAT      O32833   7.814   5.583   1.152
10864WAT     H132834   7.913   5.568   1.139
10864WAT     H232835   7.764   5.509   1.106
10865WAT      O32836   8.424   1.170   9.389
10865WAT     H132837   8.449   1.200   9.481
10865WAT     H232838   8.473   1.225   9.322
10866WAT      O32839   4.422   5.136   5.116
10866WAT     H132840   4.369   5.209   5.072
10866WAT     H232841   4.398   5.130   5.212
10867WAT      O32842   8.017   8.633   0.935
10867WAT     H132843   7.918   8.623   0.926
10867WAT     H232844   8.057   8.653   0.846
10868WAT      O32845   8.966   5.030   0.703
10868WAT     H132846   8.988   4.945   0.656
10868WAT     H232847   9.042   5.057   0.762
10869WAT      O32848   5.038   0.910   6.595
10869WAT     H132849   4.943   0.881   6.602
10869WAT     H232850   5.042   1.005   6.562
10870WAT      O32851   0.607   8.932   9.304
10870WAT     H132852   0.571   9.023   9.325
10870WAT     H232853   0.619   8.881   9.389
10871WAT      O32854   3.719   1.764   1.305
10871WAT     H132855   3.685   1.764   1.211
10871WAT     H232856   3.819   1.760   1.304
10872WAT      O32857   0.407   5.810   5.670
10872WAT     H132858   0.476   5.752   5.627
10872WAT     H232859   0.450   5.890   5.711
10873WAT      O32860   5.660   6.291   3.726
10873WAT     H132861   5.737   6.227   3.728
10873WAT     H232862   5.575   6.242   3.746
10874WAT      O32863   1.204   9.144   1.605
10874WAT     H132864   1.260   9.205   1.549
10874WAT     H232865   1.108   9.155   1.580
10875WAT      O32866   4.988   6.989   4.107
10875WAT     H132867   5.066   7.045   4.136
10875WAT     H232868   4.904   7.026   4.146
10876WAT      O32869   6.997   1.178   5.887
10876WAT     H132870   6.999   1.274   5.915
10876WAT     H232871   7.066   1.127   5.938
10877WAT      O32872   1.035   2.690   3.003
10877WAT     H132873   1.073   2.681   2.911
10877WAT     H232874   1.052   2.783   3.037
10878WAT      O32875   4.499   9.440   5.723
10878WAT     H132876   4.556   9.497   5.782
10878WAT     H232877   4.474   9.491   5.641
10879WAT      O32878   6.980   3.916   5.873
10879WAT     H132879   6.928   3.991   5.914
10879WAT     H232880   6.918   3.840   5.853
10880WAT      O32881   6.221   0.371   3.515
10880WAT     H132882   6.243   0.400   3.608
10880WAT     H232883   6.215   0.272   3.510
10881WAT      O32884   9.347   9.118   8.248
10881WAT     H132885   9.365   9.022   8.267
10881WAT     H232886   9.282   9.153   8.316
10882WAT      O32887   7.162   5.757   6.805
10882WAT     H132888   7.146   5.715   6.895
10882WAT     H232889   7.128   5.696   6.733
10883WAT      O32890   0.018   9.564   2.691
10883WAT     H132891  -0.024   9.493   2.634
10883WAT     H232892  -0.030   9.651   2.676
10884WAT      O32893   3.331   8.839   9.456
10884WAT     H132894   3.389   8.772   9.409
10884WAT     H232895   3.387   8.891   9.521
10885WAT      O32896   2.323   5.352   7.353
10885WAT     H132897   2.352   5.400   7.436
10885WAT     H232898   2.335   5.412   7.274
10886WAT      O32899   8.459   5.656   5.155
10886WAT     H132900   8.520   5.611   5.220
10886WAT     H232901   8.364   5.640   5.181
10887WAT      O32902   5.838   6.054   0.254
10887WAT     H132903   5.775   6.093   0.186
10887WAT     H232904   5.857   6.122   0.325
10888WAT      O32905   2.353   1.407   4.398
10888WAT     H132906   2.400   1.392   4.485
10888WAT     H232907   2.256   1.422   4.415
10889WAT      O32908   3.118   5.520   4.786
10889WAT     H132909   3.044   5.491   4.846
10889WAT     H232910   3.088   5.597   4.729
10890WAT      O32911   2.869   3.948   0.102
10890WAT     H132912   2.841   3.971   0.196
10890WAT     H232913   2.884   4.033   0.051
10891WAT      O32914   7.053   5.969   0.552
10891WAT     H132915   7.128   5.909   0.525
10891WAT     H232916   7.067   5.999   0.647
10892WAT      O32917   2.127   8.690   3.434
10892WAT     H132918   2.118   8.595   3.462
10892WAT     H232919   2.052   8.744   3.473
10893WAT      O32920   2.754   1.628   3.658
10893WAT     H132921   2.661   1.666   3.650
10893WAT     H232922   2.750   1.528   3.653
10894WAT      O32923   2.598   8.303   0.267
10894WAT     H132924   2.687   8.334   0.303
10894WAT     H232925   2.608   8.211   0.231
10895WAT      O32926   2.175   2.619   6.302
10895WAT     H132927   2.085   2.649   6.269
10895WAT     H232928   2.216   2.557   6.235
10896WAT      O32929   0.078   0.166   4.077
10896WAT     H132930   0.060   0.243   4.139
10896WAT     H232931   0.172   0.135   4.087
10897WAT      O32932   5.246   0.489   1.780
10897WAT     H132933   5.255   0.569   1.722
10897WAT     H232934   5.149   0.469   1.796
10898WAT      O32935   5.487   3.590   5.075
10898WAT     H132936   5.479   3.576   5.173
10898WAT     H232937   5.400   3.622   5.038
10899WAT      O32938   9.717   8.145   1.339
10899WAT     H132939   9.644   8.077   1.331
10899WAT     H232940   9.724   8.196   1.253
10900WAT      O32941   8.059   6.504   5.863
10900WAT     H132942   8.039   6.574   5.932
10900WAT     H232943   7.981   6.494   5.802
10901WAT      O32944   7.705   8.505   4.405
10901WAT     H132945   7.608   8.495   4.425
10901WAT     H232946   7.759   8.454   4.472
10902WAT      O32947   7.913   2.719   7.764
10902WAT     H132948   7.934   2.646   7.699
10902WAT     H232949   7.824   2.759   7.740
10903WAT      O32950   0.648   6.566   5.799
10903WAT     H132951   0.704   6.597   5.876
10903WAT     H232952   0.674   6.473   5.774
10904WAT      O32953   5.114   5.682   3.170
10904WAT     H132954   5.211   5.705   3.161
10904WAT     H232955   5.104   5.602   3.229
10905WAT      O32956   8.854   9.074   5.027
10905WAT     H132957   8.784   9.006   5.045
10905WAT     H232958   8.930   9.031   4.978
10906WAT      O32959   7.777   2.011   9.705
10906WAT     H132960   7.713   1.936   9.690
10906WAT     H232961   7.727   2.091   9.740
10907WAT      O32962   3.104   6.192   1.675
10907WAT     H132963   3.165   6.130   1.726
10907WAT     H232964   3.013   6.152   1.670
10908WAT      O32965   3.489   6.633   6.306
10908WAT     H132966   3.480   6.699   6.232
10908WAT     H232967   3.516   6.544   6.269
10909WAT      O32968   7.790   0.179   8.100
10909WAT     H132969   7.834   0.183   8.010
10909WAT     H232970   7.719   0.249   8.105
10910WAT      O32971   5.985   4.730   0.037
10910WAT     H132972   6.030   4.641   0.043
10910WAT     H232973   5.895   4.724   0.081
10911WAT      O32974   1.206   6.534   3.486
10911WAT     H132975   1.289   6.590   3.490
10911WAT     H232976   1.210   6.465   3.558
10912WAT      O32977   6.097   2.034   2.058
10912WAT     H132978   6.032   1.981   2.112
10912WAT     H232979   6.185   2.036   2.105
10913WAT      O32980   8.887   4.368   5.936
10913WAT     H132981   8.804   4.315   5.954
10913WAT     H232982   8.951   4.355   6.011
10914WAT      O32983   1.334   7.423   5.910
10914WAT     H132984   1.251   7.389   5.867
10914WAT     H232985   1.353   7.516   5.878
10915WAT      O32986   3.465   2.383   0.347
10915WAT     H132987   3.440   2.438   0.427
10915WAT     H232988   3.449   2.436   0.264
10916WAT      O32989   1.289   5.661   2.355
10916WAT     H132990   1.249   5.738   2.405
10916WAT     H232991   1.329   5.596   2.419
10917WAT      O32992   2.536   1.988   3.391
10917WAT     H132993   2.514   1.923   3.463
10917WAT     H232994   2.636   1.997   3.383
10918WAT      O32995   7.852   0.677   4.182
10918WAT     H132996   7.861   0.651   4.085
10918WAT     H232997   7.919   0.748   4.203
10919WAT      O32998   6.804   4.815   5.156
10919WAT     H132999   6.726   4.817   5.094
10919WAT     H233000   6.774   4.782   5.246
10920WAT      O33001   0.204   6.639   2.293
10920WAT     H133002   0.198   6.725   2.243
10920WAT     H233003   0.174   6.564   2.233
10921WAT      O33004   2.092   4.116   3.608
10921WAT     H133005   2.190   4.100   3.594
10921WAT     H233006   2.078   4.209   3.641
10922WAT      O33007   8.128   0.823   1.692
10922WAT     H133008   8.165   0.898   1.746
10922WAT     H233009   8.094   0.859   1.604
10923WAT      O33010   6.018   0.561   2.282
10923WAT     H133011   5.948   0.489   2.285
10923WAT     H233012   5.978   0.644   2.244
10924WAT      O33013   9.638   8.462   3.118
10924WAT     H133014   9.598   8.547   3.083
10924WAT     H233015   9.734   8.478   3.141
10925WAT      O33016   4.371   1.646   4.975
10925WAT     H133017   4.316   1.568   5.003
10925WAT     H233018   4.391   1.703   5.055
10926WAT      O33019   8.927   7.321   5.856
10926WAT     H133020   8.953   7.385   5.784
10926WAT     H233021   8.994   7.247   5.861
10927WAT      O33022   3.486   6.213   1.757
10927WAT     H133023   3.447   6.297   1.794
10927WAT     H233024   3.417   6.141   1.757
10928WAT      O33025   0.246   8.544   3.513
10928WAT     H133026   0.288   8.564   3.601
10928WAT     H233027   0.230   8.630   3.464
10929WAT      O33028   8.728   1.020   9.385
10929WAT     H133029   8.762   1.084   9.453
10929WAT     H233030   8.657   0.963   9.425
10930WAT      O33031   5.106   7.140   0.313
10930WAT     H133032   5.064   7.050   0.317
10930WAT     H233033   5.082   7.185   0.227
10931WAT      O33034   5.172   7.159   4.842
10931WAT     H133035   5.218   7.170   4.930
10931WAT     H233036   5.102   7.088   4.850
10932WAT      O33037   2.360   9.519   1.647
10932WAT     H133038   2.445   9.558   1.684
10932WAT     H233039   2.380   9.433   1.600
10933WAT      O33040   8.897   8.899   2.294
10933WAT     H133041   8.994   8.904   2.316
10933WAT     H233042   8.851   8.838   2.359
10934WAT      O33043   3.524   5.621   0.234
10934WAT     H133044   3.466   5.589   0.309
10934WAT     H233045   3.504   5.717   0.215
10935WAT      O33046   5.663   5.913   9.782
10935WAT     H133047   5.624   5.992   9.830
10935WAT     H233048   5.628   5.829   9.824
10936WAT      O33049   6.570   6.878   9.318
10936WAT     H133050   6.643   6.874   9.387
10936WAT     H233051   6.501   6.808   9.338
10937WAT      O33052   9.671   2.561   6.780
10937WAT     H133053   9.737   2.487   6.766
10937WAT     H233054   9.642   2.597   6.691
10938WAT      O33055   2.664   8.829   3.593
10938WAT     H133056   2.663   8.759   3.522
10938WAT     H233057   2.721   8.906   3.563
10939WAT      O33058   5.034   9.125   5.205
10939WAT     H133059   5.095   9.177   5.145
10939WAT     H233060   5.071   9.033   5.219
10940WAT      O33061   8.033   4.041   9.365
10940WAT     H133062   8.119   4.092   9.366
10940WAT     H233063   7.965   4.088   9.421
10941WAT      O33064   6.814   6.433   2.937
10941WAT     H133065   6.773   6.342   2.925
10941WAT     H233066   6.779   6.475   3.020
10942WAT      O33067   8.721   1.844   9.881
10942WAT     H133068   8.731   1.779   9.806
10942WAT     H233069   8.722   1.795   9.968
10943WAT      O33070   3.999   0.253   7.873
10943WAT     H133071   3.966   0.329   7.928
10943WAT     H233072   3.987   0.167   7.923
10944WAT      O33073   9.221   7.253   5.656
10944WAT     H133074   9.156   7.196   5.605
10944WAT     H233075   9.171   7.320   5.710
10945WAT      O33076   7.029   9.130   0.339
10945WAT     H133077   6.935   9.133   0.372
10945WAT     H233078   7.048   9.041   0.298
10946WAT      O33079   9.611   2.460   2.629
10946WAT     H133080   9.556   2.422   2.703
10946WAT     H233081   9.686   2.514   2.667
10947WAT      O33082   7.037   2.872   4.811
10947WAT     H133083   7.123   2.923   4.810
10947WAT     H233084   6.975   2.909   4.742
10948WAT      O33085   7.334   0.072   0.140
10948WAT     H133086   7.234   0.070   0.153
10948WAT     H233087   7.374   0.142   0.199
10949WAT      O33088   1.387   9.412   6.232
10949WAT     H133089   1.304   9.420   6.176
10949WAT     H233090   1.361   9.383   6.325
10950WAT      O33091   9.253   7.631   1.877
10950WAT     H133092   9.270   7.728   1.899
10950WAT     H233093   9.202   7.625   1.791
10951WAT      O33094   9.555   0.527   0.845
10951WAT     H133095   9.487   0.601   0.842
10951WAT     H233096   9.507   0.439   0.842
10952WAT      O33097   5.357   4.542   3.327
10952WAT     H133098   5.404   4.617   3.282
10952WAT     H233099   5.259   4.550   3.312
10953WAT      O33100   3.712   6.680   1.692
10953WAT     H133101   3.729   6.597   1.638
10953WAT     H233102   3.690   6.654   1.786
10954WAT      O33103   3.135   0.687   2.253
10954WAT     H133104   3.183   0.766   2.290
10954WAT     H233105   3.038   0.709   2.242
10955WAT      O33106   5.032   4.641   5.036
10955WAT     H133107   5.004   4.693   4.956
10955WAT     H233108   5.029   4.700   5.117
10956WAT      O33109   5.480   7.360   3.937
10956WAT     H133110   5.397   7.391   3.984
10956WAT     H233111   5.459   7.279   3.882
10957WAT      O33112   1.589   4.468   7.363
10957WAT     H133113   1.531   4.386   7.360
10957WAT     H233114   1.619   4.491   7.270
10958WAT      O33115   9.239   6.240   9.325
10958WAT     H133116   9.245   6.305   9.401
10958WAT     H233117   9.307   6.264   9.255
10959WAT      O33118   5.116   3.986   5.788
10959WAT     H133119   5.018   4.003   5.782
10959WAT     H233120   5.137   3.897   5.748
10960WAT      O33121   6.590   3.054   6.060
10960WAT     H133122   6.684   3.084   6.076
10960WAT     H233123   6.527   3.120   6.101
10961WAT      O33124   4.980   4.368   3.702
10961WAT     H133125   4.888   4.330   3.713
10961WAT     H233126   4.979   4.465   3.727
10962WAT      O33127   4.092   8.377   4.087
10962WAT     H133128   4.068   8.445   4.017
10962WAT     H233129   4.107   8.422   4.174
10963WAT      O33130   0.420   4.966   8.960
10963WAT     H133131   0.511   4.949   8.998
10963WAT     H233132   0.429   5.013   8.872
10964WAT      O33133   2.993   0.235   1.060
10964WAT     H133134   2.901   0.197   1.052
10964WAT     H233135   2.989   0.321   1.110
10965WAT      O33136   1.059   7.095   1.634
10965WAT     H133137   1.093   7.059   1.721
10965WAT     H233138   1.128   7.156   1.595
10966WAT      O33139   7.470   2.445   7.168
10966WAT     H133140   7.478   2.458   7.070
10966WAT     H233141   7.549   2.486   7.214
10967WAT      O33142   8.314   1.316   0.543
10967WAT     H133143   8.256   1.370   0.604
10967WAT     H233144   8.261   1.241   0.503
10968WAT      O33145   9.647   5.553   7.400
10968WAT     H133146   9.650   5.549   7.301
10968WAT     H233147   9.715   5.618   7.433
10969WAT      O33148   5.297   1.298   8.995
10969WAT     H133149   5.249   1.355   9.062
10969WAT     H233150   5.348   1.356   8.931
10970WAT      O33151   7.043   5.691   3.026
10970WAT     H133152   6.982   5.613   3.017
10970WAT     H233153   7.118   5.668   3.089
10971WAT      O33154   6.773   4.765   1.730
10971WAT     H133155   6.708   4.746   1.804
10971WAT     H233156   6.847   4.698   1.734
10972WAT      O33157   1.436   0.726   1.020
10972WAT     H133158   1.424   0.789   0.943
10972WAT     H233159   1.532   0.699   1.027
10973WAT      O33160   4.968   2.223   4.643
10973WAT     H133161   5.000   2.165   4.718
10973WAT     H233162   4.896   2.284   4.676
10974WAT      O33163   1.727   2.275   8.257
10974WAT     H133164   1.747   2.207   8.186
10974WAT     H233165   1.680   2.353   8.217
10975WAT      O33166   7.318   8.795   1.642
10975WAT     H133167   7.349   8.841   1.558
10975WAT     H233168   7.320   8.696   1.628
10976WAT      O33169   9.551   5.741   4.280
10976WAT     H133170   9.596   5.821   4.322
10976WAT     H233171   9.502   5.690   4.351
10977WAT      O33172   8.129   3.266   2.979
10977WAT     H133173   8.144   3.219   3.066
10977WAT     H233174   8.210   3.319   2.955
10978WAT      O33175   6.684   5.997   7.482
10978WAT     H133176   6.601   6.049   7.505
10978WAT     H233177   6.661   5.926   7.416
10979WAT      O33178   7.274   7.043   0.365
10979WAT     H133179   7.236   7.091   0.285
10979WAT     H233180   7.372   7.032   0.353
10980WAT      O33181   6.406   6.097   9.795
10980WAT     H133182   6.498   6.128   9.768
10980WAT     H233183   6.414   6.029   9.868
10981WAT      O33184   8.162   1.500   5.092
10981WAT     H133185   8.249   1.468   5.129
10981WAT     H233186   8.087   1.465   5.148
10982WAT      O33187   4.976   0.895   0.117
10982WAT     H133188   5.020   0.830   0.055
10982WAT     H233189   4.882   0.866   0.134
10983WAT      O33190   0.589   4.042   4.006
10983WAT     H133191   0.596   4.133   4.045
10983WAT     H233192   0.610   3.973   4.076
10984WAT      O33193   6.376   1.028   9.820
10984WAT     H133194   6.291   0.991   9.857
10984WAT     H233195   6.449   1.018   9.888
10985WAT      O33196   6.787   3.756   5.737
10985WAT     H133197   6.787   3.835   5.676
10985WAT     H233198   6.710   3.762   5.800
10986WAT      O33199   5.066   8.683   3.604
10986WAT     H133200   4.989   8.748   3.607
10986WAT     H233201   5.147   8.726   3.642
10987WAT      O33202   5.842   9.604   8.598
10987WAT     H133203   5.845   9.585   8.500
10987WAT     H233204   5.879   9.695   8.616
10988WAT      O33205   7.874   0.575   2.424
10988WAT     H133206   7.863   0.636   2.502
10988WAT     H233207   7.809   0.600   2.352
10989WAT      O33208   0.428   2.754   4.413
10989WAT     H133209   0.522   2.756   4.447
10989WAT     H233210   0.407   2.841   4.368
10990WAT      O33211   7.452   6.241   0.104
10990WAT     H133212   7.494   6.189   0.030
10990WAT     H233213   7.508   6.233   0.186
10991WAT      O33214   6.815   3.440   2.401
10991WAT     H133215   6.736   3.437   2.461
10991WAT     H233216   6.899   3.427   2.454
10992WAT      O33217   8.464   4.448   6.553
10992WAT     H133218   8.368   4.435   6.530
10992WAT     H233219   8.498   4.532   6.511
10993WAT      O33220   4.785   0.757   7.974
10993WAT     H133221   4.784   0.856   7.990
10993WAT     H233222   4.701   0.731   7.926
10994WAT      O33223   7.848   4.572   4.881
10994WAT     H133224   7.898   4.632   4.944
10994WAT     H233225   7.808   4.627   4.808
10995WAT      O33226   0.333   8.089   2.202
10995WAT     H133227   0.355   8.040   2.286
10995WAT     H233228   0.403   8.072   2.133
10996WAT      O33229   4.305   0.858   7.751
10996WAT     H133230   4.295   0.764   7.719
10996WAT     H233231   4.215   0.902   7.755
10997WAT      O33232   1.736   6.107   9.581
10997WAT     H133233   1.807   6.118   9.650
10997WAT     H233234   1.734   6.011   9.550
10998WAT      O33235   8.203   3.677   7.310
10998WAT     H133236   8.154   3.591   7.323
10998WAT     H233237   8.225   3.716   7.399
10999WAT      O33238   3.207   9.505   9.172
10999WAT     H133239   3.238   9.589   9.128
10999WAT     H233240   3.150   9.453   9.108
11000WAT      O33241   5.346   8.083   0.310
11000WAT     H133242   5.249   8.087   0.285
11000WAT     H233243   5.379   7.989   0.303
11001WAT      O33244   5.150   8.518   3.086
11001WAT     H133245   5.070   8.575   3.106
11001WAT     H233246   5.146   8.488   2.991
11002WAT      O33247   4.984   2.012   4.869
11002WAT     H133248   4.901   2.065   4.887
11002WAT     H233249   5.027   1.987   4.956
11003WAT      O33250   6.953   7.844   6.923
11003WAT     H133251   6.911   7.887   7.003
11003WAT     H233252   7.028   7.901   6.890
11004WAT      O33253   1.034   3.987   2.804
11004WAT     H133254   1.082   3.959   2.721
11004WAT     H233255   1.035   4.087   2.811
11005WAT      O33256   4.265   3.966   1.319
11005WAT     H133257   4.344   3.967   1.257
11005WAT     H233258   4.257   3.876   1.362
11006WAT      O33259   7.219   7.251   0.200
11006WAT     H133260   7.222   7.336   0.253
11006WAT     H233261   7.143   7.255   0.136
11007WAT      O33262   1.967   7.381   2.187
11007WAT     H133263   1.992   7.330   2.270
11007WAT     H233264   2.008   7.472   2.191
11008WAT      O33265   5.321   7.878   1.822
11008WAT     H133266   5.397   7.821   1.852
11008WAT     H233267   5.356   7.958   1.774
11009WAT      O33268   0.784   1.948   0.323
11009WAT     H133269   0.857   2.000   0.367
11009WAT     H233270   0.812   1.922   0.231
11010WAT      O33271   5.284   7.841   6.598
11010WAT     H133272   5.221   7.831   6.675
11010WAT     H233273   5.232   7.841   6.512
11011WAT      O33274   6.213   4.269   5.273
11011WAT     H133275   6.142   4.339   5.264
11011WAT     H233276   6.303   4.312   5.269
11012WAT      O33277   1.413   0.020   6.427
11012WAT     H133278   1.371  -0.070   6.444
11012WAT     H233279   1.377   0.057   6.342
11013WAT      O33280   4.376   5.871   1.214
11013WAT     H133281   4.432   5.791   1.191
11013WAT     H233282   4.316   5.848   1.291
11014WAT      O33283   5.977   2.385   5.208
11014WAT     H133284   6.053   2.424   5.260
11014WAT     H233285   6.007   2.365   5.115
11015WAT      O33286   3.874   5.167   1.743
11015WAT     H133287   3.968   5.152   1.775
11015WAT     H233288   3.868   5.150   1.645
11016WAT      O33289   6.774   4.602   7.808
11016WAT     H133290   6.825   4.556   7.880
11016WAT     H233291   6.782   4.701   7.818
11017WAT      O33292   1.658   1.078   1.832
11017WAT     H133293   1.745   1.068   1.880
11017WAT     H233294   1.675   1.112   1.739
11018WAT      O33295   0.886   8.012   2.980
11018WAT     H133296   0.900   8.082   3.050
11018WAT     H233297   0.853   7.928   3.023
11019WAT      O33298   3.651   0.844   3.547
11019WAT     H133299   3.669   0.939   3.520
11019WAT     H233300   3.689   0.827   3.637
11020WAT      O33301   1.181   7.821   3.762
11020WAT     H133302   1.226   7.907   3.785
11020WAT     H233303   1.154   7.774   3.846
11021WAT      O33304   5.056   8.129   6.312
11021WAT     H133305   4.984   8.152   6.377
11021WAT     H233306   5.071   8.206   6.250
11022WAT      O33307   6.186   0.334   7.474
11022WAT     H133308   6.194   0.269   7.399
11022WAT     H233309   6.122   0.407   7.449
11023WAT      O33310   6.930   4.438   0.822
11023WAT     H133311   7.027   4.431   0.800
11023WAT     H233312   6.918   4.449   0.921
11024WAT      O33313   9.559   0.669   8.536
11024WAT     H133314   9.570   0.618   8.450
11024WAT     H233315   9.557   0.604   8.612
11025WAT      O33316   2.981   8.618   8.509
11025WAT     H133317   3.046   8.544   8.489
11025WAT     H233318   3.016   8.673   8.585
11026WAT      O33319   6.858   8.387   9.811
11026WAT     H133320   6.939   8.333   9.788
11026WAT     H233321   6.826   8.362   9.902
11027WAT      O33322   6.055   4.904   5.273
11027WAT     H133323   6.026   4.844   5.199
11027WAT     H233324   6.149   4.882   5.300
11028WAT      O33325   8.499   9.196   6.472
11028WAT     H133326   8.466   9.135   6.544
11028WAT     H233327   8.424   9.219   6.410
11029WAT      O33328   3.099   7.274   5.909
11029WAT     H133329   3.179   7.253   5.964
11029WAT     H233330   3.091   7.373   5.897
11030WAT      O33331   1.023   9.485   6.785
11030WAT     H133332   1.069   9.413   6.837
11030WAT     H233333   0.937   9.449   6.747
11031WAT      O33334   5.397   4.142   6.390
11031WAT     H133335   5.345   4.226   6.410
11031WAT     H233336   5.402   4.129   6.290
11032WAT      O33337   0.734   2.363   1.540
11032WAT     H133338   0.783   2.312   1.469
11032WAT     H233339   0.723   2.458   1.511
11033WAT      O33340   8.347   9.352   5.840
11033WAT     H133341   8.340   9.416   5.916
11033WAT     H233342   8.311   9.395   5.757
11034WAT      O33343   4.403   6.347   6.337
11034WAT     H133344   4.406   6.302   6.426
11034WAT     H233345   4.495   6.351   6.298
11035WAT      O33346   8.676   1.023   4.317
11035WAT     H133347   8.740   0.947   4.320
11035WAT     H233348   8.681   1.074   4.404
11036WAT      O33349   0.985   3.995   8.526
11036WAT     H133350   1.019   3.905   8.500
11036WAT     H233351   0.962   4.047   8.443
11037WAT      O33352   8.905   3.148   9.459
11037WAT     H133353   8.949   3.064   9.490
11037WAT     H233354   8.963   3.226   9.481
11038WAT      O33355   4.065   7.176   3.053
11038WAT     H133356   3.980   7.135   3.020
11038WAT     H233357   4.121   7.105   3.097
11039WAT      O33358   4.006   7.359   9.160
11039WAT     H133359   4.080   7.419   9.128
11039WAT     H233360   3.940   7.346   9.086
11040WAT      O33361   7.720   0.585   5.270
11040WAT     H133362   7.775   0.557   5.349
11040WAT     H233363   7.637   0.529   5.266
11041WAT      O33364   2.392   5.084   0.489
11041WAT     H133365   2.303   5.038   0.489
11041WAT     H233366   2.397   5.147   0.566
11042WAT      O33367   3.292   9.653   2.640
11042WAT     H133368   3.295   9.717   2.717
11042WAT     H233369   3.307   9.560   2.673
11043WAT      O33370   2.649   0.406   8.602
11043WAT     H133371   2.726   0.461   8.569
11043WAT     H233372   2.683   0.319   8.638
11044WAT      O33373   2.773   8.963   8.537
11044WAT     H133374   2.806   8.925   8.451
11044WAT     H233375   2.817   8.917   8.613
11045WAT      O33376   3.073   3.224   6.135
11045WAT     H133377   3.021   3.139   6.138
11045WAT     H233378   3.057   3.276   6.219
11046WAT      O33379   0.762   0.268   5.200
11046WAT     H133380   0.835   0.259   5.268
11046WAT     H233381   0.762   0.187   5.142
11047WAT      O33382   0.413   6.404   0.252
11047WAT     H133383   0.424   6.305   0.240
11047WAT     H233384   0.381   6.445   0.167
11048WAT      O33385   5.195   7.214   9.769
11048WAT     H133386   5.110   7.186   9.724
11048WAT     H233387   5.219   7.307   9.741
11049WAT      O33388   9.064   9.436   2.066
11049WAT     H133389   9.000   9.415   2.140
11049WAT     H233390   9.021   9.417   1.978
11050WAT      O33391   6.637   0.899   9.688
11050WAT     H133392   6.545   0.937   9.696
11050WAT     H233393   6.646   0.819   9.748
11051WAT      O33394   7.766   4.707   1.893
11051WAT     H133395   7.795   4.612   1.903
11051WAT     H233396   7.844   4.763   1.866
11052WAT      O33397   4.284   8.053   9.642
11052WAT     H133398   4.202   8.106   9.620
11052WAT     H233399   4.283   8.029   9.739
11053WAT      O33400   2.668   4.011   9.261
11053WAT     H133401   2.593   4.066   9.224
11053WAT     H233402   2.675   3.925   9.210
11054WAT      O33403   6.117   2.548   0.964
11054WAT     H133404   6.029   2.565   1.007
11054WAT     H233405   6.131   2.613   0.889
11055WAT      O33406   4.404   8.994   3.092
11055WAT     H133407   4.325   8.978   3.152
11055WAT     H233408   4.463   9.064   3.133
11056WAT      O33409   8.708   3.187   3.420
11056WAT     H133410   8.641   3.116   3.397
11056WAT     H233411   8.732   3.179   3.517
11057WAT      O33412   7.333   7.107   6.183
11057WAT     H133413   7.305   7.184   6.127
11057WAT     H233414   7.260   7.084   6.248
11058WAT      O33415   6.166   7.233   2.314
11058WAT     H133416   6.143   7.258   2.220
11058WAT     H233417   6.232   7.299   2.350
11059WAT      O33418   9.737   1.375   3.276
11059WAT     H133419   9.695   1.399   3.188
11059WAT     H233420   9.829   1.415   3.281
11060WAT      O33421   7.815   0.830   1.716
11060WAT     H133422   7.887   0.782   1.766
11060WAT     H233423   7.728   0.820   1.764
11061WAT      O33424   2.815   6.386   3.185
11061WAT     H133425   2.799   6.318   3.256
11061WAT     H233426   2.892   6.445   3.212
11062WAT      O33427   7.319   7.798   0.746
11062WAT     H133428   7.302   7.896   0.732
11062WAT     H233429   7.232   7.749   0.739
11063WAT      O33430   6.389   7.585   4.429
11063WAT     H133431   6.464   7.530   4.393
11063WAT     H233432   6.396   7.590   4.529
11064WAT      O33433   6.834   9.771   3.258
11064WAT     H133434   6.857   9.682   3.296
11064WAT     H233435   6.849   9.842   3.327
11065WAT      O33436   3.649   3.762   0.194
11065WAT     H133437   3.719   3.818   0.238
11065WAT     H233438   3.561   3.808   0.202
11066WAT      O33439   4.072   4.449   5.146
11066WAT     H133440   4.081   4.349   5.138
11066WAT     H233441   4.147   4.493   5.096
11067WAT      O33442   7.141   6.107   7.305
11067WAT     H133443   7.226   6.139   7.345
11067WAT     H233444   7.065   6.164   7.338
11068WAT      O33445   9.017   3.968   8.533
11068WAT     H133446   9.046   3.980   8.438
11068WAT     H233447   9.092   3.995   8.594
11069WAT      O33448   3.427   1.524   7.213
11069WAT     H133449   3.427   1.495   7.117
11069WAT     H233450   3.501   1.478   7.262
11070WAT      O33451   0.129   1.278   2.333
11070WAT     H133452   0.034   1.248   2.339
11070WAT     H233453   0.140   1.336   2.252
11071WAT      O33454   5.668   4.491   0.473
11071WAT     H133455   5.735   4.565   0.485
11071WAT     H233456   5.657   4.472   0.375
11072WAT      O33457   0.878   5.435   3.089
11072WAT     H133458   0.826   5.479   3.015
11072WAT     H233459   0.974   5.462   3.084
11073WAT      O33460   3.685   7.072   6.062
11073WAT     H133461   3.636   7.155   6.038
11073WAT     H233462   3.633   7.020   6.130
11074WAT      O33463   4.831   8.255   6.479
11074WAT     H133464   4.754   8.293   6.531
11074WAT     H233465   4.914   8.261   6.534
11075WAT      O33466   2.158   6.709   2.696
11075WAT     H133467   2.145   6.798   2.741
11075WAT     H233468   2.077   6.652   2.711
11076WAT      O33469   8.027   1.776   1.381
11076WAT     H133470   8.040   1.872   1.356
11076WAT     H233471   7.929   1.755   1.382
11077WAT      O33472   7.900   9.430   7.345
11077WAT     H133473   7.950   9.344   7.348
11077WAT     H233474   7.905   9.474   7.435
11078WAT      O33475   0.138   5.812   3.109
11078WAT     H133476   0.100   5.850   3.025
11078WAT     H233477   0.065   5.771   3.164
11079WAT      O33478   7.619   1.139   7.818
11079WAT     H133479   7.542   1.154   7.756
11079WAT     H233480   7.667   1.226   7.833
11080WAT      O33481   3.789   4.402   0.482
11080WAT     H133482   3.770   4.379   0.577
11080WAT     H233483   3.711   4.377   0.425
11081WAT      O33484   1.996   6.321   8.216
11081WAT     H133485   1.991   6.303   8.314
11081WAT     H233486   2.069   6.267   8.175
11082WAT      O33487   7.671   4.649   2.242
11082WAT     H133488   7.632   4.593   2.169
11082WAT     H233489   7.770   4.652   2.231
11083WAT      O33490   3.873   7.526   0.757
11083WAT     H133491   3.825   7.566   0.679
11083WAT     H233492   3.823   7.547   0.841
11084WAT      O33493   4.529   5.231   7.615
11084WAT     H133494   4.582   5.182   7.685
11084WAT     H233495   4.586   5.247   7.535
11085WAT      O33496   0.917   6.391   8.201
11085WAT     H133497   0.947   6.295   8.201
11085WAT     H233498   0.938   6.432   8.112
11086WAT      O33499   0.519   5.717   1.585
11086WAT     H133500   0.607   5.740   1.624
11086WAT     H233501   0.495   5.622   1.608
11087WAT      O33502   1.995   1.980   6.005
11087WAT     H133503   1.938   1.922   6.063
11087WAT     H233504   2.056   1.922   5.950
11088WAT      O33505   1.903   3.154   7.909
11088WAT     H133506   1.826   3.217   7.911
11088WAT     H233507   1.927   3.132   7.815
11089WAT      O33508   2.641   0.008   0.563
11089WAT     H133509   2.553  -0.032   0.536
11089WAT     H233510   2.647   0.101   0.528
11090WAT      O33511   2.448   9.689   9.110
11090WAT     H133512   2.433   9.786   9.092
11090WAT     H233513   2.532   9.678   9.163
11091WAT      O33514   3.122   7.056   7.552
11091WAT     H133515   3.219   7.035   7.541
11091WAT     H233516   3.068   6.973   7.536
11092WAT      O33517   7.925   0.262   6.401
11092WAT     H133518   7.847   0.245   6.341
11092WAT     H233519   7.915   0.209   6.485
11093WAT      O33520   6.115   8.627   1.027
11093WAT     H133521   6.171   8.554   1.067
11093WAT     H233522   6.019   8.599   1.025
11094WAT      O33523   3.331   9.723   2.092
11094WAT     H133524   3.351   9.705   1.996
11094WAT     H233525   3.236   9.698   2.111
11095WAT      O33526   7.289   0.278   6.749
11095WAT     H133527   7.270   0.353   6.813
11095WAT     H233528   7.253   0.301   6.659
11096WAT      O33529   4.932   9.017   6.179
11096WAT     H133530   4.894   8.947   6.119
11096WAT     H233531   4.884   9.016   6.267
11097WAT      O33532   4.370   5.567   5.628
11097WAT     H133533   4.405   5.632   5.561
11097WAT     H233534   4.350   5.480   5.582
11098WAT      O33535   6.226   3.721   3.467
11098WAT     H133536   6.158   3.736   3.395
11098WAT     H233537   6.195   3.762   3.552
11099WAT      O33538   7.576   0.279   0.605
11099WAT     H133539   7.669   0.295   0.636
11099WAT     H233540   7.575   0.205   0.537
11100WAT      O33541   6.942   0.082   2.836
11100WAT     H133542   6.935  -0.007   2.791
11100WAT     H233543   6.892   0.079   2.923
11101WAT      O33544   3.323   2.218   8.154
11101WAT     H133545   3.296   2.155   8.227
11101WAT     H233546   3.384   2.170   8.090
11102WAT      O33547   8.896   0.295   6.816
11102WAT     H133548   8.907   0.229   6.891
11102WAT     H233549   8.986   0.316   6.777
11103WAT      O33550   4.911   3.157   5.359
11103WAT     H133551   4.917   3.058   5.375
11103WAT     H233552   4.822   3.179   5.321
11104WAT      O33553   1.439   0.882   2.094
11104WAT     H133554   1.364   0.883   2.159
11104WAT     H233555   1.508   0.949   2.121
11105WAT      O33556   1.037   4.413   9.262
11105WAT     H133557   0.990   4.336   9.219
11105WAT     H233558   1.089   4.381   9.341
11106WAT      O33559   8.404   4.688   0.350
11106WAT     H133560   8.398   4.613   0.284
11106WAT     H233561   8.314   4.703   0.391
11107WAT      O33562   7.533   8.339   5.243
11107WAT     H133563   7.472   8.414   5.218
11107WAT     H233564   7.534   8.330   5.343
11108WAT      O33565   4.852   8.546   8.251
11108WAT     H133566   4.754   8.558   8.267
11108WAT     H233567   4.891   8.633   8.220
11109WAT      O33568   0.841   1.329   3.235
11109WAT     H133569   0.865   1.426   3.226
11109WAT     H233570   0.793   1.314   3.321
11110WAT      O33571   7.051   8.898   4.756
11110WAT     H133572   7.034   8.807   4.794
11110WAT     H233573   7.075   8.960   4.831
11111WAT      O33574   6.998   9.725   1.401
11111WAT     H133575   6.900   9.727   1.416
11111WAT     H233576   7.043   9.678   1.478
11112WAT      O33577   5.508   9.172   2.715
11112WAT     H133578   5.455   9.175   2.800
11112WAT     H233579   5.604   9.193   2.734
11113WAT      O33580   0.422   8.720   6.629
11113WAT     H133581   0.326   8.715   6.658
11113WAT     H233582   0.478   8.750   6.706
11114WAT      O33583   1.261   3.787   9.433
11114WAT     H133584   1.347   3.737   9.439
11114WAT     H233585   1.270   3.876   9.477
11115WAT      O33586   3.606   5.701   7.858
11115WAT     H133587   3.554   5.721   7.942
11115WAT     H233588   3.668   5.625   7.876
11116WAT      O33589   6.777   5.932   2.541
11116WAT     H133590   6.837   6.000   2.583
11116WAT     H233591   6.797   5.926   2.443
11117WAT      O33592   3.617   8.253   6.002
11117WAT     H133593   3.705   8.301   6.003
11117WAT     H233594   3.570   8.266   6.089
11118WAT      O33595   1.311   0.533   0.007
11118WAT     H133596   1.364   0.599   0.061
11118WAT     H233597   1.281   0.458   0.066
11119WAT      O33598   3.857   1.251   9.791
11119WAT     H133599   3.821   1.309   9.718
11119WAT     H233600   3.943   1.211   9.761
11120WAT      O33601   9.352   2.176   5.494
11120WAT     H133602   9.447   2.148   5.479
11120WAT     H233603   9.302   2.171   5.408
11121WAT      O33604   8.637   3.900   5.772
11121WAT     H133605   8.585   3.925   5.690
11121WAT     H233606   8.640   3.801   5.781
11122WAT      O33607   7.017   6.395   0.662
11122WAT     H133608   7.071   6.401   0.746
11122WAT     H233609   6.933   6.448   0.673
11123WAT      O33610   5.675   6.881   2.940
11123WAT     H133611   5.708   6.966   2.901
11123WAT     H233612   5.672   6.810   2.870
11124WAT      O33613   2.580   2.225   1.779
11124WAT     H133614   2.507   2.162   1.807
11124WAT     H233615   2.663   2.205   1.830
11125WAT      O33616   1.920   9.796   2.651
11125WAT     H133617   1.928   9.832   2.558
11125WAT     H233618   2.011   9.771   2.685
11126WAT      O33619   1.283   4.595   4.174
11126WAT     H133620   1.327   4.685   4.172
11126WAT     H233621   1.317   4.543   4.252
11127WAT      O33622   0.157   2.769   2.767
11127WAT     H133623   0.145   2.697   2.698
11127WAT     H233624   0.115   2.853   2.734
11128WAT      O33625   5.968   7.201   2.596
11128WAT     H133626   5.985   7.122   2.537
11128WAT     H233627   5.892   7.254   2.559
11129WAT      O33628   2.179   6.926   4.106
11129WAT     H133629   2.146   6.933   4.200
11129WAT     H233630   2.118   6.977   4.045
11130WAT      O33631   3.839   9.390   6.418
11130WAT     H133632   3.739   9.380   6.425
11130WAT     H233633   3.868   9.371   6.324
11131WAT      O33634   7.925   1.571   3.325
11131WAT     H133635   7.846   1.536   3.375
11131WAT     H233636   7.921   1.671   3.321
11132WAT      O33637   0.961   1.318   3.781
11132WAT     H133638   0.918   1.394   3.830
11132WAT     H233639   0.895   1.244   3.772
11133WAT      O33640   3.178   4.874   5.915
11133WAT     H133641   3.146   4.879   5.820
11133WAT     H233642   3.100   4.865   5.976
11134WAT      O33643   8.548   5.300   5.166
11134WAT     H133644   8.595   5.219   5.199
11134WAT     H233645   8.560   5.375   5.232
11135WAT      O33646   0.973   9.437   9.721
11135WAT     H133647   1.010   9.379   9.648
11135WAT     H233648   0.913   9.382   9.780
11136WAT      O33649   8.346   2.248   8.417
11136WAT     H133650   8.421   2.216   8.474
11136WAT     H233651   8.357   2.345   8.398
11137WAT      O33652   5.306   6.860   3.071
11137WAT     H133653   5.388   6.823   3.115
11137WAT     H233654   5.332   6.934   3.009
11138WAT      O33655   6.826   7.932   5.799
11138WAT     H133656   6.739   7.971   5.769
11138WAT     H233657   6.830   7.836   5.772
11139WAT      O33658   6.465   9.544   4.731
11139WAT     H133659   6.450   9.615   4.800
11139WAT     H233660   6.378   9.518   4.691
11140WAT      O33661   0.941   8.117   5.769
11140WAT     H133662   0.957   8.043   5.834
11140WAT     H233663   0.975   8.090   5.679
11141WAT      O33664   3.957   6.104   3.058
11141WAT     H133665   3.873   6.126   3.108
11141WAT     H233666   3.979   6.007   3.071
11142WAT      O33667   0.196   8.655   1.820
11142WAT     H133668   0.161   8.704   1.740
11142WAT     H233669   0.292   8.678   1.834
11143WAT      O33670   5.088   3.970   2.123
11143WAT     H133671   5.050   4.001   2.211
11143WAT     H233672   5.151   4.039   2.088
11144WAT      O33673   6.552   0.746   8.247
11144WAT     H133674   6.589   0.831   8.207
11144WAT     H233675   6.553   0.753   8.346
11145WAT      O33676   5.708   7.012   4.737
11145WAT     H133677   5.717   6.920   4.775
11145WAT     H233678   5.646   7.010   4.658
11146WAT      O33679   2.810   4.660   2.102
11146WAT     H133680   2.881   4.730   2.107
11146WAT     H233681   2.736   4.692   2.043
11147WAT      O33682   9.210   2.365   4.667
11147WAT     H133683   9.151   2.338   4.591
11147WAT     H233684   9.297   2.400   4.631
11148WAT      O33685   4.443   4.651   5.195
11148WAT     H133686   4.508   4.593   5.245
11148WAT     H233687   4.494   4.722   5.145
11149WAT      O33688   4.162   6.511   9.158
11149WAT     H133689   4.070   6.546   9.141
11149WAT     H233690   4.166   6.472   9.250
11150WAT      O33691   2.293   2.463   0.688
11150WAT     H133692   2.370   2.497   0.742
11150WAT     H233693   2.328   2.412   0.609
11151WAT      O33694   2.040   8.731   4.781
11151WAT     H133695   2.129   8.687   4.769
11151WAT     H233696   1.998   8.699   4.865
11152WAT      O33697   2.667   7.540   1.603
11152WAT     H133698   2.644   7.443   1.611
11152WAT     H233699   2.766   7.552   1.610
11153WAT      O33700   7.116   3.413   3.038
11153WAT     H133701   7.115   3.511   3.056
11153WAT     H233702   7.178   3.368   3.102
11154WAT      O33703   8.113   5.475   4.967
11154WAT     H133704   8.154   5.527   4.892
11154WAT     H233705   8.143   5.380   4.962
11155WAT      O33706   2.517   8.383   5.206
11155WAT     H133707   2.594   8.436   5.169
11155WAT     H233708   2.553   8.312   5.267
11156WAT      O33709   7.890   8.993   0.600
11156WAT     H133710   7.858   8.900   0.579
11156WAT     H233711   7.986   9.001   0.577
11157WAT      O33712   5.299   3.101   5.479
11157WAT     H133713   5.348   3.084   5.564
11157WAT     H233714   5.216   3.045   5.476
11158WAT      O33715   0.183   0.848   4.630
11158WAT     H133716   0.247   0.772   4.617
11158WAT     H233717   0.221   0.931   4.589
11159WAT      O33718   1.727   4.688   4.239
11159WAT     H133719   1.686   4.602   4.207
11159WAT     H233720   1.660   4.762   4.229
11160WAT      O33721   8.027   0.696   1.897
11160WAT     H133722   8.076   0.710   1.983
11160WAT     H233723   8.082   0.732   1.821
11161WAT      O33724   9.032   8.946   4.562
11161WAT     H133725   9.039   9.027   4.620
11161WAT     H233726   9.112   8.941   4.501
11162WAT      O33727   7.409   3.787   5.019
11162WAT     H133728   7.399   3.709   4.957
11162WAT     H233729   7.447   3.865   4.969
11163WAT      O33730   0.182   8.537   4.799
11163WAT     H133731   0.218   8.622   4.761
11163WAT     H233732   0.249   8.464   4.787
11164WAT      O33733   8.914   5.741   9.033
11164WAT     H133734   8.819   5.769   9.038
11164WAT     H233735   8.964   5.802   8.971
11165WAT      O33736   4.168   3.890   3.084
11165WAT     H133737   4.159   3.794   3.059
11165WAT     H233738   4.151   3.947   3.003
11166WAT      O33739   1.622   0.225   5.738
11166WAT     H133740   1.548   0.235   5.805
11166WAT     H233741   1.691   0.161   5.774
11167WAT      O33742   5.562   3.206   2.526
11167WAT     H133743   5.485   3.154   2.488
11167WAT     H233744   5.547   3.304   2.512
11168WAT      O33745   0.295   9.369   4.543
11168WAT     H133746   0.225   9.434   4.515
11168WAT     H233747   0.331   9.321   4.463
11169WAT      O33748   9.110   1.254   5.337
11169WAT     H133749   9.174   1.237   5.262
11169WAT     H233750   9.130   1.191   5.413
11170WAT      O33751   3.704   1.956   1.970
11170WAT     H133752   3.659   1.915   2.049
11170WAT     H233753   3.637   1.967   1.896
11171WAT      O33754   4.267   8.348   0.905
11171WAT     H133755   4.177   8.365   0.947
11171WAT     H233756   4.307   8.435   0.875
11172WAT      O33757   4.303   3.838   8.638
11172WAT     H133758   4.350   3.926   8.635
11172WAT     H233759   4.318   3.795   8.727
11173WAT      O33760   3.775   5.107   2.172
11173WAT     H133761   3.706   5.138   2.107
11173WAT     H233762   3.866   5.135   2.140
11174WAT      O33763   5.005   8.317   5.216
11174WAT     H133764   4.932   8.366   5.168
11174WAT     H233765   5.092   8.363   5.200
11175WAT      O33766   7.676   2.347   1.641
11175WAT     H133767   7.729   2.432   1.647
11175WAT     H233768   7.724   2.274   1.689
11176WAT      O33769   6.483   8.978   2.638
11176WAT     H133770   6.475   8.968   2.738
11176WAT     H233771   6.413   8.923   2.593
11177WAT      O33772   6.874   9.472   7.445
11177WAT     H133773   6.792   9.481   7.389
11177WAT     H233774   6.939   9.412   7.399
11178WAT      O33775   4.070   3.399   9.296
11178WAT     H133776   4.067   3.458   9.376
11178WAT     H233777   4.070   3.303   9.325
11179WAT      O33778   6.850   3.564   2.173
11179WAT     H133779   6.895   3.498   2.112
11179WAT     H233780   6.836   3.523   2.263
11180WAT      O33781   5.509   7.909   8.269
11180WAT     H133782   5.448   7.834   8.298
11180WAT     H233783   5.539   7.894   8.175
11181WAT      O33784   8.915   9.355   4.163
11181WAT     H133785   8.983   9.341   4.091
11181WAT     H233786   8.921   9.280   4.229
11182WAT      O33787   5.569   6.163   0.722
11182WAT     H133788   5.592   6.199   0.813
11182WAT     H233789   5.653   6.151   0.669
11183WAT      O33790   0.325   9.509   7.604
11183WAT     H133791   0.264   9.513   7.683
11183WAT     H233792   0.369   9.419   7.601
11184WAT      O33793   6.198   6.684   8.677
11184WAT     H133794   6.134   6.743   8.727
11184WAT     H233795   6.255   6.634   8.742
11185WAT      O33796   7.275   9.735   4.810
11185WAT     H133797   7.275   9.766   4.715
11185WAT     H233798   7.182   9.731   4.845
11186WAT      O33799   2.237   3.508   7.500
11186WAT     H133800   2.240   3.503   7.600
11186WAT     H233801   2.208   3.600   7.472
11187WAT      O33802   7.159   2.222   0.646
11187WAT     H133803   7.074   2.187   0.608
11187WAT     H233804   7.142   2.263   0.735
11188WAT      O33805   3.003   6.751   4.492
11188WAT     H133806   3.086   6.789   4.534
11188WAT     H233807   3.028   6.702   4.409
11189WAT      O33808   8.918   9.680   1.867
11189WAT     H133809   8.927   9.655   1.770
11189WAT     H233810   8.873   9.605   1.916
11190WAT      O33811   1.178   3.140   5.373
11190WAT     H133812   1.233   3.102   5.447
11190WAT     H233813   1.223   3.222   5.336
11191WAT      O33814   3.212   3.688   8.834
11191WAT     H133815   3.193   3.779   8.871
11191WAT     H233816   3.243   3.697   8.739
11192WAT      O33817   5.824   4.388   5.971
11192WAT     H133818   5.831   4.476   6.018
11192WAT     H233819   5.815   4.404   5.872
11193WAT      O33820   1.798   2.786   9.297
11193WAT     H133821   1.766   2.705   9.346
11193WAT     H233822   1.745   2.866   9.327
11194WAT      O33823   0.891   2.713   0.684
11194WAT     H133824   0.795   2.689   0.699
11194WAT     H233825   0.898   2.811   0.663
11195WAT      O33826   0.292   9.071   1.524
11195WAT     H133827   0.361   9.011   1.483
11195WAT     H233828   0.260   9.137   1.456
11196WAT      O33829   9.760   9.133   9.007
11196WAT     H133830   9.691   9.194   8.967
11196WAT     H233831   9.751   9.042   8.966
11197WAT      O33832   3.871   9.641   2.145
11197WAT     H133833   3.915   9.650   2.235
11197WAT     H233834   3.800   9.570   2.151
11198WAT      O33835   6.982   1.866   2.575
11198WAT     H133836   6.901   1.910   2.535
11198WAT     H233837   7.052   1.935   2.591
11199WAT      O33838   5.809   9.201   6.396
11199WAT     H133839   5.829   9.264   6.471
11199WAT     H233840   5.873   9.218   6.321
11200WAT      O33841   4.708   8.697   8.643
11200WAT     H133842   4.795   8.672   8.601
11200WAT     H233843   4.722   8.775   8.705
11201WAT      O33844   0.642   3.159   1.012
11201WAT     H133845   0.598   3.247   0.996
11201WAT     H233846   0.722   3.171   1.070
11202WAT      O33847   0.182   5.211   8.799
11202WAT     H133848   0.134   5.294   8.769
11202WAT     H233849   0.162   5.137   8.734
11203WAT      O33850   2.724   8.079   4.187
11203WAT     H133851   2.758   8.058   4.095
11203WAT     H233852   2.648   8.143   4.180
11204WAT      O33853   2.293   6.841   1.497
11204WAT     H133854   2.237   6.759   1.500
11204WAT     H233855   2.369   6.829   1.433
11205WAT      O33856   8.755   9.202   7.851
11205WAT     H133857   8.834   9.247   7.810
11205WAT     H233858   8.696   9.271   7.893
11206WAT      O33859   9.283   1.129   8.314
11206WAT     H133860   9.227   1.198   8.267
11206WAT     H233861   9.223   1.068   8.367
11207WAT      O33862   6.369   9.776   2.269
11207WAT     H133863   6.415   9.826   2.343
11207WAT     H233864   6.324   9.840   2.208
11208WAT      O33865   8.602   9.279   8.762
11208WAT     H133866   8.518   9.326   8.733
11208WAT     H233867   8.641   9.327   8.840
11209WAT      O33868   0.200   9.024   9.266
11209WAT     H133869   0.237   9.010   9.358
11209WAT     H233870   0.148   9.109   9.264
11210WAT      O33871   4.107   3.141   4.469
11210WAT     H133872   4.101   3.221   4.529
11210WAT     H233873   4.201   3.107   4.468
11211WAT      O33874   4.299   9.063   4.916
11211WAT     H133875   4.337   8.977   4.885
11211WAT     H233876   4.200   9.053   4.930
11212WAT      O33877   1.583   1.130   0.770
11212WAT     H133878   1.552   1.225   0.767
11212WAT     H233879   1.604   1.100   0.677
11213WAT      O33880   7.202   1.460   7.370
11213WAT     H133881   7.213   1.545   7.318
11213WAT     H233882   7.217   1.381   7.310
11214WAT      O33883   8.077   3.988   7.855
11214WAT     H133884   8.028   3.904   7.879
11214WAT     H233885   8.162   3.994   7.909
11215WAT      O33886   8.788   4.930   0.033
11215WAT     H133887   8.794   4.886  -0.056
11215WAT     H233888   8.818   4.867   0.104
11216WAT      O33889   2.290   2.302   5.191
11216WAT     H133890   2.248   2.391   5.207
11216WAT     H233891   2.222   2.230   5.204
11217WAT      O33892   1.387   7.760   2.973
11217WAT     H133893   1.362   7.840   2.918
11217WAT     H233894   1.348   7.678   2.931
11218WAT      O33895   4.145   6.398   9.460
11218WAT     H133896   4.195   6.324   9.414
11218WAT     H233897   4.124   6.371   9.554
11219WAT      O33898   8.790   0.483   6.611
11219WAT     H133899   8.770   0.481   6.513
11219WAT     H233900   8.789   0.390   6.647
11220WAT      O33901   8.554   9.491   1.902
11220WAT     H133902   8.563   9.546   1.819
11220WAT     H233903   8.457   9.477   1.922
11221WAT      O33904   6.631   7.363   6.716
11221WAT     H133905   6.652   7.444   6.771
11221WAT     H233906   6.610   7.286   6.775
11222WAT      O33907   0.778   1.165   8.321
11222WAT     H133908   0.803   1.185   8.416
11222WAT     H233909   0.831   1.223   8.260
11223WAT      O33910   6.382   9.541   0.317
11223WAT     H133911   6.329   9.525   0.233
11223WAT     H233912   6.474   9.505   0.306
11224WAT      O33913   3.348   4.974   7.552
11224WAT     H133914   3.274   5.025   7.596
11224WAT     H233915   3.346   4.989   7.454
11225WAT      O33916   6.552   4.818   3.065
11225WAT     H133917   6.615   4.865   3.126
11225WAT     H233918   6.470   4.873   3.051
11226WAT      O33919   1.637   2.680   2.166
11226WAT     H133920   1.673   2.762   2.123
11226WAT     H233921   1.713   2.625   2.203
11227WAT      O33922   7.149   7.483   7.877
11227WAT     H133923   7.168   7.516   7.969
11227WAT     H233924   7.158   7.557   7.811
11228WAT      O33925   2.138   1.152   0.990
11228WAT     H133926   2.226   1.114   1.018
11228WAT     H233927   2.137   1.169   0.892
11229WAT      O33928   1.894   7.020   5.039
11229WAT     H133929   1.842   7.106   5.037
11229WAT     H233930   1.984   7.037   5.078
11230WAT      O33931   6.960   2.317   6.418
11230WAT     H133932   6.917   2.397   6.460
11230WAT     H233933   6.967   2.244   6.486
11231WAT      O33934   6.946   1.353   1.017
11231WAT     H133935   6.887   1.432   1.003
11231WAT     H233936   6.968   1.312   0.929
11232WAT      O33937   1.975   3.267   0.792
11232WAT     H133938   1.944   3.344   0.735
11232WAT     H233939   1.983   3.297   0.887
11233WAT      O33940   8.770   1.789   5.392
11233WAT     H133941   8.736   1.828   5.307
11233WAT     H233942   8.865   1.759   5.380
11234WAT      O33943   3.434   1.143   5.118
11234WAT     H133944   3.459   1.240   5.124
11234WAT     H233945   3.393   1.114   5.205
11235WAT      O33946   6.220   7.862   6.692
11235WAT     H133947   6.169   7.937   6.652
11235WAT     H233948   6.302   7.844   6.638
11236WAT      O33949   0.899   3.416   2.032
11236WAT     H133950   0.907   3.394   1.935
11236WAT     H233951   0.803   3.412   2.060
11237WAT      O33952   0.191   1.945   3.036
11237WAT     H133953   0.174   1.848   3.017
11237WAT     H233954   0.287   1.965   3.020
11238WAT      O33955   7.386   7.387   4.158
11238WAT     H133956   7.343   7.478   4.159
11238WAT     H233957   7.397   7.355   4.252
11239WAT      O33958   4.043   9.739   5.215
11239WAT     H133959   4.105   9.793   5.159
11239WAT     H233960   3.979   9.689   5.157
11240WAT      O33961   2.413   5.125   2.201
11240WAT     H133962   2.408   5.117   2.300
11240WAT     H233963   2.419   5.221   2.175
11241WAT      O33964   7.911   4.577   1.624
11241WAT     H133965   7.836   4.530   1.578
11241WAT     H233966   7.878   4.663   1.662
11242WAT      O33967   8.295   4.997   1.517
11242WAT     H133968   8.295   4.949   1.604
11242WAT     H233969   8.370   5.063   1.515
11243WAT      O33970   9.853   7.892   0.030
11243WAT     H133971   9.823   7.813  -0.024
11243WAT     H233972   9.773   7.936   0.070
11244WAT      O33973   1.458   7.125   2.837
11244WAT     H133974   1.467   7.221   2.864
11244WAT     H233975   1.377   7.086   2.881
11245WAT      O33976   1.750   6.486   9.819
11245WAT     H133977   1.836   6.453   9.856
11245WAT     H233978   1.710   6.553   9.882
11246WAT      O33979   6.010   5.764   8.005
11246WAT     H133980   5.939   5.781   8.074
11246WAT     H233981   6.058   5.849   7.984
11247WAT      O33982   3.626   9.036   8.048
11247WAT     H133983   3.528   9.026   8.066
11247WAT     H233984   3.651   9.133   8.051
11248WAT      O33985   4.784   8.492   2.205
11248WAT     H133986   4.695   8.449   2.186
11248WAT     H233987   4.825   8.448   2.285
11249WAT      O33988   7.633   9.034   4.958
11249WAT     H133989   7.636   8.953   5.017
11249WAT     H233990   7.719   9.041   4.907
11250WAT      O33991   8.649   5.927   4.474
11250WAT     H133992   8.674   5.835   4.504
11250WAT     H233993   8.593   5.922   4.391
11251WAT      O33994   6.828   5.038   1.390
11251WAT     H133995   6.899   4.968   1.403
11251WAT     H233996   6.836   5.106   1.462
11252WAT      O33997   7.064   3.321   6.929
11252WAT     H133998   7.107   3.340   7.017
11252WAT     H233999   7.076   3.225   6.906
11253WAT      O34000   2.066   9.506   9.834
11253WAT     H134001   2.008   9.445   9.887
11253WAT     H234002   2.027   9.519   9.743
11254WAT      O34003   6.686   9.422   9.324
11254WAT     H134004   6.691   9.329   9.290
11254WAT     H234005   6.725   9.485   9.257
11255WAT      O34006   3.430   5.888   9.662
11255WAT     H134007   3.485   5.934   9.593
11255WAT     H234008   3.334   5.892   9.636
11256WAT      O34009   0.370   6.957   7.052
11256WAT     H134010   0.413   6.869   7.034
11256WAT     H234011   0.287   6.944   7.107
11257WAT      O34012   8.076   3.223   3.477
11257WAT     H134013   8.154   3.272   3.514
11257WAT     H234014   8.045   3.155   3.543
11258WAT      O34015   5.283   7.197   5.099
11258WAT     H134016   5.264   7.295   5.101
11258WAT     H234017   5.382   7.182   5.093
11259WAT      O34018   3.590   5.392   7.088
11259WAT     H134019   3.515   5.393   7.022
11259WAT     H234020   3.667   5.340   7.051
11260WAT      O34021   4.217   7.288   4.440
11260WAT     H134022   4.265   7.213   4.486
11260WAT     H234023   4.136   7.314   4.492
11261WAT      O34024   4.365   0.109   0.099
11261WAT     H134025   4.322   0.041   0.158
11261WAT     H234026   4.454   0.135   0.138
11262WAT      O34027   6.031   5.012   6.865
11262WAT     H134028   6.016   5.082   6.935
11262WAT     H234029   5.945   4.966   6.844
11263WAT      O34030   9.560   1.493   5.595
11263WAT     H134031   9.548   1.403   5.637
11263WAT     H234032   9.494   1.557   5.636
11264WAT      O34033   2.009   1.464   5.855
11264WAT     H134034   1.928   1.454   5.914
11264WAT     H234035   1.987   1.434   5.762
11265WAT      O34036   1.149   0.515   9.675
11265WAT     H134037   1.207   0.542   9.752
11265WAT     H234038   1.098   0.594   9.642
11266WAT      O34039   1.351   9.055   6.460
11266WAT     H134040   1.261   9.030   6.424
11266WAT     H234041   1.421   9.006   6.409
11267WAT      O34042   2.433   3.243   0.515
11267WAT     H134043   2.364   3.202   0.574
11267WAT     H234044   2.432   3.343   0.527
11268WAT      O34045   6.106   9.025   5.602
11268WAT     H134046   6.089   9.062   5.694
11268WAT     H234047   6.067   8.933   5.596
11269WAT      O34048   6.762   7.828   8.468
11269WAT     H134049   6.753   7.884   8.549
11269WAT     H234050   6.850   7.845   8.424
11270WAT      O34051   0.443   9.205   3.777
11270WAT     H134052   0.443   9.118   3.826
11270WAT     H234053   0.350   9.226   3.747
11271WAT      O34054   1.690   8.179   6.410
11271WAT     H134055   1.731   8.089   6.424
11271WAT     H234056   1.680   8.197   6.313
11272WAT      O34057   7.596   2.733   9.525
11272WAT     H134058   7.676   2.718   9.467
11272WAT     H234059   7.626   2.749   9.620
11273WAT      O34060   5.531   5.589   0.413
11273WAT     H134061   5.550   5.687   0.418
11273WAT     H234062   5.443   5.569   0.455
11274WAT      O34063   8.277   3.462   1.685
11274WAT     H134064   8.236   3.546   1.718
11274WAT     H234065   8.233   3.383   1.728
11275WAT      O34066   7.952   7.288   6.573
11275WAT     H134067   7.990   7.215   6.517
11275WAT     H234068   7.960   7.375   6.524
11276WAT      O34069   5.273   7.245   0.802
11276WAT     H134070   5.337   7.319   0.781
11276WAT     H234071   5.285   7.171   0.736
11277WAT      O34072   1.372   0.455   7.273
11277WAT     H134073   1.330   0.402   7.347
11277WAT     H234074   1.463   0.484   7.301
11278WAT      O34075   3.762   3.249   8.443
11278WAT     H134076   3.699   3.173   8.427
11278WAT     H234077   3.743   3.323   8.379
11279WAT      O34078   0.146   4.931   2.698
11279WAT     H134079   0.072   4.998   2.693
11279WAT     H234080   0.227   4.969   2.653
11280WAT      O34081   7.792   0.105   7.067
11280WAT     H134082   7.732   0.027   7.077
11280WAT     H234083   7.884   0.073   7.042
11281WAT      O34084   7.266   0.862   2.470
11281WAT     H134085   7.340   0.930   2.471
11281WAT     H234086   7.276   0.804   2.390
11282WAT      O34087   2.070   8.810   0.859
11282WAT     H134088   2.108   8.756   0.784
11282WAT     H234089   2.017   8.751   0.919
11283WAT      O34090   0.210   5.425   5.928
11283WAT     H134091   0.262   5.406   6.012
11283WAT     H234092   0.155   5.507   5.941
11284WAT      O34093   3.330   5.465   8.869
11284WAT     H134094   3.244   5.496   8.828
11284WAT     H234095   3.354   5.375   8.833
11285WAT      O34096   4.883   4.029   2.573
11285WAT     H134097   4.891   4.118   2.618
11285WAT     H234098   4.922   4.036   2.481
11286WAT      O34099   4.989   2.800   7.952
11286WAT     H134100   5.078   2.755   7.959
11286WAT     H234101   4.919   2.740   7.990
11287WAT      O34102   1.316   1.778   3.107
11287WAT     H134103   1.374   1.859   3.106
11287WAT     H234104   1.353   1.710   3.045
11288WAT      O34105   1.074   2.228   8.263
11288WAT     H134106   1.005   2.162   8.233
11288WAT     H234107   1.130   2.254   8.185
11289WAT      O34108   1.416   6.967   1.978
11289WAT     H134109   1.465   6.887   1.942
11289WAT     H234110   1.459   7.050   1.944
11290WAT      O34111   8.940   5.697   9.529
11290WAT     H134112   9.003   5.653   9.593
11290WAT     H234113   8.953   5.657   9.438
11291WAT      O34114   0.550   6.476   3.283
11291WAT     H134115   0.625   6.486   3.349
11291WAT     H234116   0.504   6.563   3.271
11292WAT      O34117   5.558   5.183   0.806
11292WAT     H134118   5.626   5.225   0.745
11292WAT     H234119   5.513   5.254   0.860
11293WAT      O34120   6.571   4.387   4.709
11293WAT     H134121   6.552   4.356   4.802
11293WAT     H234122   6.548   4.314   4.644
11294WAT      O34123   9.883   6.736   4.206
11294WAT     H134124   9.894   6.782   4.118
11294WAT     H234125   9.826   6.655   4.195
11295WAT      O34126   0.355   3.313   7.994
11295WAT     H134127   0.417   3.260   7.937
11295WAT     H234128   0.408   3.367   8.059
11296WAT      O34129   5.428   7.037   0.302
11296WAT     H134130   5.517   7.048   0.347
11296WAT     H234131   5.407   7.120   0.250
11297WAT      O34132   8.265   8.264   4.880
11297WAT     H134133   8.350   8.238   4.834
11297WAT     H234134   8.283   8.278   4.978
11298WAT      O34135   5.539   2.139   4.786
11298WAT     H134136   5.466   2.080   4.819
11298WAT     H234137   5.627   2.107   4.822
11299WAT      O34138   7.008   0.511   4.467
11299WAT     H134139   6.912   0.498   4.493
11299WAT     H234140   7.028   0.609   4.463
11300WAT      O34141   9.714   3.432   6.088
11300WAT     H134142   9.646   3.376   6.041
11300WAT     H234143   9.706   3.419   6.187
11301WAT      O34144   0.230   3.204   7.181
11301WAT     H134145   0.292   3.198   7.260
11301WAT     H234146   0.166   3.279   7.195
11302WAT      O34147   4.205   4.700   8.779
11302WAT     H134148   4.147   4.619   8.787
11302WAT     H234149   4.211   4.747   8.867
11303WAT      O34150   9.189   0.683   3.020
11303WAT     H134151   9.128   0.760   3.000
11303WAT     H234152   9.256   0.711   3.089
11304WAT      O34153   2.297   0.250   0.647
11304WAT     H134154   2.246   0.166   0.628
11304WAT     H234155   2.233   0.326   0.654
11305WAT      O34156   4.168   8.044   0.044
11305WAT     H134157   4.244   8.098   0.080
11305WAT     H234158   4.081   8.085   0.075
11306WAT      O34159   3.949   7.943   5.876
11306WAT     H134160   3.927   8.036   5.904
11306WAT     H234161   3.866   7.895   5.848
11307WAT      O34162   7.042   6.370   4.391
11307WAT     H134163   7.047   6.380   4.490
11307WAT     H234164   6.947   6.357   4.364
11308WAT      O34165   2.878   1.032   7.392
11308WAT     H134166   2.793   0.991   7.360
11308WAT     H234167   2.955   0.987   7.347
11309WAT      O34168   9.324   0.595   4.861
11309WAT     H134169   9.306   0.503   4.828
11309WAT     H234170   9.420   0.603   4.887
11310WAT      O34171   2.466   2.019   3.127
11310WAT     H134172   2.462   2.119   3.117
11310WAT     H234173   2.481   1.996   3.223
11311WAT      O34174   9.286   5.939   7.496
11311WAT     H134175   9.239   5.875   7.435
11311WAT     H234176   9.373   5.966   7.455
11312WAT      O34177   2.803   4.112   3.861
11312WAT     H134178   2.747   4.029   3.861
11312WAT     H234179   2.824   4.137   3.955
11313WAT      O34180   9.483   5.158   7.510
11313WAT     H134181   9.400   5.101   7.510
11313WAT     H234182   9.530   5.148   7.598
11314WAT      O34183   7.654   6.272   7.535
11314WAT     H134184   7.557   6.264   7.559
11314WAT     H234185   7.671   6.360   7.491
11315WAT      O34186   1.101   0.796   5.345
11315WAT     H134187   1.153   0.731   5.290
11315WAT     H234188   1.019   0.825   5.294
11316WAT      O34189   3.569   7.578   3.411
11316WAT     H134190   3.521   7.502   3.368
11316WAT     H234191   3.506   7.628   3.471
11317WAT      O34192   2.877   0.241   5.558
11317WAT     H134193   2.940   0.315   5.583
11317WAT     H234194   2.923   0.153   5.567
11318WAT      O34195   4.382   4.990   4.211
11318WAT     H134196   4.315   4.974   4.283
11318WAT     H234197   4.338   4.979   4.122
11319WAT      O34198   0.602   1.457   2.504
11319WAT     H134199   0.567   1.546   2.533
11319WAT     H234200   0.570   1.387   2.568
11320WAT      O34201   1.469   8.582   8.217
11320WAT     H134202   1.499   8.487   8.229
11320WAT     H234203   1.489   8.611   8.124
11321WAT      O34204   2.169   7.586   7.858
11321WAT     H134205   2.265   7.614   7.866
11321WAT     H234206   2.163   7.504   7.800
11322WAT      O34207   2.123   8.991   2.386
11322WAT     H134208   2.045   9.029   2.336
11322WAT     H234209   2.174   8.928   2.327
11323WAT      O34210   1.243   6.216   4.113
11323WAT     H134211   1.173   6.196   4.044
11323WAT     H234212   1.225   6.305   4.154
11324WAT      O34213   8.259   4.478   1.202
11324WAT     H134214   8.333   4.543   1.217
11324WAT     H234215   8.237   4.432   1.288
11325WAT      O34216   9.464   0.822   5.282
11325WAT     H134217   9.476   0.877   5.200
11325WAT     H234218   9.519   0.738   5.275
11326WAT      O34219   5.613   5.378   1.174
11326WAT     H134220   5.631   5.472   1.201
11326WAT     H234221   5.579   5.376   1.080
11327WAT      O34222   9.169   0.883   2.412
11327WAT     H134223   9.164   0.818   2.337
11327WAT     H234224   9.097   0.952   2.401
11328WAT      O34225   0.246   7.262   1.139
11328WAT     H134226   0.242   7.350   1.092
11328WAT     H234227   0.296   7.196   1.082
11329WAT      O34228   8.170   3.201   0.163
11329WAT     H134229   8.238   3.273   0.175
11329WAT     H234230   8.201   3.118   0.209
11330WAT      O34231   4.294   0.275   1.683
11330WAT     H134232   4.280   0.263   1.781
11330WAT     H234233   4.382   0.321   1.668
11331WAT      O34234   1.296   6.799   8.121
11331WAT     H134235   1.248   6.713   8.104
11331WAT     H234236   1.394   6.781   8.126
11332WAT      O34237   6.982   3.350   2.082
11332WAT     H134238   7.069   3.335   2.129
11332WAT     H234239   6.913   3.288   2.120
11333WAT      O34240   3.368   3.480   4.436
11333WAT     H134241   3.416   3.460   4.522
11333WAT     H234242   3.284   3.425   4.431
11334WAT      O34243   3.116   6.338   2.709
11334WAT     H134244   3.174   6.280   2.652
11334WAT     H234245   3.050   6.280   2.758
11335WAT      O34246   2.382   3.223   1.964
11335WAT     H134247   2.442   3.147   1.989
11335WAT     H234248   2.374   3.228   1.864
11336WAT      O34249   6.093   6.815   7.734
11336WAT     H134250   6.149   6.738   7.704
11336WAT     H234251   6.149   6.898   7.739
11337WAT      O34252   2.210   6.237   9.192
11337WAT     H134253   2.210   6.334   9.217
11337WAT     H234254   2.288   6.217   9.133
11338WAT      O34255   3.342   2.962   0.175
11338WAT     H134256   3.244   2.961   0.156
11338WAT     H234257   3.365   3.044   0.228
11339WAT      O34258   0.874   1.533   2.650
11339WAT     H134259   0.861   1.486   2.737
11339WAT     H234260   0.797   1.594   2.633
11340WAT      O34261   5.020   2.385   9.567
11340WAT     H134262   4.938   2.331   9.582
11340WAT     H234263   4.994   2.478   9.539
11341WAT      O34264   4.813   0.184   3.998
11341WAT     H134265   4.770   0.274   4.007
11341WAT     H234266   4.832   0.166   3.902
11342WAT      O34267   1.507   6.235   4.214
11342WAT     H134268   1.570   6.157   4.213
11342WAT     H234269   1.418   6.207   4.179
11343WAT      O34270   6.117   9.654   5.061
11343WAT     H134271   6.115   9.754   5.057
11343WAT     H234272   6.208   9.624   5.089
11344WAT      O34273   7.677   7.924   6.038
11344WAT     H134274   7.707   8.019   6.048
11344WAT     H234275   7.607   7.904   6.107
11345WAT      O34276   4.898   3.442   8.206
11345WAT     H134277   4.888   3.403   8.114
11345WAT     H234278   4.825   3.407   8.265
11346WAT      O34279   7.992   3.676   2.748
11346WAT     H134280   7.979   3.733   2.667
11346WAT     H234281   8.058   3.721   2.809
11347WAT      O34282   1.473   4.530   3.299
11347WAT     H134283   1.545   4.555   3.235
11347WAT     H234284   1.456   4.431   3.293
11348WAT      O34285   1.678   1.226   2.137
11348WAT     H134286   1.582   1.231   2.164
11348WAT     H234287   1.715   1.137   2.164
11349WAT      O34288   3.417   5.767   5.842
11349WAT     H134289   3.386   5.754   5.936
11349WAT     H234290   3.371   5.701   5.782
11350WAT      O34291   7.606   9.550   3.446
11350WAT     H134292   7.665   9.630   3.435
11350WAT     H234293   7.656   9.467   3.422
11351WAT      O34294   3.357   8.034   8.480
11351WAT     H134295   3.420   8.105   8.510
11351WAT     H234296   3.263   8.067   8.489
11352WAT      O34297   4.481   2.836   7.526
11352WAT     H134298   4.441   2.760   7.474
11352WAT     H234299   4.408   2.900   7.550
11353WAT      O34300   6.158   2.761   8.618
11353WAT     H134301   6.147   2.777   8.716
11353WAT     H234302   6.251   2.785   8.591
11354WAT      O34303   9.155   0.672   9.384
11354WAT     H134304   9.137   0.742   9.314
11354WAT     H234305   9.119   0.704   9.472
11355WAT      O34306   6.105   6.984   1.541
11355WAT     H134307   6.035   6.931   1.590
11355WAT     H234308   6.175   6.921   1.505
11356WAT      O34309   5.798   3.980   5.755
11356WAT     H134310   5.715   4.033   5.737
11356WAT     H234311   5.839   3.952   5.669
11357WAT      O34312   5.166   2.761   7.391
11357WAT     H134313   5.120   2.678   7.423
11357WAT     H234314   5.099   2.835   7.384
11358WAT      O34315   7.546   5.845   8.673
11358WAT     H134316   7.591   5.784   8.608
11358WAT     H234317   7.498   5.791   8.742
11359WAT      O34318   6.019   0.887   0.968
11359WAT     H134319   5.920   0.885   0.954
11359WAT     H234320   6.059   0.802   0.934
11360WAT      O34321   9.003   9.564   7.376
11360WAT     H134322   9.034   9.604   7.462
11360WAT     H234323   8.905   9.577   7.366
11361WAT      O34324   5.932   1.623   6.786
11361WAT     H134325   5.909   1.531   6.755
11361WAT     H234326   5.909   1.633   6.882
11362WAT      O34327   8.516   6.994   5.081
11362WAT     H134328   8.526   6.912   5.024
11362WAT     H234329   8.596   7.004   5.139
11363WAT      O34330   2.859   2.985   3.615
11363WAT     H134331   2.843   2.892   3.649
11363WAT     H234332   2.834   2.990   3.518
11364WAT      O34333   9.696   6.918   0.622
11364WAT     H134334   9.658   6.833   0.584
11364WAT     H234335   9.779   6.897   0.674
11365WAT      O34336   6.345   1.108   9.134
11365WAT     H134337   6.394   1.187   9.098
11365WAT     H234338   6.265   1.090   9.076
11366WAT      O34339   5.254   9.513   9.043
11366WAT     H134340   5.304   9.436   9.083
11366WAT     H234341   5.316   9.569   8.989
11367WAT      O34342   2.519   7.088   2.895
11367WAT     H134343   2.601   7.092   2.838
11367WAT     H234344   2.539   7.131   2.984
11368WAT      O34345   7.216   7.267   7.711
11368WAT     H134346   7.127   7.239   7.673
11368WAT     H234347   7.206   7.354   7.759
11369WAT      O34348   4.075   1.096   0.242
11369WAT     H134349   3.995   1.037   0.234
11369WAT     H234350   4.153   1.052   0.197
11370WAT      O34351   5.344   3.595   3.938
11370WAT     H134352   5.372   3.518   3.879
11370WAT     H234353   5.324   3.561   4.030
11371WAT      O34354   2.205   3.517   1.058
11371WAT     H134355   2.281   3.456   1.036
11371WAT     H234356   2.124   3.462   1.081
11372WAT      O34357   7.145   6.123   2.312
11372WAT     H134358   7.110   6.204   2.360
11372WAT     H234359   7.068   6.066   2.282
11373WAT      O34360   7.316   5.847   3.555
11373WAT     H134361   7.411   5.823   3.575
11373WAT     H234362   7.256   5.811   3.627
11374WAT      O34363   5.938   6.336   2.374
11374WAT     H134364   5.989   6.266   2.424
11374WAT     H234365   5.851   6.297   2.342
11375WAT      O34366   0.363   7.567   1.294
11375WAT     H134367   0.347   7.570   1.195
11375WAT     H234368   0.277   7.545   1.340
11376WAT      O34369   7.852   0.987   7.404
11376WAT     H134370   7.908   0.906   7.387
11376WAT     H234371   7.911   1.068   7.406
11377WAT      O34372   0.971   0.962   0.668
11377WAT     H134373   0.958   0.935   0.763
11377WAT     H234374   0.885   0.953   0.618
11378WAT      O34375   2.331   2.747   1.889
11378WAT     H134376   2.339   2.774   1.985
11378WAT     H234377   2.416   2.769   1.841
11379WAT      O34378   5.175   4.132   9.787
11379WAT     H134379   5.261   4.145   9.737
11379WAT     H234380   5.107   4.197   9.754
11380WAT      O34381   2.313   1.641   0.001
11380WAT     H134382   2.217   1.647   0.027
11380WAT     H234383   2.350   1.733  -0.013
11381WAT      O34384   6.183   1.337   5.320
11381WAT     H134385   6.237   1.336   5.404
11381WAT     H234386   6.228   1.283   5.250
11382WAT      O34387   6.438   2.918   6.432
11382WAT     H134388   6.502   2.875   6.368
11382WAT     H234389   6.453   3.017   6.432
11383WAT      O34390   4.338   0.855   3.491
11383WAT     H134391   4.239   0.839   3.491
11383WAT     H234392   4.382   0.787   3.551
11384WAT      O34393   6.248   2.774   1.429
11384WAT     H134394   6.152   2.747   1.425
11384WAT     H234395   6.263   2.835   1.507
11385WAT      O34396   6.200   3.544   8.887
11385WAT     H134397   6.144   3.625   8.869
11385WAT     H234398   6.285   3.572   8.932
11386WAT      O34399   4.486   0.577   8.281
11386WAT     H134400   4.488   0.497   8.340
11386WAT     H234401   4.577   0.591   8.242
11387WAT      O34402   2.259   5.403   1.476
11387WAT     H134403   2.206   5.366   1.400
11387WAT     H234404   2.302   5.489   1.447
11388WAT      O34405   8.060   1.222   3.584
11388WAT     H134406   8.066   1.263   3.676
11388WAT     H234407   7.970   1.180   3.573
11389WAT      O34408   2.754   0.622   3.012
11389WAT     H134409   2.707   0.533   3.008
11389WAT     H234410   2.722   0.672   3.093
11390WAT      O34411   6.215   4.243   7.763
11390WAT     H134412   6.271   4.199   7.693
11390WAT     H234413   6.124   4.261   7.727
11391WAT      O34414   2.596   1.457   1.106
11391WAT     H134415   2.648   1.535   1.138
11391WAT     H234416   2.606   1.381   1.169
11392WAT      O34417   9.331   4.585   2.505
11392WAT     H134418   9.426   4.581   2.475
11392WAT     H234419   9.300   4.680   2.505
11393WAT      O34420   6.407   7.390   3.348
11393WAT     H134421   6.364   7.424   3.432
11393WAT     H234422   6.417   7.291   3.354
11394WAT      O34423   3.536   4.685   0.503
11394WAT     H134424   3.628   4.654   0.478
11394WAT     H234425   3.540   4.732   0.591
11395WAT      O34426   9.090   6.354   9.878
11395WAT     H134427   9.182   6.353   9.840
11395WAT     H234428   9.066   6.263   9.910
11396WAT      O34429   2.507   8.925   4.354
11396WAT     H134430   2.462   8.873   4.427
11396WAT     H234431   2.531   8.862   4.280
11397WAT      O34432   3.506   1.442   7.810
11397WAT     H134433   3.529   1.403   7.899
11397WAT     H234434   3.479   1.368   7.748
11398WAT      O34435   5.191   0.001   2.768
11398WAT     H134436   5.187   0.028   2.672
11398WAT     H234437   5.136   0.064   2.823
11399WAT      O34438   7.789   1.142   8.218
11399WAT     H134439   7.832   1.057   8.189
11399WAT     H234440   7.843   1.184   8.291
11400WAT      O34441   5.481   0.251   7.297
11400WAT     H134442   5.408   0.302   7.251
11400WAT     H234443   5.451   0.225   7.388
11401WAT      O34444   6.775   6.008   5.787
11401WAT     H134445   6.702   6.076   5.795
11401WAT     H234446   6.785   5.959   5.873
11402WAT      O34447   1.253   0.977   1.872
11402WAT     H134448   1.294   1.068   1.868
11402WAT     H234449   1.263   0.939   1.964
11403WAT      O34450   6.222   4.145   9.056
11403WAT     H134451   6.134   4.155   9.011
11403WAT     H234452   6.293   4.125   8.988
11404WAT      O34453   2.014   2.491   0.080
11404WAT     H134454   1.988   2.394   0.081
11404WAT     H234455   2.035   2.521   0.173
11405WAT      O34456   3.043   1.478   9.660
11405WAT     H134457   3.018   1.546   9.729
11405WAT     H234458   3.043   1.387   9.701
11406WAT      O34459   1.588   9.397   5.606
11406WAT     H134460   1.602   9.427   5.512
11406WAT     H234461   1.506   9.442   5.643
11407WAT      O34462   5.136   9.273   7.230
11407WAT     H134463   5.164   9.231   7.316
11407WAT     H234464   5.160   9.213   7.154
11408WAT      O34465   6.219   6.167   2.872
11408WAT     H134466   6.127   6.160   2.910
11408WAT     H234467   6.238   6.087   2.815
11409WAT      O34468   2.850   8.455   7.868
11409WAT     H134469   2.798   8.398   7.931
11409WAT     H234470   2.924   8.401   7.828
11410WAT      O34471   9.544   3.754   5.489
11410WAT     H134472   9.497   3.834   5.524
11410WAT     H234473   9.494   3.671   5.515
11411WAT      O34474   4.627   4.843   7.779
11411WAT     H134475   4.587   4.876   7.693
11411WAT     H234476   4.698   4.775   7.758
11412WAT      O34477   0.338   0.300   7.850
11412WAT     H134478   0.427   0.263   7.822
11412WAT     H234479   0.278   0.306   7.770
11413WAT      O34480   2.889   9.366   0.221
11413WAT     H134481   2.874   9.271   0.194
11413WAT     H234482   2.973   9.400   0.179
11414WAT      O34483   1.582   5.724   6.650
11414WAT     H134484   1.494   5.741   6.605
11414WAT     H234485   1.605   5.802   6.708
11415WAT      O34486   5.613   9.355   1.619
11415WAT     H134487   5.685   9.299   1.659
11415WAT     H234488   5.546   9.296   1.574
11416WAT      O34489   5.815   7.372   9.236
11416WAT     H134490   5.807   7.274   9.256
11416WAT     H234491   5.847   7.385   9.142
11417WAT      O34492   8.971   2.807   3.062
11417WAT     H134493   8.955   2.722   3.011
11417WAT     H234494   8.897   2.821   3.128
11418WAT      O34495   4.721   7.732   7.873
11418WAT     H134496   4.805   7.679   7.871
11418WAT     H234497   4.686   7.737   7.966
11419WAT      O34498   6.701   3.965   0.459
11419WAT     H134499   6.736   4.048   0.414
11419WAT     H234500   6.654   3.908   0.392
11420WAT      O34501   5.431   5.014   1.718
11420WAT     H134502   5.378   5.090   1.680
11420WAT     H234503   5.375   4.932   1.721
11421WAT      O34504   2.461   4.200   8.171
11421WAT     H134505   2.443   4.163   8.262
11421WAT     H234506   2.407   4.150   8.103
11422WAT      O34507   2.514   8.467   8.622
11422WAT     H134508   2.573   8.529   8.570
11422WAT     H234509   2.476   8.398   8.560
11423WAT      O34510   4.350   6.196   3.396
11423WAT     H134511   4.358   6.172   3.492
11423WAT     H234512   4.325   6.292   3.387
11424WAT      O34513   8.996   1.862   0.205
11424WAT     H134514   9.062   1.851   0.280
11424WAT     H234515   8.909   1.819   0.231
11425WAT      O34516   8.763   4.184   0.904
11425WAT     H134517   8.681   4.148   0.860
11425WAT     H234518   8.812   4.109   0.948
11426WAT      O34519   6.453   2.858   0.204
11426WAT     H134520   6.387   2.905   0.145
11426WAT     H234521   6.472   2.767   0.166
11427WAT      O34522   2.309   3.585   1.780
11427WAT     H134523   2.360   3.568   1.695
11427WAT     H234524   2.372   3.619   1.850
11428WAT      O34525   8.504   4.422   7.240
11428WAT     H134526   8.544   4.483   7.309
11428WAT     H234527   8.464   4.476   7.167
11429WAT      O34528   5.315   7.535   5.781
11429WAT     H134529   5.353   7.586   5.858
11429WAT     H234530   5.229   7.492   5.808
11430WAT      O34531   9.528   0.377   1.528
11430WAT     H134532   9.508   0.387   1.431
11430WAT     H234533   9.456   0.323   1.572
11431WAT      O34534   4.876   6.020   6.679
11431WAT     H134535   4.906   5.982   6.766
11431WAT     H234536   4.782   5.994   6.661
11432WAT      O34537   0.031   2.094   5.623
11432WAT     H134538   0.001   2.151   5.700
11432WAT     H234539  -0.011   2.004   5.629
11433WAT      O34540   5.850   1.593   7.076
11433WAT     H134541   5.770   1.532   7.078
11433WAT     H234542   5.853   1.647   7.160
11434WAT      O34543   2.517   4.589   6.537
11434WAT     H134544   2.457   4.564   6.461
11434WAT     H234545   2.482   4.547   6.621
11435WAT      O34546   5.550   8.965   1.499
11435WAT     H134547   5.530   8.876   1.541
11435WAT     H234548   5.644   8.966   1.467
11436WAT      O34549   9.782   9.115   8.288
11436WAT     H134550   9.726   9.071   8.218
11436WAT     H234551   9.724   9.136   8.368
11437WAT      O34552   3.270   3.223   6.907
11437WAT     H134553   3.343   3.230   6.976
11437WAT     H234554   3.259   3.128   6.879
11438WAT      O34555   7.198   0.430   6.126
11438WAT     H134556   7.173   0.333   6.124
11438WAT     H234557   7.297   0.438   6.136
11439WAT      O34558   0.889   6.168   7.594
11439WAT     H134559   0.881   6.268   7.586
11439WAT     H234560   0.881   6.141   7.690
11440WAT      O34561   3.166   6.028   8.516
11440WAT     H134562   3.231   6.057   8.587
11440WAT     H234563   3.206   5.954   8.463
11441WAT      O34564   7.843   2.002   5.398
11441WAT     H134565   7.895   2.077   5.357
11441WAT     H234566   7.905   1.929   5.426
11442WAT      O34567   4.835   9.269   6.151
11442WAT     H134568   4.889   9.187   6.171
11442WAT     H234569   4.774   9.250   6.074
11443WAT      O34570   9.243   6.570   4.036
11443WAT     H134571   9.335   6.536   4.056
11443WAT     H234572   9.193   6.583   4.121
11444WAT      O34573   5.513   6.314   0.955
11444WAT     H134574   5.438   6.344   0.896
11444WAT     H234575   5.500   6.351   1.047
11445WAT      O34576   7.058   5.438   0.070
11445WAT     H134577   7.081   5.408  -0.022
11445WAT     H234578   6.965   5.475   0.071
11446WAT      O34579   5.563   0.987   4.331
11446WAT     H134580   5.496   0.917   4.305
11446WAT     H234581   5.557   1.064   4.267
11447WAT      O34582   3.930   8.464   1.991
11447WAT     H134583   3.905   8.531   2.061
11447WAT     H234584   4.023   8.482   1.960
11448WAT      O34585   5.492   1.601   4.985
11448WAT     H134586   5.567   1.616   5.050
11448WAT     H234587   5.431   1.531   5.021
11449WAT      O34588   2.854   4.015   4.283
11449WAT     H134589   2.778   3.965   4.241
11449WAT     H234590   2.871   4.098   4.231
11450WAT      O34591   7.684   4.394   3.366
11450WAT     H134592   7.595   4.368   3.330
11450WAT     H234593   7.696   4.493   3.358
11451WAT      O34594   8.036   2.795   0.143
11451WAT     H134595   8.044   2.825   0.048
11451WAT     H234596   7.953   2.739   0.153
11452WAT      O34597   3.339   3.652   9.204
11452WAT     H134598   3.390   3.566   9.211
11452WAT     H234599   3.396   3.721   9.159
11453WAT      O34600   7.104   3.765   9.700
11453WAT     H134601   7.119   3.667   9.688
11453WAT     H234602   7.178   3.815   9.656
11454WAT      O34603   5.202   8.342   3.597
11454WAT     H134604   5.294   8.380   3.589
11454WAT     H234605   5.173   8.344   3.693
11455WAT      O34606   2.290   0.053   5.278
11455WAT     H134607   2.375   0.105   5.289
11455WAT     H234608   2.295   0.000   5.193
11456WAT      O34609   2.838   6.167   0.918
11456WAT     H134610   2.824   6.220   1.002
11456WAT     H234611   2.936   6.154   0.903
11457WAT      O34612   7.575   4.778   1.694
11457WAT     H134613   7.494   4.754   1.748
11457WAT     H234614   7.654   4.784   1.754
11458WAT      O34615   8.462   5.612   7.413
11458WAT     H134616   8.476   5.542   7.343
11458WAT     H234617   8.548   5.658   7.432
11459WAT      O34618   1.841   2.801   1.583
11459WAT     H134619   1.922   2.763   1.537
11459WAT     H234620   1.769   2.816   1.516
11460WAT      O34621   5.560   8.843   6.233
11460WAT     H134622   5.509   8.766   6.195
11460WAT     H234623   5.644   8.856   6.181
11461WAT      O34624   4.169   2.628   0.944
11461WAT     H134625   4.133   2.613   0.852
11461WAT     H234626   4.249   2.688   0.940
11462WAT      O34627   3.707   0.102   5.101
11462WAT     H134628   3.804   0.117   5.121
11462WAT     H234629   3.666   0.188   5.069
11463WAT      O34630   6.442   7.520   1.926
11463WAT     H134631   6.468   7.586   1.855
11463WAT     H234632   6.515   7.515   1.994
11464WAT      O34633   3.629   7.402   9.564
11464WAT     H134634   3.657   7.375   9.472
11464WAT     H234635   3.579   7.489   9.560
11465WAT      O34636   4.682   6.876   2.391
11465WAT     H134637   4.693   6.971   2.421
11465WAT     H234638   4.645   6.875   2.298
11466WAT      O34639   7.859   9.818   3.965
11466WAT     H134640   7.780   9.773   3.923
11466WAT     H234641   7.943   9.773   3.934
11467WAT      O34642   1.629   4.064   3.217
11467WAT     H134643   1.684   3.982   3.199
11467WAT     H234644   1.683   4.129   3.271
11468WAT      O34645   8.277   7.663   3.718
11468WAT     H134646   8.299   7.737   3.782
11468WAT     H234647   8.333   7.582   3.739
11469WAT      O34648   0.048   5.701   5.226
11469WAT     H134649   0.014   5.687   5.133
11469WAT     H234650   0.132   5.649   5.239
11470WAT      O34651   2.989   2.811   3.211
11470WAT     H134652   2.984   2.761   3.297
11470WAT     H234653   3.020   2.905   3.229
11471WAT      O34654   3.136   2.418   3.414
11471WAT     H134655   3.211   2.480   3.392
11471WAT     H234656   3.159   2.325   3.384
11472WAT      O34657   0.084   5.447   8.740
11472WAT     H134658   0.141   5.525   8.765
11472WAT     H234659   0.014   5.476   8.675
11473WAT      O34660   5.145   6.619   4.654
11473WAT     H134661   5.051   6.586   4.648
11473WAT     H234662   5.185   6.622   4.562
11474WAT      O34663   2.727   4.869   8.224
11474WAT     H134664   2.742   4.773   8.200
11474WAT     H234665   2.682   4.916   8.148
11475WAT      O34666   5.978   0.342   6.611
11475WAT     H134667   5.901   0.287   6.578
11475WAT     H234668   5.943   0.430   6.645
11476WAT      O34669   6.596   2.847   8.842
11476WAT     H134670   6.675   2.870   8.899
11476WAT     H234671   6.575   2.750   8.853
11477WAT      O34672   8.797   7.423   3.299
11477WAT     H134673   8.792   7.353   3.371
11477WAT     H234674   8.871   7.487   3.320
11478WAT      O34675   8.166   6.841   4.873
11478WAT     H134676   8.097   6.863   4.942
11478WAT     H234677   8.226   6.921   4.859
11479WAT      O34678   5.031   0.815   2.847
11479WAT     H134679   5.001   0.875   2.773
11479WAT     H234680   5.015   0.720   2.822
11480WAT      O34681   8.179   6.908   5.668
11480WAT     H134682   8.191   7.007   5.673
11480WAT     H234683   8.081   6.886   5.669
11481WAT      O34684   0.386   4.084   0.042
11481WAT     H134685   0.466   4.065  -0.015
11481WAT     H234686   0.349   3.998   0.077
11482WAT      O34687   9.392   5.026   3.058
11482WAT     H134688   9.349   4.944   3.096
11482WAT     H234689   9.413   5.090   3.133
11483WAT      O34690   9.496   3.179   7.945
11483WAT     H134691   9.507   3.161   7.848
11483WAT     H234692   9.477   3.276   7.959
11484WAT      O34693   8.583   0.428   7.579
11484WAT     H134694   8.502   0.476   7.546
11484WAT     H234695   8.555   0.344   7.625
11485WAT      O34696   6.944   9.572   4.675
11485WAT     H134697   6.985   9.602   4.589
11485WAT     H234698   6.910   9.651   4.725
11486WAT      O34699   8.310   6.366   1.946
11486WAT     H134700   8.264   6.354   2.034
11486WAT     H234701   8.242   6.377   1.874
11487WAT      O34702   6.125   7.433   5.986
11487WAT     H134703   6.025   7.437   5.991
11487WAT     H234704   6.162   7.525   5.989
11488WAT      O34705   1.922   2.426   0.507
11488WAT     H134706   1.941   2.469   0.595
11488WAT     H234707   1.995   2.448   0.442
11489WAT      O34708   5.590   7.253   7.959
11489WAT     H134709   5.635   7.165   7.972
11489WAT     H234710   5.530   7.271   8.036
11490WAT      O34711   9.393   7.625   6.674
11490WAT     H134712   9.445   7.576   6.604
11490WAT     H234713   9.323   7.564   6.712
11491WAT      O34714   5.904   6.317   9.410
11491WAT     H134715   5.820   6.306   9.358
11491WAT     H234716   5.961   6.388   9.367
11492WAT      O34717   4.993   8.763   9.020
11492WAT     H134718   5.029   8.671   9.003
11492WAT     H234719   5.050   8.809   9.089
11493WAT      O34720   2.126   8.999   1.318
11493WAT     H134721   2.037   9.039   1.293
11493WAT     H234722   2.131   8.990   1.417
11494WAT      O34723   2.673   4.283   1.949
11494WAT     H134724   2.730   4.267   2.029
11494WAT     H234725   2.730   4.315   1.874
11495WAT      O34726   5.720   8.422   0.410
11495WAT     H134727   5.659   8.346   0.388
11495WAT     H234728   5.810   8.405   0.371
11496WAT      O34729   4.058   8.697   6.448
11496WAT     H134730   4.071   8.632   6.523
11496WAT     H234731   4.010   8.777   6.483
11497WAT      O34732   2.565   5.597   8.081
11497WAT     H134733   2.594   5.636   8.169
11497WAT     H234734   2.468   5.575   8.084
11498WAT      O34735   6.652   1.948   1.033
11498WAT     H134736   6.647   1.990   1.124
11498WAT     H234737   6.737   1.896   1.025
11499WAT      O34738   0.372   1.488   6.332
11499WAT     H134739   0.362   1.576   6.380
11499WAT     H234740   0.306   1.484   6.257
11500WAT      O34741   3.966   5.109   8.610
11500WAT     H134742   4.047   5.069   8.653
11500WAT     H234743   3.994   5.186   8.552
11501WAT      O34744   7.385   6.579   7.261
11501WAT     H134745   7.368   6.505   7.196
11501WAT     H234746   7.299   6.608   7.302
11502WAT      O34747   4.783   9.305   3.283
11502WAT     H134748   4.813   9.264   3.369
11502WAT     H234749   4.830   9.260   3.207
11503WAT      O34750   1.942   4.983   3.629
11503WAT     H134751   2.032   5.020   3.606
11503WAT     H234752   1.950   4.921   3.706
11504WAT      O34753   0.115   2.833   7.318
11504WAT     H134754   0.044   2.817   7.249
11504WAT     H234755   0.205   2.835   7.274
11505WAT      O34756   8.040   5.196   8.965
11505WAT     H134757   8.077   5.226   9.053
11505WAT     H234758   7.940   5.189   8.973
11506WAT      O34759   9.175   3.839   4.649
11506WAT     H134760   9.193   3.742   4.669
11506WAT     H234761   9.204   3.860   4.556
11507WAT      O34762   2.151   3.474   1.395
11507WAT     H134763   2.148   3.573   1.377
11507WAT     H234764   2.144   3.458   1.493
11508WAT      O34765   5.655   6.219   4.809
11508WAT     H134766   5.580   6.160   4.838
11508WAT     H234767   5.716   6.237   4.886
11509WAT      O34768   9.882   5.174   9.160
11509WAT     H134769   9.961   5.221   9.200
11509WAT     H234770   9.799   5.203   9.206
11510WAT      O34771   0.027   2.110   1.166
11510WAT     H134772   0.052   2.090   1.260
11510WAT     H234773   0.100   2.080   1.105
11511WAT      O34774   2.581   4.080   1.240
11511WAT     H134775   2.508   4.116   1.298
11511WAT     H234776   2.630   4.008   1.290
11512WAT      O34777   1.658   5.196   9.615
11512WAT     H134778   1.742   5.242   9.587
11512WAT     H234779   1.580   5.257   9.601
11513WAT      O34780   2.651   7.461   0.055
11513WAT     H134781   2.598   7.378   0.070
11513WAT     H234782   2.700   7.485   0.139
11514WAT      O34783   7.959   1.898   8.931
11514WAT     H134784   8.002   1.986   8.949
11514WAT     H234785   8.029   1.832   8.903
11515WAT      O34786   4.080   6.322   3.099
11515WAT     H134787   4.022   6.240   3.097
11515WAT     H234788   4.121   6.332   3.190
11516WAT      O34789   0.960   3.466   7.508
11516WAT     H134790   0.984   3.562   7.527
11516WAT     H234791   0.907   3.461   7.424
11517WAT      O34792   7.906   8.113   3.045
11517WAT     H134793   7.980   8.174   3.072
11517WAT     H234794   7.853   8.087   3.126
11518WAT      O34795   8.801   3.734   0.653
11518WAT     H134796   8.848   3.819   0.680
11518WAT     H234797   8.776   3.740   0.557
11519WAT      O34798   7.447   0.257   2.137
11519WAT     H134799   7.358   0.231   2.174
11519WAT     H234800   7.513   0.262   2.212
11520WAT      O34801   0.690   9.107   3.752
11520WAT     H134802   0.610   9.163   3.728
11520WAT     H234803   0.706   9.040   3.680
11521WAT      O34804   8.987   1.843   2.660
11521WAT     H134805   8.951   1.833   2.567
11521WAT     H234806   9.035   1.931   2.667
11522WAT      O34807   9.248   3.572   3.740
11522WAT     H134808   9.263   3.490   3.794
11522WAT     H234809   9.240   3.548   3.643
11523WAT      O34810   2.258   9.620   8.738
11523WAT     H134811   2.336   9.588   8.792
11523WAT     H234812   2.289   9.643   8.645
11524WAT      O34813   8.084   6.422   1.748
11524WAT     H134814   7.988   6.408   1.769
11524WAT     H234815   8.101   6.518   1.728
11525WAT      O34816   3.583   6.125   7.366
11525WAT     H134817   3.496   6.173   7.373
11525WAT     H234818   3.610   6.117   7.270
11526WAT      O34819   6.679   4.048   8.522
11526WAT     H134820   6.728   4.124   8.564
11526WAT     H234821   6.590   4.079   8.491
11527WAT      O34822   2.934   8.581   7.292
11527WAT     H134823   2.836   8.574   7.307
11527WAT     H234824   2.962   8.516   7.222
11528WAT      O34825   4.981   7.558   7.176
11528WAT     H134826   4.917   7.561   7.253
11528WAT     H234827   5.067   7.601   7.203
11529WAT      O34828   9.342   4.899   4.471
11529WAT     H134829   9.406   4.942   4.408
11529WAT     H234830   9.299   4.968   4.528
11530WAT      O34831   2.711   2.143   2.552
11530WAT     H134832   2.748   2.125   2.460
11530WAT     H234833   2.757   2.223   2.591
11531WAT      O34834   5.310   2.757   1.476
11531WAT     H134835   5.361   2.672   1.468
11531WAT     H234836   5.372   2.831   1.503
11532WAT      O34837   0.423   1.653   4.180
11532WAT     H134838   0.427   1.598   4.097
11532WAT     H234839   0.511   1.700   4.193
11533WAT      O34840   4.999   5.564   2.958
11533WAT     H134841   5.067   5.605   3.019
11533WAT     H234842   4.930   5.516   3.012
11534WAT      O34843   2.172   8.253   9.485
11534WAT     H134844   2.221   8.339   9.503
11534WAT     H234845   2.181   8.229   9.388
11535WAT      O34846   7.991   5.293   1.681
11535WAT     H134847   8.090   5.296   1.692
11535WAT     H234848   7.964   5.353   1.606
11536WAT      O34849   6.983   4.784   9.065
11536WAT     H134850   6.999   4.776   9.164
11536WAT     H234851   6.963   4.879   9.042
11537WAT      O34852   3.354   8.544   6.635
11537WAT     H134853   3.305   8.482   6.696
11537WAT     H234854   3.451   8.519   6.634
11538WAT      O34855   8.447   2.927   3.922
11538WAT     H134856   8.491   3.017   3.919
11538WAT     H234857   8.357   2.936   3.965
11539WAT      O34858   0.825   6.581   4.797
11539WAT     H134859   0.790   6.514   4.863
11539WAT     H234860   0.770   6.576   4.713
11540WAT      O34861   8.675   3.684   3.671
11540WAT     H134862   8.627   3.772   3.674
11540WAT     H234863   8.718   3.673   3.581
11541WAT      O34864   7.423   8.845   9.601
11541WAT     H134865   7.387   8.917   9.542
11541WAT     H234866   7.491   8.883   9.663
11542WAT      O34867   4.515   6.671   7.928
11542WAT     H134868   4.449   6.713   7.990
11542WAT     H234869   4.471   6.652   7.840
11543WAT      O34870   8.745   5.498   4.708
11543WAT     H134871   8.693   5.505   4.793
11543WAT     H234872   8.830   5.550   4.717
11544WAT      O34873   0.389   9.765   1.989
11544WAT     H134874   0.304   9.732   2.029
11544WAT     H234875   0.418   9.849   2.035
11545WAT      O34876   4.673   7.300   9.796
11545WAT     H134877   4.647   7.305   9.700
11545WAT     H234878   4.753   7.359   9.812
11546WAT      O34879   6.242   9.002   5.923
11546WAT     H134880   6.261   8.985   6.019
11546WAT     H234881   6.325   9.035   5.878
11547WAT      O34882   7.975   3.745   7.153
11547WAT     H134883   8.056   3.712   7.203
11547WAT     H234884   7.956   3.839   7.179
11548WAT      O34885   7.250   9.358   4.325
11548WAT     H134886   7.227   9.383   4.231
11548WAT     H234887   7.203   9.272   4.349
11549WAT      O34888   2.540   0.593   7.530
11549WAT     H134889   2.513   0.610   7.435
11549WAT     H234890   2.499   0.508   7.562
11550WAT      O34891   5.877   5.120   2.499
11550WAT     H134892   5.914   5.027   2.496
11550WAT     H234893   5.950   5.184   2.521
11551WAT      O34894   3.294   1.437   0.230
11551WAT     H134895   3.340   1.442   0.141
11551WAT     H234896   3.196   1.426   0.216
11552WAT      O34897   0.261   8.754   4.669
11552WAT     H134898   0.270   8.733   4.572
11552WAT     H234899   0.227   8.847   4.681
11553WAT      O34900   1.577   1.826   7.404
11553WAT     H134901   1.587   1.893   7.330
11553WAT     H234902   1.561   1.735   7.366
11554WAT      O34903   8.535   0.930   3.576
11554WAT     H134904   8.483   0.945   3.660
11554WAT     H234905   8.534   0.832   3.553
11555WAT      O34906   0.473   4.010   1.789
11555WAT     H134907   0.503   3.968   1.703
11555WAT     H234908   0.378   4.040   1.780
11556WAT      O34909   8.837   9.170   8.420
11556WAT     H134910   8.905   9.145   8.488
11556WAT     H234911   8.850   9.266   8.394
11557WAT      O34912   7.842   2.457   9.046
11557WAT     H134913   7.806   2.497   8.961
11557WAT     H234914   7.831   2.358   9.043
11558WAT      O34915   2.023   1.375   2.955
11558WAT     H134916   2.043   1.324   3.039
11558WAT     H234917   1.969   1.456   2.978
11559WAT      O34918   4.904   1.665   9.518
11559WAT     H134919   4.908   1.748   9.463
11559WAT     H234920   4.971   1.670   9.592
11560WAT      O34921   8.255   3.929   1.321
11560WAT     H134922   8.331   3.865   1.329
11560WAT     H234923   8.245   3.958   1.226
11561WAT      O34924   2.251   6.257   4.410
11561WAT     H134925   2.216   6.327   4.349
11561WAT     H234926   2.322   6.205   4.363
11562WAT      O34927   0.415   6.628   6.877
11562WAT     H134928   0.316   6.619   6.883
11562WAT     H234929   0.458   6.565   6.942
11563WAT      O34930   6.694   6.387   3.369
11563WAT     H134931   6.690   6.287   3.379
11563WAT     H234932   6.743   6.426   3.447
11564WAT      O34933   0.149   1.197   4.372
11564WAT     H134934   0.112   1.112   4.333
11564WAT     H234935   0.247   1.201   4.355
11565WAT      O34936   7.153   6.832   3.757
11565WAT     H134937   7.148   6.734   3.775
11565WAT     H234938   7.203   6.877   3.831
11566WAT      O34939   9.411   1.483   7.097
11566WAT     H134940   9.470   1.425   7.153
11566WAT     H234941   9.466   1.553   7.052
11567WAT      O34942   8.761   8.182   3.534
11567WAT     H134943   8.730   8.110   3.596
11567WAT     H234944   8.733   8.159   3.440
11568WAT      O34945   9.195   0.897   7.351
11568WAT     H134946   9.103   0.890   7.388
11568WAT     H234947   9.253   0.826   7.391
11569WAT      O34948   7.129   9.413   5.987
11569WAT     H134949   7.090   9.369   6.068
11569WAT     H234950   7.220   9.449   6.010
11570WAT      O34951   6.814   7.541   6.320
11570WAT     H134952   6.799   7.555   6.222
11570WAT     H234953   6.793   7.446   6.344
11571WAT      O34954   5.796   3.003   7.962
11571WAT     H134955   5.813   2.905   7.955
11571WAT     H234956   5.837   3.050   7.884
11572WAT      O34957   2.410   9.791   0.975
11572WAT     H134958   2.380   9.886   0.975
11572WAT     H234959   2.507   9.787   0.952
11573WAT      O34960   5.580   1.892   5.535
11573WAT     H134961   5.667   1.933   5.563
11573WAT     H234962   5.538   1.846   5.613
11574WAT      O34963   8.168   6.189   1.613
11574WAT     H134964   8.137   6.268   1.665
11574WAT     H234965   8.263   6.202   1.586
11575WAT      O34966   6.025   1.231   0.833
11575WAT     H134967   6.007   1.296   0.907
11575WAT     H234968   6.122   1.207   0.832
11576WAT      O34969   4.121   4.371   3.056
11576WAT     H134970   4.074   4.308   3.118
11576WAT     H234971   4.070   4.457   3.051
11577WAT      O34972   2.060   7.230   2.402
11577WAT     H134973   2.037   7.133   2.397
11577WAT     H234974   2.095   7.251   2.493
11578WAT      O34975   2.525   2.164   6.200
11578WAT     H134976   2.582   2.181   6.281
11578WAT     H234977   2.572   2.102   6.138
11579WAT      O34978   9.673   9.145   2.045
11579WAT     H134979   9.676   9.084   1.967
11579WAT     H234980   9.708   9.235   2.019
11580WAT      O34981   3.090   0.487   2.759
11580WAT     H134982   3.068   0.552   2.832
11580WAT     H234983   3.028   0.501   2.682
11581WAT      O34984   9.559   5.478   3.511
11581WAT     H134985   9.579   5.534   3.591
11581WAT     H234986   9.538   5.384   3.540
11582WAT      O34987   3.578   2.950   2.549
11582WAT     H134988   3.606   2.944   2.645
11582WAT     H234989   3.509   3.022   2.539
11583WAT      O34990   3.859   5.367   9.231
11583WAT     H134991   3.772   5.354   9.183
11583WAT     H234992   3.900   5.453   9.201
11584WAT      O34993   2.644   5.405   3.230
11584WAT     H134994   2.651   5.505   3.231
11584WAT     H234995   2.727   5.366   3.191
11585WAT      O34996   7.588   7.993   0.729
11585WAT     H134997   7.499   8.039   0.728
11585WAT     H234998   7.589   7.924   0.802
11586WAT      O34999   7.082   8.835   4.491
11586WAT     H135000   7.060   8.837   4.589
11586WAT     H235001   7.135   8.916   4.467
11587WAT      O35002   6.803   2.916   1.698
11587WAT     H135003   6.850   2.868   1.771
11587WAT     H235004   6.798   3.014   1.720
11588WAT      O35005   1.704   1.922   6.988
11588WAT     H135006   1.664   1.837   7.022
11588WAT     H235007   1.745   1.906   6.899
11589WAT      O35008   2.849   6.369   0.028
11589WAT     H135009   2.810   6.276   0.023
11589WAT     H235010   2.913   6.382  -0.047
11590WAT      O35011   0.903   7.914   6.779
11590WAT     H135012   0.901   7.965   6.865
11590WAT     H235013   0.901   7.977   6.702
11591WAT      O35014   2.196   8.954   7.366
11591WAT     H135015   2.278   8.937   7.311
11591WAT     H235016   2.216   9.025   7.434
11592WAT      O35017   9.492   8.003   0.286
11592WAT     H135018   9.497   8.016   0.385
11592WAT     H235019   9.530   8.084   0.240
11593WAT      O35020   9.358   9.574   9.115
11593WAT     H135021   9.364   9.504   9.187
11593WAT     H235022   9.310   9.537   9.036
11594WAT      O35023   0.473   7.539   9.066
11594WAT     H135024   0.500   7.467   9.002
11594WAT     H235025   0.546   7.550   9.135
11595WAT      O35026   8.910   3.973   6.905
11595WAT     H135027   8.825   4.023   6.889
11595WAT     H235028   8.948   3.943   6.818
11596WAT      O35029   4.168   1.511   4.205
11596WAT     H135030   4.091   1.574   4.208
11596WAT     H235031   4.169   1.455   4.287
11597WAT      O35032   3.922   4.254   1.595
11597WAT     H135033   3.873   4.250   1.682
11597WAT     H235034   3.859   4.231   1.521
11598WAT      O35035   3.249   5.940   9.370
11598WAT     H135036   3.215   5.897   9.454
11598WAT     H235037   3.209   6.032   9.362
11599WAT      O35038   9.263   2.655   7.073
11599WAT     H135039   9.321   2.576   7.094
11599WAT     H235040   9.224   2.644   6.982
11600WAT      O35041   9.386   1.494   9.356
11600WAT     H135042   9.406   1.542   9.441
11600WAT     H235043   9.446   1.415   9.347
11601WAT      O35044   5.044   5.889   9.278
11601WAT     H135045   5.053   5.981   9.240
11601WAT     H235046   4.964   5.884   9.336
11602WAT      O35047   5.013   0.281   2.714
11602WAT     H135048   5.092   0.265   2.655
11602WAT     H235049   5.029   0.243   2.804
11603WAT      O35050   3.691   2.685   0.277
11603WAT     H135051   3.755   2.652   0.208
11603WAT     H235052   3.720   2.655   0.368
11604WAT      O35053   3.418   7.033   7.503
11604WAT     H135054   3.427   7.008   7.599
11604WAT     H235055   3.390   6.953   7.450
11605WAT      O35056   4.783   6.417   3.230
11605WAT     H135057   4.871   6.370   3.237
11605WAT     H235058   4.741   6.396   3.142
11606WAT      O35059   3.463   4.843   8.495
11606WAT     H135060   3.364   4.841   8.483
11606WAT     H235061   3.498   4.750   8.509
11607WAT      O35062   1.398   2.175   5.016
11607WAT     H135063   1.314   2.121   5.022
11607WAT     H235064   1.477   2.114   5.009
11608WAT      O35065   1.924   8.828   3.553
11608WAT     H135066   1.885   8.799   3.640
11608WAT     H235067   1.852   8.839   3.486
11609WAT      O35068   5.793   7.206   3.357
11609WAT     H135069   5.877   7.251   3.326
11609WAT     H235070   5.776   7.125   3.301
11610WAT      O35071   4.916   8.655   3.155
11610WAT     H135072   4.837   8.667   3.095
11610WAT     H235073   4.916   8.727   3.225
11611WAT      O35074   0.851   0.339   3.359
11611WAT     H135075   0.907   0.398   3.301
11611WAT     H235076   0.771   0.389   3.391
11612WAT      O35077   7.794   7.654   1.538
11612WAT     H135078   7.840   7.571   1.508
11612WAT     H235079   7.715   7.630   1.595
11613WAT      O35080   0.787   5.937   7.150
11613WAT     H135081   0.864   5.882   7.118
11613WAT     H235082   0.781   5.930   7.250
11614WAT      O35083   6.119   1.640   3.045
11614WAT     H135084   6.020   1.624   3.037
11614WAT     H235085   6.164   1.608   2.961
11615WAT      O35086   7.932   5.251   0.921
11615WAT     H135087   7.863   5.179   0.920
11615WAT     H235088   8.005   5.229   0.857
11616WAT      O35089   2.641   4.428   9.628
11616WAT     H135090   2.622   4.521   9.660
11616WAT     H235091   2.725   4.427   9.574
11617WAT      O35092   4.728   8.677   0.997
11617WAT     H135093   4.823   8.699   0.972
11617WAT     H235094   4.727   8.621   1.080
11618WAT      O35095   9.073   8.509   0.821
11618WAT     H135096   9.157   8.540   0.866
11618WAT     H235097   9.076   8.534   0.724
11619WAT      O35098   2.424   9.324   0.977
11619WAT     H135099   2.422   9.410   1.028
11619WAT     H235100   2.334   9.306   0.938
11620WAT      O35101   9.256   4.751   2.178
11620WAT     H135102   9.212   4.698   2.251
11620WAT     H235103   9.211   4.733   2.091
11621WAT      O35104   4.482   6.745   8.951
11621WAT     H135105   4.408   6.712   8.892
11621WAT     H235106   4.449   6.748   9.046
11622WAT      O35107   2.556   7.046   4.537
11622WAT     H135108   2.542   7.123   4.599
11622WAT     H235109   2.648   7.009   4.550
11623WAT      O35110   4.426   1.644   1.430
11623WAT     H135111   4.480   1.724   1.455
11623WAT     H235112   4.444   1.571   1.496
11624WAT      O35113   6.863   6.455   3.582
11624WAT     H135114   6.844   6.404   3.666
11624WAT     H235115   6.956   6.491   3.585
11625WAT      O35116   4.569   2.296   8.620
11625WAT     H135117   4.475   2.323   8.601
11625WAT     H235118   4.570   2.209   8.669
11626WAT      O35119   3.867   7.603   5.260
11626WAT     H135120   3.931   7.667   5.303
11626WAT     H235121   3.913   7.515   5.248
11627WAT      O35122   7.735   5.007   2.543
11627WAT     H135123   7.707   4.911   2.538
11627WAT     H235124   7.700   5.057   2.464
11628WAT      O35125   4.142   2.548   0.231
11628WAT     H135126   4.188   2.569   0.146
11628WAT     H235127   4.148   2.626   0.293
11629WAT      O35128   0.890   4.975   1.689
11629WAT     H135129   0.912   5.071   1.710
11629WAT     H235130   0.926   4.916   1.760
11630WAT      O35131   9.802   4.114   9.437
11630WAT     H135132   9.833   4.035   9.383
11630WAT     H235133   9.859   4.193   9.417
11631WAT      O35134   6.794   5.738   6.651
11631WAT     H135135   6.780   5.825   6.697
11631WAT     H235136   6.865   5.748   6.581
11632WAT      O35137   1.466   4.619   1.148
11632WAT     H135138   1.501   4.531   1.179
11632WAT     H235139   1.403   4.605   1.072
11633WAT      O35140   2.010   6.172   6.149
11633WAT     H135141   2.099   6.205   6.182
11633WAT     H235142   1.947   6.162   6.225
11634WAT      O35143   7.268   4.605   7.713
11634WAT     H135144   7.316   4.666   7.649
11634WAT     H235145   7.208   4.545   7.661
11635WAT      O35146   8.708   2.092   0.692
11635WAT     H135147   8.714   2.015   0.630
11635WAT     H235148   8.798   2.135   0.702
11636WAT      O35149   3.751   5.000   4.652
11636WAT     H135150   3.676   4.944   4.686
11636WAT     H235151   3.756   5.085   4.705
11637WAT      O35152   5.287   8.500   1.788
11637WAT     H135153   5.374   8.539   1.817
11637WAT     H235154   5.283   8.404   1.813
11638WAT      O35155   1.995   8.420   3.469
11638WAT     H135156   2.083   8.373   3.472
11638WAT     H235157   1.939   8.393   3.547
11639WAT      O35158   6.262   0.838   8.258
11639WAT     H135159   6.357   0.804   8.255
11639WAT     H235160   6.200   0.760   8.265
11640WAT      O35161   2.306   2.781   9.793
11640WAT     H135162   2.223   2.794   9.739
11640WAT     H235163   2.368   2.720   9.744
11641WAT      O35164   9.441   5.371   7.336
11641WAT     H135165   9.500   5.451   7.350
11641WAT     H235166   9.442   5.315   7.419
11642WAT      O35167   5.882   3.943   8.983
11642WAT     H135168   5.816   3.971   9.053
11642WAT     H235169   5.899   4.019   8.920
11643WAT      O35170   9.385   9.722   6.812
11643WAT     H135171   9.424   9.813   6.820
11643WAT     H235172   9.285   9.728   6.813
11644WAT      O35173   4.082   9.004   8.308
11644WAT     H135174   4.149   8.956   8.364
11644WAT     H235175   4.019   8.938   8.268
11645WAT      O35176   3.465   2.295   5.494
11645WAT     H135177   3.374   2.336   5.494
11645WAT     H235178   3.456   2.196   5.484
11646WAT      O35179   1.931   4.927   8.456
11646WAT     H135180   1.833   4.908   8.455
11646WAT     H235181   1.952   5.000   8.390
11647WAT      O35182   2.111   7.433   3.743
11647WAT     H135183   2.069   7.498   3.680
11647WAT     H235184   2.166   7.367   3.691
11648WAT      O35185   8.830   4.099   7.700
11648WAT     H135186   8.897   4.150   7.754
11648WAT     H235187   8.743   4.147   7.700
11649WAT      O35188   8.221   4.151   4.947
11649WAT     H135189   8.140   4.122   4.896
11649WAT     H235190   8.202   4.146   5.045
11650WAT      O35191   1.159   1.174   8.743
11650WAT     H135192   1.094   1.216   8.680
11650WAT     H235193   1.133   1.194   8.837
11651WAT      O35194   5.865   8.119   0.061
11651WAT     H135195   5.830   8.212   0.049
11651WAT     H235196   5.936   8.119   0.131
11652WAT      O35197   9.503   5.283   2.744
11652WAT     H135198   9.587   5.288   2.799
11652WAT     H235199   9.513   5.210   2.676
11653WAT      O35200   7.373   3.376   4.299
11653WAT     H135201   7.329   3.304   4.246
11653WAT     H235202   7.417   3.441   4.238
11654WAT      O35203   9.025   6.750   4.710
11654WAT     H135204   8.938   6.719   4.672
11654WAT     H235205   9.084   6.671   4.725
11655WAT      O35206   8.257   4.418   0.828
11655WAT     H135207   8.357   4.413   0.823
11655WAT     H235208   8.217   4.361   0.757
11656WAT      O35209   4.574   4.389   3.390
11656WAT     H135210   4.494   4.391   3.329
11656WAT     H235211   4.589   4.296   3.423
11657WAT      O35212   8.980   4.055   5.167
11657WAT     H135213   9.044   4.131   5.176
11657WAT     H235214   8.967   4.011   5.255
11658WAT      O35215   3.167   5.152   8.663
11658WAT     H135216   3.216   5.084   8.608
11658WAT     H235217   3.093   5.108   8.712
11659WAT      O35218   3.617   9.138   6.125
11659WAT     H135219   3.547   9.084   6.171
11659WAT     H235220   3.586   9.160   6.032
11660WAT      O35221   7.244   0.053   8.106
11660WAT     H135222   7.182   0.103   8.045
11660WAT     H235223   7.216   0.067   8.201
11661WAT      O35224   6.381   7.174   3.946
11661WAT     H135225   6.374   7.251   3.882
11661WAT     H235226   6.475   7.142   3.948
11662WAT      O35227   7.275   1.946   3.917
11662WAT     H135228   7.211   1.897   3.857
11662WAT     H235229   7.313   1.882   3.984
11663WAT      O35230   0.961   5.841   2.767
11663WAT     H135231   0.999   5.933   2.750
11663WAT     H235232   0.922   5.838   2.858
11664WAT      O35233   8.004   9.154   2.175
11664WAT     H135234   8.064   9.219   2.222
11664WAT     H235235   7.960   9.198   2.097
11665WAT      O35236   3.414   2.868   8.198
11665WAT     H135237   3.408   2.769   8.199
11665WAT     H235238   3.508   2.896   8.220
11666WAT      O35239   6.078   4.810   9.351
11666WAT     H135240   6.010   4.737   9.343
11666WAT     H235241   6.101   4.844   9.260
11667WAT      O35242   2.021   2.022   0.821
11667WAT     H135243   1.966   2.104   0.840
11667WAT     H235244   2.008   1.995   0.726
11668WAT      O35245   2.959   0.994   5.278
11668WAT     H135246   2.994   1.055   5.349
11668WAT     H235247   3.035   0.945   5.236
11669WAT      O35248   9.869   6.060   0.075
11669WAT     H135249   9.806   6.025   0.143
11669WAT     H235250   9.861   6.006  -0.009
11670WAT      O35251   6.585   8.668   2.498
11670WAT     H135252   6.587   8.669   2.598
11670WAT     H235253   6.492   8.685   2.466
11671WAT      O35254   0.523   3.977   2.893
11671WAT     H135255   0.621   3.961   2.904
11671WAT     H235256   0.507   4.075   2.879
11672WAT      O35257   2.278   7.704   9.425
11672WAT     H135258   2.343   7.731   9.354
11672WAT     H235259   2.298   7.755   9.509
11673WAT      O35260   1.214   1.668   1.434
11673WAT     H135261   1.302   1.688   1.478
11673WAT     H235262   1.225   1.667   1.335
11674WAT      O35263   6.768   6.364   4.433
11674WAT     H135264   6.696   6.420   4.390
11674WAT     H235265   6.777   6.389   4.529
11675WAT      O35266   5.234   2.422   0.722
11675WAT     H135267   5.213   2.369   0.640
11675WAT     H235268   5.154   2.424   0.782
11676WAT      O35269   5.568   2.240   8.131
11676WAT     H135270   5.648   2.297   8.113
11676WAT     H235271   5.496   2.295   8.173
11677WAT      O35272   2.304   1.179   0.090
11677WAT     H135273   2.356   1.241   0.149
11677WAT     H235274   2.298   1.216  -0.002
11678WAT      O35275   7.310   9.548   1.355
11678WAT     H135276   7.310   9.616   1.428
11678WAT     H235277   7.234   9.566   1.292
11679WAT      O35278   7.697   3.451   8.784
11679WAT     H135279   7.605   3.441   8.822
11679WAT     H235280   7.694   3.440   8.685
11680WAT      O35281   5.766   2.404   7.803
11680WAT     H135282   5.807   2.397   7.713
11680WAT     H235283   5.779   2.497   7.838
11681WAT      O35284   0.148   8.480   4.211
11681WAT     H135285   0.238   8.436   4.206
11681WAT     H235286   0.081   8.413   4.244
11682WAT      O35287   5.969   3.096   0.150
11682WAT     H135288   5.962   3.047   0.236
11682WAT     H235289   5.917   3.049   0.079
11683WAT      O35290   2.466   6.485   0.073
11683WAT     H135291   2.518   6.569   0.090
11683WAT     H235292   2.509   6.410   0.123
11684WAT      O35293   0.914   9.695   7.452
11684WAT     H135294   0.817   9.715   7.465
11684WAT     H235295   0.929   9.656   7.361
11685WAT      O35296   9.516   2.476   9.066
11685WAT     H135297   9.436   2.423   9.091
11685WAT     H235298   9.591   2.414   9.042
11686WAT      O35299   5.726   3.295   6.705
11686WAT     H135300   5.687   3.210   6.670
11686WAT     H235301   5.792   3.331   6.639
11687WAT      O35302   9.147   0.547   7.449
11687WAT     H135303   9.132   0.458   7.494
11687WAT     H235304   9.157   0.533   7.351
11688WAT      O35305   8.493   5.445   6.501
11688WAT     H135306   8.397   5.438   6.528
11688WAT     H235307   8.503   5.418   6.405
11689WAT      O35308   6.777   2.701   4.534
11689WAT     H135309   6.840   2.654   4.596
11689WAT     H235310   6.786   2.662   4.442
11690WAT      O35311   6.638   1.945   3.407
11690WAT     H135312   6.688   2.014   3.355
11690WAT     H235313   6.643   1.965   3.504
11691WAT      O35314   9.207   4.175   8.097
11691WAT     H135315   9.165   4.132   8.016
11691WAT     H235316   9.188   4.119   8.178
11692WAT      O35317   2.286   8.224   1.932
11692WAT     H135318   2.260   8.320   1.944
11692WAT     H235319   2.209   8.166   1.956
11693WAT      O35320   0.015   9.162   8.661
11693WAT     H135321   0.017   9.224   8.740
11693WAT     H235322  -0.055   9.193   8.596
11694WAT      O35323   2.765   8.431   5.090
11694WAT     H135324   2.831   8.477   5.031
11694WAT     H235325   2.771   8.332   5.077
11695WAT      O35326   6.026   2.693   0.268
11695WAT     H135327   6.050   2.722   0.175
11695WAT     H235328   5.932   2.723   0.288
11696WAT      O35329   5.992   4.374   7.004
11696WAT     H135330   5.927   4.304   7.035
11696WAT     H235331   5.971   4.461   7.047
11697WAT      O35332   5.492   7.482   5.590
11697WAT     H135333   5.433   7.488   5.671
11697WAT     H235334   5.462   7.407   5.532
11698WAT      O35335   7.174   2.983   8.482
11698WAT     H135336   7.232   2.940   8.551
11698WAT     H235337   7.113   3.049   8.526
11699WAT      O35338   7.253   5.409   2.656
11699WAT     H135339   7.167   5.460   2.646
11699WAT     H235340   7.297   5.435   2.742
11700WAT      O35341   6.745   9.765   6.369
11700WAT     H135342   6.758   9.855   6.410
11700WAT     H235343   6.764   9.770   6.271
11701WAT      O35344   7.704   2.810   3.998
11701WAT     H135345   7.665   2.841   4.085
11701WAT     H235346   7.730   2.890   3.944
11702WAT      O35347   6.554   7.129   2.204
11702WAT     H135348   6.506   7.167   2.125
11702WAT     H235349   6.581   7.035   2.183
11703WAT      O35350   2.528   4.174   3.762
11703WAT     H135351   2.560   4.248   3.704
11703WAT     H235352   2.514   4.208   3.855
11704WAT      O35353   8.074   8.819   8.757
11704WAT     H135354   8.031   8.892   8.704
11704WAT     H235355   8.015   8.738   8.755
11705WAT      O35356   9.043   7.410   0.825
11705WAT     H135357   9.128   7.419   0.877
11705WAT     H235358   8.972   7.466   0.867
11706WAT      O35359   9.713   5.062   9.883
11706WAT     H135360   9.639   5.102   9.829
11706WAT     H235361   9.737   4.973   9.845
11707WAT      O35362   4.111   7.784   4.100
11707WAT     H135363   4.197   7.831   4.120
11707WAT     H235364   4.040   7.817   4.161
11708WAT      O35365   5.965   5.037   4.558
11708WAT     H135366   5.927   4.961   4.612
11708WAT     H235367   6.063   5.020   4.542
11709WAT      O35368   2.894   0.228   8.055
11709WAT     H135369   2.975   0.191   8.008
11709WAT     H235370   2.887   0.189   8.146
11710WAT      O35371   1.488   5.494   4.810
11710WAT     H135372   1.550   5.569   4.792
11710WAT     H235373   1.491   5.429   4.734
11711WAT      O35374   0.105   5.637   0.025
11711WAT     H135375   0.063   5.678   0.106
11711WAT     H235376   0.204   5.630   0.039
11712WAT      O35377   4.277   2.122   6.880
11712WAT     H135378   4.290   2.102   6.783
11712WAT     H235379   4.237   2.213   6.891
11713WAT      O35380   9.732   0.122   0.819
11713WAT     H135381   9.676   0.090   0.894
11713WAT     H235382   9.679   0.121   0.734
11714WAT      O35383   0.797   8.943   5.467
11714WAT     H135384   0.700   8.919   5.460
11714WAT     H235385   0.833   8.964   5.376
11715WAT      O35386   0.885   7.372   7.643
11715WAT     H135387   0.973   7.362   7.689
11715WAT     H235388   0.817   7.406   7.707
11716WAT      O35389   6.634   3.872   9.840
11716WAT     H135390   6.595   3.876   9.748
11716WAT     H235391   6.560   3.873   9.908
11717WAT      O35392   0.274   4.699   6.720
11717WAT     H135393   0.256   4.732   6.812
11717WAT     H235394   0.217   4.618   6.702
11718WAT      O35395   7.445   8.139   7.852
11718WAT     H135396   7.434   8.230   7.812
11718WAT     H235397   7.476   8.076   7.781
11719WAT      O35398   5.609   8.533   5.821
11719WAT     H135399   5.679   8.592   5.860
11719WAT     H235400   5.546   8.587   5.765
11720WAT      O35401   1.827   6.538   6.891
11720WAT     H135402   1.900   6.571   6.950
11720WAT     H235403   1.783   6.458   6.933
11721WAT      O35404   6.063   4.587   1.200
11721WAT     H135405   6.121   4.553   1.274
11721WAT     H235406   6.075   4.529   1.119
11722WAT      O35407   6.157   1.908   6.038
11722WAT     H135408   6.123   1.857   5.959
11722WAT     H235409   6.191   1.844   6.106
11723WAT      O35410   4.755   1.864   3.804
11723WAT     H135411   4.795   1.849   3.713
11723WAT     H235412   4.712   1.779   3.836
11724WAT      O35413   5.627   6.110   1.671
11724WAT     H135414   5.544   6.094   1.724
11724WAT     H235415   5.649   6.027   1.618
11725WAT      O35416   4.812   9.378   1.172
11725WAT     H135417   4.790   9.473   1.196
11725WAT     H235418   4.861   9.377   1.085
11726WAT      O35419   1.385   8.936   6.989
11726WAT     H135420   1.299   8.890   7.010
11726WAT     H235421   1.366   9.023   6.943
11727WAT      O35422   6.058   5.369   4.751
11727WAT     H135423   6.052   5.469   4.752
11727WAT     H235424   5.972   5.331   4.716
11728WAT      O35425   2.627   3.831   8.529
11728WAT     H135426   2.687   3.912   8.536
11728WAT     H235427   2.669   3.755   8.577
11729WAT      O35428   2.733   0.534   4.316
11729WAT     H135429   2.671   0.503   4.244
11729WAT     H235430   2.698   0.619   4.356
11730WAT      O35431   4.491   4.886   6.557
11730WAT     H135432   4.518   4.937   6.475
11730WAT     H235433   4.391   4.889   6.567
11731WAT      O35434   4.959   6.707   1.563
11731WAT     H135435   4.951   6.797   1.520
11731WAT     H235436   4.937   6.636   1.496
11732WAT      O35437   0.459   3.564   8.601
11732WAT     H135438   0.478   3.473   8.637
11732WAT     H235439   0.528   3.629   8.634
11733WAT      O35440   2.793   8.368   0.763
11733WAT     H135441   2.802   8.278   0.807
11733WAT     H235442   2.702   8.405   0.780
11734WAT      O35443   3.493   0.537   1.191
11734WAT     H135444   3.572   0.475   1.192
11734WAT     H235445   3.409   0.484   1.191
11735WAT      O35446   2.523   4.552   5.184
11735WAT     H135447   2.443   4.569   5.242
11735WAT     H235448   2.606   4.564   5.238
11736WAT      O35449   4.661   8.331   1.876
11736WAT     H135450   4.603   8.253   1.851
11736WAT     H235451   4.709   8.311   1.961
11737WAT      O35452   0.309   2.948   3.952
11737WAT     H135453   0.231   2.953   4.015
11737WAT     H235454   0.329   2.853   3.930
11738WAT      O35455   5.797   3.428   8.026
11738WAT     H135456   5.894   3.447   8.012
11738WAT     H235457   5.745   3.514   8.025
11739WAT      O35458   2.692   6.000   1.144
11739WAT     H135459   2.734   6.089   1.127
11739WAT     H235460   2.686   5.984   1.242
11740WAT      O35461   8.456   5.861   2.948
11740WAT     H135462   8.556   5.871   2.946
11740WAT     H235463   8.426   5.814   2.865
11741WAT      O35464   8.223   5.283   1.988
11741WAT     H135465   8.127   5.282   2.015
11741WAT     H235466   8.231   5.312   1.893
11742WAT      O35467   7.671   0.013   8.322
11742WAT     H135468   7.661   0.058   8.410
11742WAT     H235469   7.729   0.069   8.262
11743WAT      O35470   3.601   9.275   4.175
11743WAT     H135471   3.553   9.358   4.145
11743WAT     H235472   3.566   9.247   4.265
11744WAT      O35473   8.667   3.128   8.175
11744WAT     H135474   8.575   3.099   8.151
11744WAT     H235475   8.734   3.079   8.119
11745WAT      O35476   6.311   2.731   9.138
11745WAT     H135477   6.394   2.693   9.178
11745WAT     H235478   6.233   2.673   9.162
11746WAT      O35479   1.930   9.316   7.430
11746WAT     H135480   1.923   9.334   7.528
11746WAT     H235481   1.889   9.228   7.409
11747WAT      O35482   8.212   5.203   5.489
11747WAT     H135483   8.116   5.226   5.472
11747WAT     H235484   8.264   5.213   5.404
11748WAT      O35485   1.147   0.969   7.127
11748WAT     H135486   1.113   0.892   7.181
11748WAT     H235487   1.246   0.974   7.134
11749WAT      O35488   8.281   2.890   4.834
11749WAT     H135489   8.329   2.848   4.757
11749WAT     H235490   8.248   2.981   4.808
11750WAT      O35491   1.277   5.325   4.879
11750WAT     H135492   1.359   5.382   4.880
11750WAT     H235493   1.196   5.383   4.870
11751WAT      O35494   6.628   7.234   5.395
11751WAT     H135495   6.545   7.285   5.372
11751WAT     H235496   6.602   7.143   5.429
11752WAT      O35497   4.088   0.627   0.110
11752WAT     H135498   4.101   0.656   0.205
11752WAT     H235499   4.018   0.685   0.067
11753WAT      O35500   9.136   9.791   1.941
11753WAT     H135501   9.109   9.887   1.935
11753WAT     H235502   9.058   9.733   1.920
11754WAT      O35503   6.449   0.465   1.581
11754WAT     H135504   6.423   0.562   1.583
11754WAT     H235505   6.448   0.428   1.674
11755WAT      O35506   5.913   8.238   8.391
11755WAT     H135507   5.881   8.145   8.406
11755WAT     H235508   5.853   8.302   8.440
11756WAT      O35509   8.471   8.362   7.944
11756WAT     H135510   8.486   8.435   8.010
11756WAT     H235511   8.388   8.311   7.968
11757WAT      O35512   2.734   3.087   3.232
11757WAT     H135513   2.743   3.063   3.136
11757WAT     H235514   2.750   3.185   3.244
11758WAT      O35515   6.670   5.078   6.334
11758WAT     H135516   6.576   5.111   6.339
11758WAT     H235517   6.713   5.088   6.424
11759WAT      O35518   5.236   0.098   0.395
11759WAT     H135519   5.196   0.157   0.464
11759WAT     H235520   5.275   0.017   0.440
11760WAT      O35521   4.287   6.365   6.906
11760WAT     H135522   4.203   6.320   6.936
11760WAT     H235523   4.308   6.442   6.967
11761WAT      O35524   8.427   6.013   9.168
11761WAT     H135525   8.394   6.089   9.224
11761WAT     H235526   8.448   6.046   9.076
11762WAT      O35527   6.751   3.950   5.359
11762WAT     H135528   6.785   4.035   5.317
11762WAT     H235529   6.660   3.930   5.323
11763WAT      O35530   6.856   9.348   1.048
11763WAT     H135531   6.861   9.409   1.127
11763WAT     H235532   6.947   9.311   1.029
11764WAT      O35533   4.274   3.598   6.175
11764WAT     H135534   4.197   3.601   6.110
11764WAT     H235535   4.347   3.541   6.138
11765WAT      O35536   6.681   6.431   7.199
11765WAT     H135537   6.617   6.355   7.208
11765WAT     H235538   6.690   6.478   7.287
11766WAT      O35539   0.778   1.122   3.865
11766WAT     H135540   0.822   1.134   3.955
11766WAT     H235541   0.774   1.025   3.843
11767WAT      O35542   1.674   3.909   2.312
11767WAT     H135543   1.714   3.894   2.402
11767WAT     H235544   1.736   3.874   2.242
11768WAT      O35545   4.975   1.811   1.278
11768WAT     H135546   5.035   1.754   1.221
11768WAT     H235547   4.915   1.865   1.219
11769WAT      O35548   6.416   0.817   3.081
11769WAT     H135549   6.470   0.746   3.126
11769WAT     H235550   6.406   0.896   3.142
11770WAT      O35551   5.615   1.382   6.596
11770WAT     H135552   5.692   1.369   6.659
11770WAT     H235553   5.530   1.385   6.648
11771WAT      O35554   9.041   1.762   7.208
11771WAT     H135555   8.972   1.816   7.159
11771WAT     H235556   9.085   1.699   7.145
11772WAT      O35557   4.609   4.811   2.221
11772WAT     H135558   4.547   4.739   2.188
11772WAT     H235559   4.703   4.780   2.212
11773WAT      O35560   4.601   0.201   7.396
11773WAT     H135561   4.600   0.193   7.296
11773WAT     H235562   4.568   0.291   7.422
11774WAT      O35563   9.267   0.655   8.085
11774WAT     H135564   9.358   0.690   8.109
11774WAT     H235565   9.253   0.566   8.129
11775WAT      O35566   9.602   1.070   4.435
11775WAT     H135567   9.632   0.977   4.459
11775WAT     H235568   9.526   1.097   4.494
11776WAT      O35569   4.880   8.487   9.403
11776WAT     H135570   4.856   8.584   9.406
11776WAT     H235571   4.839   8.446   9.321
11777WAT      O35572   8.085   4.628   8.098
11777WAT     H135573   8.166   4.638   8.156
11777WAT     H235574   8.113   4.597   8.007
11778WAT      O35575   3.569   9.390   6.430
11778WAT     H135576   3.497   9.327   6.459
11778WAT     H235577   3.571   9.395   6.330
11779WAT      O35578   9.597   8.736   4.179
11779WAT     H135579   9.566   8.664   4.118
11779WAT     H235580   9.662   8.699   4.245
11780WAT      O35581   2.388   2.245   3.586
11780WAT     H135582   2.472   2.256   3.640
11780WAT     H235583   2.362   2.148   3.586
11781WAT      O35584   5.746   8.924   7.650
11781WAT     H135585   5.651   8.951   7.658
11781WAT     H235586   5.751   8.829   7.616
11782WAT      O35587   1.286   8.394   0.053
11782WAT     H135588   1.366   8.358   0.101
11782WAT     H235589   1.225   8.318   0.030
11783WAT      O35590   2.453   6.622   7.862
11783WAT     H135591   2.385   6.619   7.935
11783WAT     H235592   2.456   6.715   7.823
11784WAT      O35593   9.511   9.587   7.003
11784WAT     H135594   9.445   9.523   7.042
11784WAT     H235595   9.472   9.630   6.922
11785WAT      O35596   5.502   6.753   5.412
11785WAT     H135597   5.429   6.726   5.475
11785WAT     H235598   5.496   6.696   5.330
11786WAT      O35599   4.096   0.589   6.563
11786WAT     H135600   4.023   0.647   6.598
11786WAT     H235601   4.080   0.494   6.592
11787WAT      O35602   4.324   5.991   0.384
11787WAT     H135603   4.369   6.074   0.415
11787WAT     H235604   4.279   6.008   0.297
11788WAT      O35605   7.021   8.764   4.232
11788WAT     H135606   6.989   8.670   4.243
11788WAT     H235607   7.054   8.798   4.320
11789WAT      O35608   4.840   6.676   1.820
11789WAT     H135609   4.851   6.756   1.879
11789WAT     H235610   4.874   6.697   1.728
11790WAT      O35611   7.404   1.803   4.108
11790WAT     H135612   7.386   1.843   4.197
11790WAT     H235613   7.457   1.719   4.118
11791WAT      O35614   2.865   5.210   4.835
11791WAT     H135615   2.767   5.188   4.836
11791WAT     H235616   2.880   5.301   4.872
11792WAT      O35617   8.952   9.586   9.238
11792WAT     H135618   8.859   9.620   9.249
11792WAT     H235619   9.017   9.657   9.266
11793WAT      O35620   8.970   8.288   3.104
11793WAT     H135621   8.978   8.328   3.012
11793WAT     H235622   9.058   8.248   3.130
11794WAT      O35623   7.143   1.605   6.025
11794WAT     H135624   7.169   1.543   5.950
11794WAT     H235625   7.220   1.614   6.089
11795WAT      O35626   2.344   9.468   6.508
11795WAT     H135627   2.409   9.520   6.452
11795WAT     H235628   2.264   9.525   6.528
11796WAT      O35629   0.794   2.485   4.466
11796WAT     H135630   0.819   2.523   4.377
11796WAT     H235631   0.708   2.435   4.458
11797WAT      O35632   3.921   8.096   9.279
11797WAT     H135633   3.827   8.067   9.295
11797WAT     H235634   3.945   8.077   9.184
11798WAT      O35635   7.770   2.449   2.688
11798WAT     H135636   7.829   2.370   2.671
11798WAT     H235637   7.792   2.521   2.621
11799WAT      O35638   6.926   1.437   5.992
11799WAT     H135639   6.992   1.513   5.992
11799WAT     H235640   6.834   1.473   5.982
11800WAT      O35641   9.438   4.219   3.191
11800WAT     H135642   9.493   4.136   3.197
11800WAT     H235643   9.443   4.269   3.277
11801WAT      O35644   9.473   5.487   7.666
11801WAT     H135645   9.545   5.485   7.597
11801WAT     H235646   9.449   5.393   7.692
11802WAT      O35647   7.213   4.008   6.853
11802WAT     H135648   7.284   4.079   6.861
11802WAT     H235649   7.228   3.956   6.769
11803WAT      O35650   1.813   4.544   4.869
11803WAT     H135651   1.817   4.522   4.771
11803WAT     H235652   1.902   4.578   4.899
11804WAT      O35653   0.753   7.368   1.315
11804WAT     H135654   0.723   7.463   1.303
11804WAT     H235655   0.842   7.356   1.270
11805WAT      O35656   3.630   6.665   0.626
11805WAT     H135657   3.707   6.647   0.687
11805WAT     H235658   3.616   6.586   0.566
11806WAT      O35659   7.702   5.149   4.398
11806WAT     H135660   7.717   5.192   4.487
11806WAT     H235661   7.709   5.217   4.326
11807WAT      O35662   9.061   8.552   3.421
11807WAT     H135663   9.010   8.623   3.373
11807WAT     H235664   9.119   8.503   3.356
11808WAT      O35665   1.341   3.096   2.809
11808WAT     H135666   1.438   3.118   2.807
11808WAT     H235667   1.323   3.017   2.750
11809WAT      O35668   9.673   6.725   3.271
11809WAT     H135669   9.731   6.793   3.316
11809WAT     H235670   9.677   6.639   3.323
11810WAT      O35671   9.815   3.180   6.585
11810WAT     H135672   9.857   3.107   6.531
11810WAT     H235673   9.885   3.227   6.639
11811WAT      O35674   3.954   6.067   9.562
11811WAT     H135675   3.943   6.124   9.644
11811WAT     H235676   3.969   6.125   9.483
11812WAT      O35677   8.625   7.129   7.295
11812WAT     H135678   8.556   7.104   7.227
11812WAT     H235679   8.676   7.209   7.264
11813WAT      O35680   5.520   8.048   2.855
11813WAT     H135681   5.570   8.135   2.849
11813WAT     H235682   5.562   7.990   2.925
11814WAT      O35683   3.938   4.463   2.474
11814WAT     H135684   3.946   4.557   2.441
11814WAT     H235685   3.999   4.450   2.552
11815WAT      O35686   0.374   4.623   1.651
11815WAT     H135687   0.322   4.583   1.576
11815WAT     H235688   0.427   4.701   1.617
11816WAT      O35689   0.003   4.340   4.183
11816WAT     H135690  -0.016   4.362   4.279
11816WAT     H235691   0.079   4.275   4.178
11817WAT      O35692   8.524   6.676   5.267
11817WAT     H135693   8.610   6.655   5.315
11817WAT     H235694   8.488   6.592   5.227
11818WAT      O35695   8.723   0.331   7.354
11818WAT     H135696   8.666   0.377   7.423
11818WAT     H235697   8.791   0.395   7.319
11819WAT      O35698   2.502   7.886   6.506
11819WAT     H135699   2.532   7.944   6.582
11819WAT     H235700   2.562   7.899   6.428
11820WAT      O35701   2.628   0.303   1.835
11820WAT     H135702   2.600   0.384   1.784
11820WAT     H235703   2.556   0.234   1.829
11821WAT      O35704   4.152   7.436   6.772
11821WAT     H135705   4.224   7.443   6.704
11821WAT     H235706   4.156   7.346   6.815
11822WAT      O35707   1.060   3.274   8.476
11822WAT     H135708   1.131   3.213   8.440
11822WAT     H235709   0.981   3.220   8.503
11823WAT      O35710   5.634   5.884   6.242
11823WAT     H135711   5.606   5.940   6.320
11823WAT     H235712   5.579   5.909   6.162
11824WAT      O35713   7.953   6.149   4.146
11824WAT     H135714   8.044   6.115   4.168
11824WAT     H235715   7.958   6.247   4.126
11825WAT      O35716   1.531   1.445   4.757
11825WAT     H135717   1.601   1.409   4.696
11825WAT     H235718   1.574   1.481   4.840
11826WAT      O35719   1.258   4.551   2.063
11826WAT     H135720   1.224   4.492   1.989
11826WAT     H235721   1.357   4.554   2.060
11827WAT      O35722   3.982   9.392   0.570
11827WAT     H135723   3.883   9.387   0.588
11827WAT     H235724   4.001   9.360   0.477
11828WAT      O35725   4.557   5.735   5.937
11828WAT     H135726   4.645   5.700   5.968
11828WAT     H235727   4.492   5.660   5.928
11829WAT      O35728   6.972   3.441   4.112
11829WAT     H135729   6.908   3.386   4.166
11829WAT     H235730   7.002   3.389   4.033
11830WAT      O35731   0.535   9.396   2.555
11830WAT     H135732   0.447   9.370   2.515
11830WAT     H235733   0.544   9.356   2.646
11831WAT      O35734   2.177   8.925   3.278
11831WAT     H135735   2.268   8.904   3.242
11831WAT     H235736   2.135   8.842   3.314
11832WAT      O35737   8.775   1.911   0.470
11832WAT     H135738   8.746   1.966   0.391
11832WAT     H235739   8.723   1.825   0.471
11833WAT      O35740   8.555   6.645   6.929
11833WAT     H135741   8.650   6.634   6.899
11833WAT     H235742   8.497   6.577   6.883
11834WAT      O35743   8.830   4.243   4.818
11834WAT     H135744   8.853   4.279   4.908
11834WAT     H235745   8.894   4.170   4.794
11835WAT      O35746   8.719   8.342   0.251
11835WAT     H135747   8.695   8.338   0.348
11835WAT     H235748   8.654   8.401   0.203
11836WAT      O35749   9.149   1.392   4.310
11836WAT     H135750   9.140   1.470   4.248
11836WAT     H235751   9.128   1.307   4.260
11837WAT      O35752   5.338   4.311   5.913
11837WAT     H135753   5.317   4.378   5.985
11837WAT     H235754   5.421   4.261   5.938
11838WAT      O35755   5.807   0.929   6.495
11838WAT     H135756   5.777   0.942   6.590
11838WAT     H235757   5.805   0.832   6.472
11839WAT      O35758   7.725   3.898   6.885
11839WAT     H135759   7.631   3.866   6.897
11839WAT     H235760   7.752   3.955   6.962
11840WAT      O35761   4.762   0.642   9.336
11840WAT     H135762   4.735   0.737   9.322
11840WAT     H235763   4.823   0.614   9.262
11841WAT      O35764   1.621   4.323   4.382
11841WAT     H135765   1.711   4.292   4.413
11841WAT     H235766   1.630   4.367   4.293
11842WAT      O35767   8.342   8.679   0.895
11842WAT     H135768   8.286   8.695   0.814
11842WAT     H235769   8.403   8.757   0.910
11843WAT      O35770   8.131   0.411   4.100
11843WAT     H135771   8.162   0.320   4.074
11843WAT     H235772   8.054   0.437   4.042
11844WAT      O35773   2.798   3.597   2.007
11844WAT     H135774   2.752   3.605   2.096
11844WAT     H235775   2.871   3.665   2.001
11845WAT      O35776   6.866   9.763   1.775
11845WAT     H135777   6.851   9.856   1.809
11845WAT     H235778   6.778   9.723   1.750
11846WAT      O35779   1.776   4.721   6.716
11846WAT     H135780   1.771   4.743   6.813
11846WAT     H235781   1.820   4.632   6.704
11847WAT      O35782   2.250   4.362   7.907
11847WAT     H135783   2.337   4.406   7.887
11847WAT     H235784   2.201   4.344   7.822
11848WAT      O35785   6.729   8.115   4.985
11848WAT     H135786   6.775   8.189   4.936
11848WAT     H235787   6.790   8.078   5.054
11849WAT      O35788   7.745   1.086   4.829
11849WAT     H135789   7.651   1.075   4.861
11849WAT     H235790   7.783   1.171   4.864
11850WAT      O35791   0.812   5.717   1.549
11850WAT     H135792   0.756   5.667   1.483
11850WAT     H235793   0.864   5.788   1.502
11851WAT      O35794   0.788   0.159   2.916
11851WAT     H135795   0.758   0.137   3.008
11851WAT     H235796   0.713   0.201   2.865
11852WAT      O35797   2.215   3.436   4.671
11852WAT     H135798   2.181   3.346   4.642
11852WAT     H235799   2.152   3.475   4.738
11853WAT      O35800   1.174   2.810   3.705
11853WAT     H135801   1.197   2.758   3.788
11853WAT     H235802   1.247   2.875   3.685
11854WAT      O35803   0.256   5.497   1.453
11854WAT     H135804   0.275   5.556   1.375
11854WAT     H235805   0.341   5.478   1.503
11855WAT      O35806   4.886   5.323   4.134
11855WAT     H135807   4.972   5.355   4.094
11855WAT     H235808   4.843   5.257   4.073
11856WAT      O35809   2.447   0.840   2.843
11856WAT     H135810   2.546   0.825   2.848
11856WAT     H235811   2.417   0.891   2.924
11857WAT      O35812   1.651   6.244   3.250
11857WAT     H135813   1.602   6.190   3.182
11857WAT     H235814   1.739   6.200   3.272
11858WAT      O35815   1.361   8.252   6.285
11858WAT     H135816   1.283   8.282   6.230
11858WAT     H235817   1.362   8.301   6.372
11859WAT      O35818   1.306   7.898   1.250
11859WAT     H135819   1.337   7.836   1.178
11859WAT     H235820   1.301   7.991   1.213
11860WAT      O35821   6.133   9.296   8.937
11860WAT     H135822   6.208   9.340   8.986
11860WAT     H235823   6.131   9.328   8.842
11861WAT      O35824   2.336   4.888   3.068
11861WAT     H135825   2.422   4.938   3.056
11861WAT     H235826   2.347   4.795   3.033
11862WAT      O35827   7.902   3.208   0.149
11862WAT     H135828   8.000   3.188   0.156
11862WAT     H235829   7.883   3.296   0.191
11863WAT      O35830   1.845   6.239   2.740
11863WAT     H135831   1.773   6.227   2.671
11863WAT     H235832   1.877   6.149   2.770
11864WAT      O35833   4.677   9.264   6.855
11864WAT     H135834   4.759   9.318   6.840
11864WAT     H235835   4.702   9.167   6.866
11865WAT      O35836   2.363   8.794   8.152
11865WAT     H135837   2.284   8.758   8.102
11865WAT     H235838   2.349   8.891   8.171
11866WAT      O35839   6.690   7.015   4.126
11866WAT     H135840   6.718   7.081   4.057
11866WAT     H235841   6.645   6.937   4.083
11867WAT      O35842   8.186   6.850   0.161
11867WAT     H135843   8.273   6.826   0.117
11867WAT     H235844   8.175   6.950   0.160
11868WAT      O35845   5.455   0.500   7.712
11868WAT     H135846   5.359   0.516   7.687
11868WAT     H235847   5.513   0.568   7.667
11869WAT      O35848   8.315   8.471   9.466
11869WAT     H135849   8.246   8.416   9.513
11869WAT     H235850   8.405   8.429   9.478
11870WAT      O35851   1.292   4.817   8.004
11870WAT     H135852   1.236   4.780   7.930
11870WAT     H235853   1.292   4.917   7.999
11871WAT      O35854   3.995   6.818   9.268
11871WAT     H135855   4.012   6.841   9.364
11871WAT     H235856   3.911   6.764   9.262
11872WAT      O35857   2.565   0.395   0.651
11872WAT     H135858   2.634   0.356   0.590
11872WAT     H235859   2.485   0.335   0.653
11873WAT      O35860   9.125   5.610   2.549
11873WAT     H135861   9.144   5.590   2.646
11873WAT     H235862   9.211   5.629   2.502
11874WAT      O35863   8.303   8.264   8.258
11874WAT     H135864   8.374   8.203   8.223
11874WAT     H235865   8.213   8.223   8.244
11875WAT      O35866   8.248   7.037   9.417
11875WAT     H135867   8.245   6.951   9.367
11875WAT     H235868   8.292   7.022   9.505
11876WAT      O35869   4.200   0.702   9.661
11876WAT     H135870   4.203   0.775   9.730
11876WAT     H235871   4.155   0.736   9.578
11877WAT      O35872   2.720   6.032   8.079
11877WAT     H135873   2.711   5.936   8.053
11877WAT     H235874   2.658   6.052   8.155
11878WAT      O35875   1.287   2.656   3.279
11878WAT     H135876   1.196   2.660   3.320
11878WAT     H235877   1.296   2.731   3.213
11879WAT      O35878   3.296   0.230   7.117
11879WAT     H135879   3.332   0.170   7.046
11879WAT     H235880   3.303   0.325   7.086
11880WAT      O35881   4.501   5.316   9.126
11880WAT     H135882   4.516   5.269   9.213
11880WAT     H235883   4.486   5.413   9.142
11881WAT      O35884   5.610   3.221   4.477
11881WAT     H135885   5.635   3.179   4.564
11881WAT     H235886   5.523   3.182   4.445
11882WAT      O35887   5.869   2.815   7.324
11882WAT     H135888   5.858   2.891   7.261
11882WAT     H235889   5.782   2.766   7.334
11883WAT      O35890   9.498   4.927   9.553
11883WAT     H135891   9.595   4.947   9.541
11883WAT     H235892   9.454   4.920   9.463
11884WAT      O35893   2.282   8.654   7.786
11884WAT     H135894   2.373   8.613   7.790
11884WAT     H235895   2.291   8.753   7.781
11885WAT      O35896   7.837   9.060   4.771
11885WAT     H135897   7.899   9.015   4.835
11885WAT     H235898   7.880   9.143   4.736
11886WAT      O35899   6.412   8.239   2.253
11886WAT     H135900   6.484   8.249   2.322
11886WAT     H235901   6.454   8.233   2.163
11887WAT      O35902   6.535   3.865   9.573
11887WAT     H135903   6.437   3.862   9.593
11887WAT     H235904   6.559   3.787   9.515
11888WAT      O35905   6.521   6.411   6.549
11888WAT     H135906   6.564   6.500   6.550
11888WAT     H235907   6.516   6.374   6.642
11889WAT      O35908   1.828   5.230   1.274
11889WAT     H135909   1.729   5.238   1.280
11889WAT     H235910   1.854   5.134   1.286
11890WAT      O35911   9.412   2.877   1.102
11890WAT     H135912   9.474   2.949   1.135
11890WAT     H235913   9.376   2.826   1.179
11891WAT      O35914   9.397   2.783   9.722
11891WAT     H135915   9.378   2.881   9.715
11891WAT     H235916   9.463   2.767   9.795
11892WAT      O35917   8.396   7.261   4.646
11892WAT     H135918   8.440   7.254   4.735
11892WAT     H235919   8.331   7.186   4.635
11893WAT      O35920   3.931   0.809   9.880
11893WAT     H135921   3.918   0.767   9.790
11893WAT     H235922   3.852   0.866   9.902
11894WAT      O35923   0.494   8.295   6.129
11894WAT     H135924   0.566   8.262   6.191
11894WAT     H235925   0.526   8.377   6.083
11895WAT      O35926   7.013   8.144   4.280
11895WAT     H135927   6.992   8.205   4.357
11895WAT     H235928   6.942   8.074   4.273
11896WAT      O35929   7.371   6.405   5.672
11896WAT     H135930   7.287   6.448   5.705
11896WAT     H235931   7.447   6.468   5.684
11897WAT      O35932   6.162   9.540   3.935
11897WAT     H135933   6.107   9.573   4.012
11897WAT     H235934   6.182   9.443   3.949
11898WAT      O35935   5.773   4.716   3.223
11898WAT     H135936   5.759   4.630   3.273
11898WAT     H235937   5.852   4.764   3.260
11899WAT      O35938   8.275   0.635   0.285
11899WAT     H135939   8.193   0.650   0.340
11899WAT     H235940   8.317   0.549   0.312
11900WAT      O35941   8.744   1.925   4.092
11900WAT     H135942   8.769   1.877   4.008
11900WAT     H235943   8.692   2.007   4.070
11901WAT      O35944   1.111   4.776   7.783
11901WAT     H135945   1.014   4.766   7.804
11901WAT     H235946   1.123   4.852   7.719
11902WAT      O35947   2.708   7.035   8.401
11902WAT     H135948   2.627   6.977   8.401
11902WAT     H235949   2.682   7.129   8.379
11903WAT      O35950   9.375   8.760   3.240
11903WAT     H135951   9.338   8.713   3.159
11903WAT     H235952   9.404   8.692   3.307
11904WAT      O35953   5.474   4.932   2.755
11904WAT     H135954   5.539   4.961   2.685
11904WAT     H235955   5.516   4.860   2.811
11905WAT      O35956   1.276   0.296   0.162
11905WAT     H135957   1.311   0.221   0.106
11905WAT     H235958   1.181   0.315   0.139
11906WAT      O35959   1.083   2.419   3.104
11906WAT     H135960   1.167   2.442   3.153
11906WAT     H235961   1.049   2.500   3.056
11907WAT      O35962   9.272   3.354   4.905
11907WAT     H135963   9.316   3.389   4.988
11907WAT     H235964   9.317   3.269   4.876
11908WAT      O35965   3.658   9.736   5.263
11908WAT     H135966   3.563   9.722   5.289
11908WAT     H235967   3.662   9.806   5.191
11909WAT      O35968   9.460   7.586   0.795
11909WAT     H135969   9.402   7.610   0.873
11909WAT     H235970   9.436   7.643   0.716
11910WAT      O35971   7.508   3.192   6.423
11910WAT     H135972   7.521   3.258   6.497
11910WAT     H235973   7.596   3.169   6.382
11911WAT      O35974   9.141   9.299   1.596
11911WAT     H135975   9.113   9.240   1.521
11911WAT     H235976   9.230   9.268   1.631
11912WAT      O35977   1.539   4.787   5.951
11912WAT     H135978   1.508   4.767   6.044
11912WAT     H235979   1.602   4.715   5.921
11913WAT      O35980   2.811   7.769   1.282
11913WAT     H135981   2.876   7.837   1.247
11913WAT     H235982   2.768   7.722   1.206
11914WAT      O35983   9.707   9.538   2.201
11914WAT     H135984   9.645   9.613   2.222
11914WAT     H235985   9.705   9.519   2.103
11915WAT      O35986   9.662   5.845   1.555
11915WAT     H135987   9.698   5.857   1.647
11915WAT     H235988   9.733   5.870   1.488
11916WAT      O35989   3.779   7.071   0.131
11916WAT     H135990   3.861   7.031   0.171
11916WAT     H235991   3.791   7.082   0.033
11917WAT      O35992   0.763   3.074   6.112
11917WAT     H135993   0.751   2.975   6.107
11917WAT     H235994   0.675   3.119   6.094
11918WAT      O35995   8.394   8.460   3.268
11918WAT     H135996   8.356   8.548   3.298
11918WAT     H235997   8.494   8.466   3.265
11919WAT      O35998   8.333   6.100   5.903
11919WAT     H135999   8.262   6.037   5.936
11919WAT     H236000   8.293   6.191   5.891
11920WAT      O36001   8.853   4.828   2.917
11920WAT     H136002   8.765   4.875   2.907
11920WAT     H236003   8.838   4.738   2.958
11921WAT      O36004   5.349   9.318   6.624
11921WAT     H136005   5.257   9.298   6.589
11921WAT     H236006   5.412   9.245   6.597
11922WAT      O36007   6.357   0.131   7.791
11922WAT     H136008   6.376   0.049   7.738
11922WAT     H236009   6.260   0.153   7.786
11923WAT      O36010   2.251   9.622   0.107
11923WAT     H136011   2.158   9.587   0.102
11923WAT     H236012   2.310   9.555   0.152
11924WAT      O36013   9.642   0.109   9.491
11924WAT     H136014   9.636   0.126   9.589
11924WAT     H236015   9.549   0.107   9.452
11925WAT      O36016   7.020   6.284   5.391
11925WAT     H136017   6.978   6.296   5.302
11925WAT     H236018   6.949   6.273   5.461
11926WAT      O36019   5.771   7.969   4.564
11926WAT     H136020   5.841   7.900   4.582
11926WAT     H236021   5.713   7.980   4.645
11927WAT      O36022   5.835   4.313   1.980
11927WAT     H136023   5.739   4.287   1.974
11927WAT     H236024   5.858   4.335   2.075
11928WAT      O36025   5.792   4.976   3.856
11928WAT     H136026   5.848   5.056   3.831
11928WAT     H236027   5.786   4.970   3.955
11929WAT      O36028   0.460   4.568   3.352
11929WAT     H136029   0.455   4.598   3.448
11929WAT     H236030   0.416   4.637   3.294
11930WAT      O36031   7.972   5.811   3.679
11930WAT     H136032   7.893   5.820   3.740
11930WAT     H236033   7.954   5.862   3.594
11931WAT      O36034   0.866   4.222   2.721
11931WAT     H136035   0.879   4.209   2.819
11931WAT     H236036   0.771   4.245   2.702
11932WAT      O36037   2.034   5.372   1.654
11932WAT     H136038   2.039   5.472   1.666
11932WAT     H236039   2.091   5.345   1.577
11933WAT      O36040   0.797   3.018   0.686
11933WAT     H136041   0.727   3.001   0.756
11933WAT     H236042   0.848   3.101   0.709
11934WAT      O36043   3.996   0.175   6.457
11934WAT     H136044   4.084   0.149   6.416
11934WAT     H236045   3.936   0.211   6.386
11935WAT      O36046   3.776   4.656   3.626
11935WAT     H136047   3.779   4.557   3.636
11935WAT     H236048   3.837   4.699   3.693
11936WAT      O36049   7.743   1.848   3.865
11936WAT     H136050   7.652   1.890   3.859
11936WAT     H236051   7.788   1.852   3.775
11937WAT      O36052   4.276   1.997   8.046
11937WAT     H136053   4.304   2.093   8.052
11937WAT     H236054   4.177   1.992   8.044
11938WAT      O36055   9.490   9.024   5.774
11938WAT     H136056   9.457   8.943   5.823
11938WAT     H236057   9.433   9.041   5.694
11939WAT      O36058   1.625   5.776   9.085
11939WAT     H136059   1.713   5.782   9.038
11939WAT     H236060   1.610   5.860   9.137
11940WAT      O36061   2.634   0.257   7.004
11940WAT     H136062   2.557   0.263   7.068
11940WAT     H236063   2.701   0.191   7.038
11941WAT      O36064   8.229   3.926   8.104
11941WAT     H136065   8.298   3.867   8.147
11941WAT     H236066   8.144   3.921   8.156
11942WAT      O36067   3.218   9.346   3.421
11942WAT     H136068   3.305   9.335   3.470
11942WAT     H236069   3.167   9.422   3.460
11943WAT      O36070   2.473   8.976   1.354
11943WAT     H136071   2.543   9.041   1.323
11943WAT     H236072   2.445   8.919   1.277
11944WAT      O36073   5.211   6.930   6.607
11944WAT     H136074   5.200   6.850   6.548
11944WAT     H236075   5.232   6.900   6.700
11945WAT      O36076   3.799   7.000   3.868
11945WAT     H136077   3.875   6.968   3.925
11945WAT     H236078   3.816   7.093   3.837
11946WAT      O36079   7.711   4.812   1.447
11946WAT     H136080   7.672   4.807   1.539
11946WAT     H236081   7.793   4.870   1.448
11947WAT      O36082   9.647   6.367   0.945
11947WAT     H136083   9.686   6.453   0.912
11947WAT     H236084   9.720   6.301   0.960
11948WAT      O36085   7.809   8.956   3.726
11948WAT     H136086   7.797   9.016   3.805
11948WAT     H236087   7.906   8.932   3.717
11949WAT      O36088   6.375   7.468   3.875
11949WAT     H136089   6.395   7.547   3.817
11949WAT     H236090   6.288   7.482   3.922
11950WAT      O36091   4.010   3.034   3.409
11950WAT     H136092   4.093   2.977   3.406
11950WAT     H236093   3.985   3.062   3.316
11951WAT      O36094   3.984   8.042   8.623
11951WAT     H136095   3.926   8.072   8.699
11951WAT     H236096   3.942   8.068   8.536
11952WAT      O36097   0.663   5.462   5.354
11952WAT     H136098   0.585   5.406   5.380
11952WAT     H236099   0.632   5.538   5.296
11953WAT      O36100   6.832   3.436   1.640
11953WAT     H136101   6.876   3.462   1.554
11953WAT     H236102   6.900   3.437   1.714
11954WAT      O36103   9.225   6.126   3.657
11954WAT     H136104   9.166   6.148   3.580
11954WAT     H236105   9.210   6.032   3.686
11955WAT      O36106   7.600   8.325   6.785
11955WAT     H136107   7.697   8.313   6.760
11955WAT     H236108   7.543   8.310   6.704
11956WAT      O36109   0.238   5.128   4.456
11956WAT     H136110   0.275   5.210   4.499
11956WAT     H236111   0.162   5.093   4.510
11957WAT      O36112   0.896   7.699   8.039
11957WAT     H136113   0.846   7.679   8.124
11957WAT     H236114   0.959   7.625   8.019
11958WAT      O36115   1.931   5.399   7.294
11958WAT     H136116   1.992   5.446   7.357
11958WAT     H236117   1.971   5.311   7.268
11959WAT      O36118   8.546   2.497   3.640
11959WAT     H136119   8.541   2.401   3.612
11959WAT     H236120   8.559   2.502   3.739
11960WAT      O36121   4.342   2.069   1.335
11960WAT     H136122   4.250   2.048   1.301
11960WAT     H236123   4.336   2.138   1.407
11961WAT      O36124   4.867   7.797   8.819
11961WAT     H136125   4.916   7.867   8.871
11961WAT     H236126   4.777   7.782   8.861
11962WAT      O36127   3.577   9.305   2.529
11962WAT     H136128   3.547   9.400   2.528
11962WAT     H236129   3.505   9.246   2.493
11963WAT      O36130   5.684   7.007   7.923
11963WAT     H136131   5.598   6.957   7.928
11963WAT     H236132   5.758   6.949   7.957
11964WAT      O36133   7.017   8.641   7.252
11964WAT     H136134   7.023   8.653   7.153
11964WAT     H236135   7.107   8.656   7.293
11965WAT      O36136   0.933   3.563   2.353
11965WAT     H136137   0.936   3.654   2.394
11965WAT     H236138   0.997   3.559   2.276
11966WAT      O36139   6.974   6.413   8.725
11966WAT     H136140   6.950   6.468   8.805
11966WAT     H236141   7.040   6.463   8.668
11967WAT      O36142   0.861   9.584   9.038
11967WAT     H136143   0.922   9.545   9.107
11967WAT     H236144   0.768   9.587   9.074
11968WAT      O36145   7.724   8.831   7.994
11968WAT     H136146   7.735   8.922   8.033
11968WAT     H236147   7.637   8.792   8.024
11969WAT      O36148   2.216   4.112   6.517
11969WAT     H136149   2.175   4.022   6.507
11969WAT     H236150   2.316   4.104   6.510
11970WAT      O36151   2.137   6.618   3.031
11970WAT     H136152   2.200   6.681   3.076
11970WAT     H236153   2.188   6.556   2.971
11971WAT      O36154   7.459   2.890   1.224
11971WAT     H136155   7.375   2.865   1.177
11971WAT     H236156   7.440   2.909   1.320
11972WAT      O36157   6.098   1.383   2.465
11972WAT     H136158   6.057   1.336   2.543
11972WAT     H236159   6.195   1.358   2.458
11973WAT      O36160   2.181   4.591   3.427
11973WAT     H136161   2.257   4.572   3.488
11973WAT     H236162   2.191   4.682   3.387
11974WAT      O36163   1.841   6.343   7.450
11974WAT     H136164   1.933   6.314   7.426
11974WAT     H236165   1.777   6.316   7.378
11975WAT      O36166   1.291   1.831   5.898
11975WAT     H136167   1.272   1.743   5.941
11975WAT     H236168   1.388   1.854   5.910
11976WAT      O36169   4.651   0.009   2.646
11976WAT     H136170   4.640   0.043   2.740
11976WAT     H236171   4.735  -0.044   2.639
11977WAT      O36172   3.555   1.772   5.734
11977WAT     H136173   3.498   1.803   5.658
11977WAT     H236174   3.551   1.839   5.809
11978WAT      O36175   6.416   8.443   2.688
11978WAT     H136176   6.461   8.529   2.710
11978WAT     H236177   6.381   8.401   2.772
11979WAT      O36178   4.052   5.318   0.210
11979WAT     H136179   4.023   5.345   0.302
11979WAT     H236180   4.006   5.375   0.142
11980WAT      O36181   0.799   3.651   3.018
11980WAT     H136182   0.792   3.571   2.959
11980WAT     H236183   0.793   3.623   3.114
11981WAT      O36184   5.017   2.808   4.937
11981WAT     H136185   4.936   2.851   4.897
11981WAT     H236186   5.026   2.839   5.032
11982WAT      O36187   5.632   3.379   6.100
11982WAT     H136188   5.707   3.391   6.166
11982WAT     H236189   5.660   3.415   6.011
11983WAT      O36190   8.618   1.090   4.761
11983WAT     H136191   8.595   1.155   4.833
11983WAT     H236192   8.612   1.135   4.672
11984WAT      O36193   9.336   6.601   4.447
11984WAT     H136194   9.343   6.689   4.495
11984WAT     H236195   9.270   6.610   4.372
11985WAT      O36196   9.653   1.002   7.172
11985WAT     H136197   9.593   0.977   7.096
11985WAT     H236198   9.748   1.003   7.140
11986WAT      O36199   4.923   5.855   0.498
11986WAT     H136200   4.979   5.897   0.427
11986WAT     H236201   4.983   5.812   0.566
11987WAT      O36202   9.587   3.856   0.686
11987WAT     H136203   9.658   3.921   0.659
11987WAT     H236204   9.537   3.892   0.765
11988WAT      O36205   4.698   7.510   8.796
11988WAT     H136206   4.653   7.427   8.764
11988WAT     H236207   4.638   7.559   8.859
11989WAT      O36208   2.649   3.002   8.809
11989WAT     H136209   2.737   2.955   8.801
11989WAT     H236210   2.664   3.094   8.844
11990WAT      O36211   8.007   5.808   6.071
11990WAT     H136212   7.911   5.781   6.067
11990WAT     H236213   8.041   5.798   6.164
11991WAT      O36214   9.654   4.734   0.791
11991WAT     H136215   9.600   4.667   0.741
11991WAT     H236216   9.752   4.717   0.776
11992WAT      O36217   7.664   8.729   6.156
11992WAT     H136218   7.643   8.788   6.078
11992WAT     H236219   7.639   8.775   6.241
11993WAT      O36220   7.597   0.432   3.839
11993WAT     H136221   7.690   0.439   3.877
11993WAT     H236222   7.600   0.454   3.741
11994WAT      O36223   6.186   3.728   2.439
11994WAT     H136224   6.233   3.786   2.505
11994WAT     H236225   6.152   3.646   2.485
11995WAT      O36226   1.356   2.862   9.184
11995WAT     H136227   1.394   2.952   9.160
11995WAT     H236228   1.413   2.820   9.255
11996WAT      O36229   0.079   5.549   2.087
11996WAT     H136230   0.080   5.599   2.000
11996WAT     H236231  -0.013   5.551   2.126
11997WAT      O36232   5.989   4.838   8.738
11997WAT     H136233   5.974   4.936   8.753
11997WAT     H236234   5.950   4.787   8.815
11998WAT      O36235   1.300   8.068   6.479
11998WAT     H136236   1.337   8.131   6.411
11998WAT     H236237   1.372   8.004   6.507
11999WAT      O36238   0.849   8.630   2.626
11999WAT     H136239   0.872   8.539   2.661
11999WAT     H236240   0.754   8.651   2.647
12000WAT      O36241   3.109   5.095   8.265
12000WAT     H136242   3.169   5.058   8.336
12000WAT     H236243   3.025   5.130   8.307
12001WAT      O36244   4.019   6.209   0.506
12001WAT     H136245   4.000   6.209   0.408
12001WAT     H236246   4.062   6.295   0.532
12002WAT      O36247   2.064   0.069   5.685
12002WAT     H136248   2.067   0.159   5.728
12002WAT     H236249   2.156   0.030   5.682
12003WAT      O36250   5.421   5.984   4.523
12003WAT     H136251   5.390   6.080   4.525
12003WAT     H236252   5.450   5.960   4.431
12004WAT      O36253   6.548   8.341   6.077
12004WAT     H136254   6.480   8.354   6.150
12004WAT     H236255   6.604   8.423   6.070
12005WAT      O36256   4.768   6.196   3.664
12005WAT     H136257   4.749   6.124   3.597
12005WAT     H236258   4.798   6.279   3.617
12006WAT      O36259   4.604   8.748   3.763
12006WAT     H136260   4.527   8.811   3.756
12006WAT     H236261   4.582   8.664   3.713
12007WAT      O36262   6.412   0.044   3.391
12007WAT     H136263   6.460   0.115   3.442
12007WAT     H236264   6.321   0.031   3.429
12008WAT      O36265   7.647   1.650   7.055
12008WAT     H136266   7.587   1.678   7.130
12008WAT     H236267   7.695   1.565   7.081
12009WAT      O36268   4.350   7.611   0.904
12009WAT     H136269   4.342   7.707   0.878
12009WAT     H236270   4.263   7.578   0.940
12010WAT      O36271   7.849   2.054   1.072
12010WAT     H136272   7.805   1.964   1.067
12010WAT     H236273   7.789   2.122   1.031
12011WAT      O36274   0.909   4.201   2.969
12011WAT     H136275   0.814   4.183   2.992
12011WAT     H236276   0.956   4.239   3.049
12012WAT      O36277   9.386   0.685   7.462
12012WAT     H136278   9.295   0.641   7.462
12012WAT     H236279   9.443   0.643   7.533
12013WAT      O36280   5.429   9.695   0.495
12013WAT     H136281   5.434   9.611   0.440
12013WAT     H236282   5.518   9.740   0.495
12014WAT      O36283   5.489   8.119   3.157
12014WAT     H136284   5.422   8.143   3.086
12014WAT     H236285   5.551   8.049   3.121
12015WAT      O36286   4.191   1.228   2.272
12015WAT     H136287   4.268   1.184   2.226
12015WAT     H236288   4.125   1.257   2.203
12016WAT      O36289   2.213   1.631   6.422
12016WAT     H136290   2.262   1.718   6.418
12016WAT     H236291   2.203   1.594   6.330
12017WAT      O36292   7.367   4.458   1.376
12017WAT     H136293   7.302   4.409   1.435
12017WAT     H236294   7.352   4.557   1.385
12018WAT      O36295   5.461   0.072   9.138
12018WAT     H136296   5.493   0.005   9.205
12018WAT     H236297   5.474   0.037   9.046
12019WAT      O36298   0.809   4.762   3.136
12019WAT     H136299   0.758   4.690   3.184
12019WAT     H236300   0.749   4.841   3.123
12020WAT      O36301   1.518   8.144   9.106
12020WAT     H136302   1.565   8.109   9.026
12020WAT     H236303   1.551   8.098   9.188
12021WAT      O36304   6.778   2.180   1.263
12021WAT     H136305   6.799   2.272   1.230
12021WAT     H236306   6.863   2.129   1.277
12022WAT      O36307   7.774   1.870   0.182
12022WAT     H136308   7.800   1.921   0.264
12022WAT     H236309   7.674   1.864   0.176
12023WAT      O36310   2.602   7.472   2.961
12023WAT     H136311   2.606   7.564   2.998
12023WAT     H236312   2.507   7.443   2.952
12024WAT      O36313   2.703   9.351   3.039
12024WAT     H136314   2.784   9.293   3.030
12024WAT     H236315   2.689   9.374   3.135
12025WAT      O36316   1.853   6.936   5.731
12025WAT     H136317   1.866   6.970   5.638
12025WAT     H236318   1.825   6.840   5.728
12026WAT      O36319   9.334   4.427   2.243
12026WAT     H136320   9.264   4.356   2.245
12026WAT     H236321   9.312   4.497   2.311
12027WAT      O36322   8.599   9.260   0.721
12027WAT     H136323   8.621   9.317   0.642
12027WAT     H236324   8.643   9.297   0.803
12028WAT      O36325   3.015   6.976   9.626
12028WAT     H136326   2.968   6.932   9.549
12028WAT     H236327   2.951   6.988   9.702
12029WAT      O36328   8.481   7.225   0.290
12029WAT     H136329   8.572   7.191   0.265
12029WAT     H236330   8.473   7.321   0.262
12030WAT      O36331   1.765   0.141   8.992
12030WAT     H136332   1.827   0.066   9.017
12030WAT     H236333   1.819   0.216   8.953
12031WAT      O36334   2.605   0.389   2.946
12031WAT     H136335   2.506   0.395   2.955
12031WAT     H236336   2.628   0.340   2.861
12032WAT      O36337   4.519   2.208   2.641
12032WAT     H136338   4.526   2.236   2.545
12032WAT     H236339   4.434   2.157   2.655
12033WAT      O36340   1.710   0.665   2.403
12033WAT     H136341   1.762   0.645   2.485
12033WAT     H236342   1.613   0.646   2.419
12034WAT      O36343   0.063   8.037   9.111
12034WAT     H136344   0.109   7.961   9.066
12034WAT     H236345   0.016   8.093   9.042
12035WAT      O36346   3.425   3.474   5.250
12035WAT     H136347   3.391   3.397   5.303
12035WAT     H236348   3.435   3.554   5.309
12036WAT      O36349   3.705   8.180   7.491
12036WAT     H136350   3.617   8.167   7.446
12036WAT     H236351   3.773   8.118   7.451
12037WAT      O36352   0.170   7.864   3.177
12037WAT     H136353   0.267   7.875   3.197
12037WAT     H236354   0.157   7.788   3.113
12038WAT      O36355   8.197   8.366   4.095
12038WAT     H136356   8.283   8.384   4.142
12038WAT     H236357   8.158   8.452   4.062
12039WAT      O36358   5.370   6.193   8.612
12039WAT     H136359   5.455   6.224   8.654
12039WAT     H236360   5.321   6.272   8.575
12040WAT      O36361   0.363   5.377   5.688
12040WAT     H136362   0.463   5.375   5.696
12040WAT     H236363   0.326   5.448   5.747
12041WAT      O36364   2.568   5.214   4.987
12041WAT     H136365   2.607   5.287   5.043
12041WAT     H236366   2.586   5.126   5.030
12042WAT      O36367   7.017   0.854   4.987
12042WAT     H136368   7.031   0.938   5.040
12042WAT     H236369   7.095   0.793   4.999
12043WAT      O36370   6.753   0.127   0.163
12043WAT     H136371   6.653   0.131   0.169
12043WAT     H236372   6.792   0.189   0.231
12044WAT      O36373   0.385   4.847   9.262
12044WAT     H136374   0.367   4.901   9.179
12044WAT     H236375   0.308   4.786   9.279
12045WAT      O36376   3.442   5.117   4.978
12045WAT     H136377   3.445   5.214   4.953
12045WAT     H236378   3.352   5.080   4.956
12046WAT      O36379   7.446   3.306   6.948
12046WAT     H136380   7.438   3.238   6.876
12046WAT     H236381   7.404   3.392   6.918
12047WAT      O36382   0.656   9.218   7.280
12047WAT     H136383   0.680   9.209   7.376
12047WAT     H236384   0.577   9.159   7.260
12048WAT      O36385   9.564   3.211   3.393
12048WAT     H136386   9.549   3.134   3.331
12048WAT     H236387   9.644   3.263   3.362
12049WAT      O36388   5.228   4.524   9.008
12049WAT     H136389   5.161   4.450   8.997
12049WAT     H236390   5.181   4.608   9.035
12050WAT      O36391   4.032   3.387   8.737
12050WAT     H136392   4.123   3.424   8.753
12050WAT     H236393   3.965   3.439   8.791
12051WAT      O36394   0.517   9.464   6.216
12051WAT     H136395   0.467   9.438   6.133
12051WAT     H236396   0.510   9.390   6.283
12052WAT      O36397   1.905   3.849   0.954
12052WAT     H136398   1.991   3.887   0.919
12052WAT     H236399   1.907   3.749   0.943
12053WAT      O36400   8.612   3.748   0.106
12053WAT     H136401   8.677   3.692   0.055
12053WAT     H236402   8.521   3.708   0.099
12054WAT      O36403   3.223   3.705   2.816
12054WAT     H136404   3.265   3.783   2.862
12054WAT     H236405   3.136   3.734   2.774
12055WAT      O36406   3.130   4.859   1.102
12055WAT     H136407   3.080   4.840   1.187
12055WAT     H236408   3.066   4.898   1.034
12056WAT      O36409   6.597   1.988   2.551
12056WAT     H136410   6.629   2.003   2.644
12056WAT     H236411   6.555   1.898   2.544
12057WAT      O36412   5.158   6.095   3.844
12057WAT     H136413   5.079   6.153   3.867
12057WAT     H236414   5.126   6.016   3.790
12058WAT      O36415   9.024   6.947   2.800
12058WAT     H136416   9.001   6.860   2.843
12058WAT     H236417   8.970   7.020   2.841
12059WAT      O36418   6.538   4.144   4.570
12059WAT     H136419   6.530   4.059   4.623
12059WAT     H236420   6.582   4.124   4.482
12060WAT      O36421   9.532   1.350   6.386
12060WAT     H136422   9.491   1.440   6.365
12060WAT     H236423   9.586   1.357   6.469
12061WAT      O36424   6.512   2.204   1.303
12061WAT     H136425   6.612   2.207   1.307
12061WAT     H236426   6.481   2.239   1.214
12062WAT      O36427   0.103   0.674   1.391
12062WAT     H136428   0.121   0.643   1.297
12062WAT     H236429   0.115   0.597   1.454
12063WAT      O36430   7.080   5.069   4.620
12063WAT     H136431   6.989   5.050   4.658
12063WAT     H236432   7.146   5.005   4.659
12064WAT      O36433   7.125   0.200   1.188
12064WAT     H136434   7.075   0.118   1.162
12064WAT     H236435   7.150   0.252   1.106
12065WAT      O36436   0.242   0.333   3.924
12065WAT     H136437   0.265   0.276   4.003
12065WAT     H236438   0.222   0.275   3.846
12066WAT      O36439   2.167   8.053   3.710
12066WAT     H136440   2.257   8.069   3.669
12066WAT     H236441   2.097   8.058   3.639
12067WAT      O36442   7.866   6.159   6.355
12067WAT     H136443   7.962   6.145   6.382
12067WAT     H236444   7.809   6.091   6.401
12068WAT      O36445   0.451   9.718   7.237
12068WAT     H136446   0.535   9.665   7.228
12068WAT     H236447   0.388   9.694   7.164
12069WAT      O36448   9.210   6.518   1.475
12069WAT     H136449   9.218   6.432   1.425
12069WAT     H236450   9.274   6.518   1.552
12070WAT      O36451   3.277   2.616   2.944
12070WAT     H136452   3.260   2.713   2.930
12070WAT     H236453   3.269   2.568   2.857
12071WAT      O36454   2.568   5.739   1.849
12071WAT     H136455   2.665   5.755   1.870
12071WAT     H236456   2.544   5.645   1.872
12072WAT      O36457   0.452   2.564   0.352
12072WAT     H136458   0.475   2.656   0.385
12072WAT     H236459   0.366   2.568   0.301
12073WAT      O36460   2.874   7.491   2.858
12073WAT     H136461   2.776   7.504   2.874
12073WAT     H236462   2.907   7.415   2.914
12074WAT      O36463   8.177   0.274   5.086
12074WAT     H136464   8.273   0.288   5.064
12074WAT     H236465   8.137   0.360   5.117
12075WAT      O36466   2.249   7.917   0.446
12075WAT     H136467   2.299   8.002   0.428
12075WAT     H236468   2.272   7.850   0.375
12076WAT      O36469   4.747   8.266   0.862
12076WAT     H136470   4.716   8.340   0.802
12076WAT     H236471   4.692   8.266   0.946
12077WAT      O36472   7.842   6.471   3.820
12077WAT     H136473   7.871   6.556   3.776
12077WAT     H236474   7.897   6.395   3.785
12078WAT      O36475   1.977   0.052   4.829
12078WAT     H136476   1.990  -0.047   4.821
12078WAT     H236477   1.891   0.078   4.784
12079WAT      O36478   8.822   5.960   6.624
12079WAT     H136479   8.735   5.925   6.657
12079WAT     H236480   8.868   5.889   6.570
12080WAT      O36481   4.278   8.258   3.630
12080WAT     H136482   4.200   8.215   3.585
12080WAT     H236483   4.323   8.191   3.689
12081WAT      O36484   9.864   4.092   9.012
12081WAT     H136485   9.825   4.171   9.059
12081WAT     H236486   9.914   4.123   8.931
12082WAT      O36487   6.792   5.852   6.309
12082WAT     H136488   6.874   5.843   6.366
12082WAT     H236489   6.712   5.864   6.368
12083WAT      O36490   4.711   0.871   2.838
12083WAT     H136491   4.676   0.857   2.745
12083WAT     H236492   4.686   0.793   2.895
12084WAT      O36493   2.896   2.505   5.197
12084WAT     H136494   2.933   2.528   5.107
12084WAT     H236495   2.796   2.499   5.191
12085WAT      O36496   0.097   2.404   3.916
12085WAT     H136497   0.121   2.485   3.862
12085WAT     H236498   0.032   2.430   3.987
12086WAT      O36499   1.701   0.371   7.466
12086WAT     H136500   1.630   0.351   7.534
12086WAT     H236501   1.682   0.459   7.423
12087WAT      O36502   3.761   7.540   3.106
12087WAT     H136503   3.840   7.483   3.129
12087WAT     H236504   3.693   7.534   3.179
12088WAT      O36505   4.990   7.277   0.097
12088WAT     H136506   4.987   7.223   0.013
12088WAT     H236507   5.050   7.356   0.084
12089WAT      O36508   5.517   1.610   8.495
12089WAT     H136509   5.545   1.547   8.567
12089WAT     H236510   5.498   1.700   8.535
12090WAT      O36511   6.293   8.426   1.095
12090WAT     H136512   6.367   8.485   1.127
12090WAT     H236513   6.329   8.335   1.076
12091WAT      O36514   0.183   3.313   8.848
12091WAT     H136515   0.107   3.307   8.784
12091WAT     H236516   0.248   3.240   8.830
12092WAT      O36517   3.617   7.100   7.304
12092WAT     H136518   3.580   7.056   7.223
12092WAT     H236519   3.551   7.095   7.379
12093WAT      O36520   2.054   2.346   4.575
12093WAT     H136521   1.991   2.417   4.544
12093WAT     H236522   2.145   2.385   4.585
12094WAT      O36523   4.273   4.302   9.623
12094WAT     H136524   4.326   4.371   9.670
12094WAT     H236525   4.289   4.308   9.524
12095WAT      O36526   2.011   4.261   6.602
12095WAT     H136527   1.966   4.203   6.670
12095WAT     H236528   2.097   4.218   6.574
12096WAT      O36529   3.370   4.594   1.728
12096WAT     H136530   3.448   4.656   1.735
12096WAT     H236531   3.375   4.543   1.641
12097WAT      O36532   3.449   7.144   2.971
12097WAT     H136533   3.499   7.132   3.057
12097WAT     H236534   3.378   7.214   2.983
12098WAT      O36535   4.916   6.305   6.391
12098WAT     H136536   5.001   6.297   6.338
12098WAT     H236537   4.938   6.334   6.484
12099WAT      O36538   6.062   1.072   4.162
12099WAT     H136539   6.047   1.117   4.250
12099WAT     H236540   6.006   1.116   4.091
12100WAT      O36541   3.468   4.925   4.634
12100WAT     H136542   3.489   4.926   4.537
12100WAT     H236543   3.400   4.854   4.653
12101WAT      O36544   0.356   9.359   0.983
12101WAT     H136545   0.345   9.308   0.898
12101WAT     H236546   0.443   9.409   0.980
12102WAT      O36547   3.196   9.341   2.382
12102WAT     H136548   3.120   9.314   2.323
12102WAT     H236549   3.261   9.397   2.330
12103WAT      O36550   9.717   7.873   4.355
12103WAT     H136551   9.646   7.943   4.361
12103WAT     H236552   9.751   7.867   4.262
12104WAT      O36553  -0.004   6.153   5.298
12104WAT     H136554   0.090   6.171   5.269
12104WAT     H236555  -0.014   6.056   5.320
12105WAT      O36556   8.106   0.026   2.745
12105WAT     H136557   8.107  -0.010   2.651
12105WAT     H236558   8.043  -0.028   2.800
12106WAT      O36559   8.763   0.502   6.342
12106WAT     H136560   8.803   0.452   6.265
12106WAT     H236561   8.686   0.557   6.310
12107WAT      O36562   1.238   9.179   5.292
12107WAT     H136563   1.215   9.211   5.384
12107WAT     H236564   1.233   9.079   5.288
12108WAT      O36565   6.562   4.848   7.491
12108WAT     H136566   6.603   4.935   7.520
12108WAT     H236567   6.511   4.809   7.567
12109WAT      O36568   7.534   1.792   8.830
12109WAT     H136569   7.509   1.704   8.872
12109WAT     H236570   7.456   1.827   8.779
12110WAT      O36571   3.031   5.834   0.669
12110WAT     H136572   2.944   5.835   0.718
12110WAT     H236573   3.065   5.739   0.664
12111WAT      O36574   3.065   0.252   4.468
12111WAT     H136575   2.968   0.255   4.491
12111WAT     H236576   3.094   0.157   4.460
12112WAT      O36577   6.480   2.784   0.952
12112WAT     H136578   6.442   2.713   1.012
12112WAT     H236579   6.535   2.848   1.007
12113WAT      O36580   3.384   3.805   6.364
12113WAT     H136581   3.400   3.812   6.266
12113WAT     H236582   3.472   3.795   6.411
12114WAT      O36583   1.585   0.499   9.098
12114WAT     H136584   1.683   0.519   9.093
12114WAT     H236585   1.569   0.406   9.066
12115WAT      O36586   3.360   1.620   7.625
12115WAT     H136587   3.341   1.566   7.543
12115WAT     H236588   3.392   1.560   7.698
12116WAT      O36589   0.986   8.571   9.676
12116WAT     H136590   1.021   8.499   9.615
12116WAT     H236591   0.894   8.547   9.707
12117WAT      O36592   6.803   8.038   1.204
12117WAT     H136593   6.852   8.077   1.282
12117WAT     H236594   6.864   8.037   1.124
12118WAT      O36595   6.412   0.634   9.071
12118WAT     H136596   6.484   0.582   9.026
12118WAT     H236597   6.332   0.639   9.011
12119WAT      O36598   4.522   2.826   1.155
12119WAT     H136599   4.614   2.794   1.133
12119WAT     H236600   4.463   2.819   1.075
12120WAT      O36601   8.696   3.476   0.273
12120WAT     H136602   8.745   3.462   0.187
12120WAT     H236603   8.669   3.387   0.310
12121WAT      O36604   5.438   9.031   5.645
12121WAT     H136605   5.354   9.063   5.602
12121WAT     H236606   5.499   9.109   5.661
12122WAT      O36607   1.966   8.830   7.401
12122WAT     H136608   2.044   8.887   7.373
12122WAT     H236609   1.976   8.738   7.364
12123WAT      O36610   1.683   2.551   9.448
12123WAT     H136611   1.772   2.505   9.444
12123WAT     H236612   1.641   2.535   9.537
12124WAT      O36613   1.862   2.266   9.692
12124WAT     H136614   1.906   2.204   9.628
12124WAT     H236615   1.763   2.250   9.690
12125WAT      O36616   7.799   5.173   5.050
12125WAT     H136617   7.725   5.238   5.070
12125WAT     H236618   7.867   5.176   5.122
12126WAT      O36619   1.024   9.668   9.565
12126WAT     H136620   1.027   9.638   9.470
12126WAT     H236621   0.994   9.591   9.623
12127WAT      O36622   6.824   4.240   4.714
12127WAT     H136623   6.897   4.256   4.647
12127WAT     H236624   6.752   4.308   4.701
12128WAT      O36625   3.677   9.680   7.141
12128WAT     H136626   3.708   9.768   7.104
12128WAT     H236627   3.655   9.691   7.238
12129WAT      O36628   0.204   3.479   8.495
12129WAT     H136629   0.276   3.486   8.564
12129WAT     H236630   0.116   3.462   8.540
12130WAT      O36631   0.899   4.999   9.600
12130WAT     H136632   0.851   4.928   9.548
12130WAT     H236633   0.958   4.955   9.668
12131WAT      O36634   0.718   5.459   3.912
12131WAT     H136635   0.781   5.383   3.892
12131WAT     H236636   0.763   5.546   3.890
12132WAT      O36637   8.828   2.628   8.715
12132WAT     H136638   8.843   2.722   8.745
12132WAT     H236639   8.820   2.625   8.616
12133WAT      O36640   6.106   5.506   9.083
12133WAT     H136641   6.044   5.431   9.062
12133WAT     H236642   6.192   5.470   9.118
12134WAT      O36643   3.256   6.310   9.639
12134WAT     H136644   3.266   6.239   9.708
12134WAT     H236645   3.181   6.371   9.664
12135WAT      O36646   8.885   6.669   6.567
12135WAT     H136647   8.796   6.695   6.604
12135WAT     H236648   8.892   6.569   6.565
12136WAT      O36649   2.934   7.512   8.813
12136WAT     H136650   2.972   7.443   8.751
12136WAT     H236651   2.907   7.592   8.760
12137WAT      O36652   0.165   3.227   7.574
12137WAT     H136653   0.101   3.235   7.498
12137WAT     H236654   0.169   3.313   7.624
12138WAT      O36655   1.267   1.817   5.383
12138WAT     H136656   1.192   1.875   5.351
12138WAT     H236657   1.246   1.783   5.475
12139WAT      O36658   9.131   5.812   7.339
12139WAT     H136659   9.180   5.805   7.252
12139WAT     H236660   9.042   5.854   7.323
12140WAT      O36661   3.111   6.617   5.466
12140WAT     H136662   3.188   6.679   5.486
12140WAT     H236663   3.143   6.523   5.468
12141WAT      O36664   6.284   7.170   6.761
12141WAT     H136665   6.364   7.181   6.820
12141WAT     H236666   6.255   7.075   6.762
12142WAT      O36667   4.914   2.864   8.690
12142WAT     H136668   4.975   2.804   8.639
12142WAT     H236669   4.834   2.813   8.720
12143WAT      O36670   3.641   5.037   4.132
12143WAT     H136671   3.730   5.004   4.099
12143WAT     H236672   3.603   5.101   4.066
12144WAT      O36673   7.729   9.281   5.994
12144WAT     H136674   7.782   9.286   5.910
12144WAT     H236675   7.713   9.373   6.029
12145WAT      O36676   8.134   4.210   8.056
12145WAT     H136677   8.193   4.135   8.084
12145WAT     H236678   8.125   4.275   8.132
12146WAT      O36679   2.852   2.334   6.619
12146WAT     H136680   2.882   2.307   6.527
12146WAT     H236681   2.824   2.252   6.670
12147WAT      O36682   3.688   0.260   3.647
12147WAT     H136683   3.619   0.190   3.665
12147WAT     H236684   3.761   0.253   3.715
12148WAT      O36685   4.069   7.163   5.522
12148WAT     H136686   4.107   7.124   5.606
12148WAT     H236687   4.109   7.253   5.506
12149WAT      O36688   2.365   2.078   0.251
12149WAT     H136689   2.320   2.000   0.294
12149WAT     H236690   2.310   2.160   0.265
12150WAT      O36691   2.730   0.213   8.998
12150WAT     H136692   2.766   0.156   9.072
12150WAT     H236693   2.748   0.309   9.018
12151WAT      O36694   6.377   0.286   2.874
12151WAT     H136695   6.312   0.262   2.801
12151WAT     H236696   6.434   0.207   2.894
12152WAT      O36697   1.728   9.296   4.649
12152WAT     H136698   1.641   9.294   4.699
12152WAT     H236699   1.713   9.269   4.554
12153WAT      O36700   0.723   2.028   2.682
12153WAT     H136701   0.652   2.077   2.632
12153WAT     H236702   0.736   1.937   2.642
12154WAT      O36703   9.821   6.741   2.066
12154WAT     H136704   9.723   6.728   2.084
12154WAT     H236705   9.860   6.655   2.033
12155WAT      O36706   0.265   2.881   9.320
12155WAT     H136707   0.337   2.918   9.262
12155WAT     H236708   0.178   2.882   9.270
12156WAT      O36709   0.931   0.519   4.303
12156WAT     H136710   1.016   0.571   4.297
12156WAT     H236711   0.953   0.424   4.326
12157WAT      O36712   0.598   0.645   6.274
12157WAT     H136713   0.615   0.743   6.267
12157WAT     H236714   0.686   0.596   6.279
12158WAT      O36715   2.695   3.641   6.980
12158WAT     H136716   2.699   3.710   6.908
12158WAT     H236717   2.751   3.562   6.955
12159WAT      O36718   6.060   5.349   6.675
12159WAT     H136719   6.140   5.294   6.699
12159WAT     H236720   6.059   5.432   6.731
12160WAT      O36721   6.347   5.325   6.771
12160WAT     H136722   6.435   5.290   6.805
12160WAT     H236723   6.363   5.398   6.705
12161WAT      O36724   1.565   0.848   9.806
12161WAT     H136725   1.547   0.770   9.746
12161WAT     H236726   1.658   0.841   9.843
12162WAT      O36727   4.010   5.849   3.107
12162WAT     H136728   3.967   5.772   3.060
12162WAT     H236729   4.099   5.820   3.144
12163WAT      O36730   0.827   6.227   4.784
12163WAT     H136731   0.839   6.179   4.697
12163WAT     H236732   0.749   6.188   4.833
12164WAT      O36733   7.436   1.852   1.375
12164WAT     H136734   7.369   1.850   1.300
12164WAT     H236735   7.501   1.926   1.359
12165WAT      O36736   1.885   4.051   4.084
12165WAT     H136737   1.913   4.065   3.989
12165WAT     H236738   1.936   4.113   4.143
12166WAT      O36739   4.083   6.728   1.857
12166WAT     H136740   4.019   6.723   1.934
12166WAT     H236741   4.110   6.635   1.830
12167WAT      O36742   6.129   5.540   8.543
12167WAT     H136743   6.143   5.443   8.560
12167WAT     H236744   6.090   5.552   8.452
12168WAT      O36745   6.691   3.410   6.512
12168WAT     H136746   6.776   3.380   6.556
12168WAT     H236747   6.618   3.414   6.581
12169WAT      O36748   7.592   6.757   3.613
12169WAT     H136749   7.535   6.783   3.535
12169WAT     H236750   7.561   6.805   3.695
12170WAT      O36751   1.321   2.123   7.081
12170WAT     H136752   1.387   2.186   7.122
12170WAT     H236753   1.321   2.037   7.132
12171WAT      O36754   9.781   5.796   1.794
12171WAT     H136755   9.855   5.744   1.752
12171WAT     H236756   9.804   5.817   1.889
12172WAT      O36757   3.806   9.732   8.287
12172WAT     H136758   3.784   9.662   8.355
12172WAT     H236759   3.902   9.755   8.294
12173WAT      O36760   9.396   2.761   2.869
12173WAT     H136761   9.478   2.818   2.876
12173WAT     H236762   9.315   2.817   2.881
12174WAT      O36763   8.898   4.339   8.117
12174WAT     H136764   8.863   4.261   8.169
12174WAT     H236765   8.959   4.393   8.176
12175WAT      O36766   3.920   8.854   2.037
12175WAT     H136767   3.916   8.947   2.075
12175WAT     H236768   3.875   8.853   1.947
12176WAT      O36769   3.560   1.160   4.157
12176WAT     H136770   3.596   1.159   4.250
12176WAT     H236771   3.622   1.109   4.097
12177WAT      O36772   1.660   9.545   8.942
12177WAT     H136773   1.637   9.489   9.022
12177WAT     H236774   1.735   9.501   8.892
12178WAT      O36775   6.923   3.468   8.734
12178WAT     H136776   6.954   3.548   8.786
12178WAT     H236777   6.958   3.475   8.640
12179WAT      O36778   8.337   9.407   3.699
12179WAT     H136779   8.279   9.488   3.692
12179WAT     H236780   8.333   9.355   3.613
12180WAT      O36781   4.921   1.356   2.057
12180WAT     H136782   4.930   1.290   1.982
12180WAT     H236783   4.994   1.341   2.123
12181WAT      O36784   7.828   4.384   0.999
12181WAT     H136785   7.756   4.452   1.015
12181WAT     H236786   7.907   4.405   1.056
12182WAT      O36787   4.664   2.040   5.723
12182WAT     H136788   4.712   2.054   5.636
12182WAT     H236789   4.725   1.996   5.789
12183WAT      O36790   1.138   2.404   0.706
12183WAT     H136791   1.129   2.442   0.798
12183WAT     H236792   1.049   2.403   0.660
12184WAT      O36793   3.652   1.195   5.456
12184WAT     H136794   3.725   1.252   5.495
12184WAT     H236795   3.635   1.117   5.516
12185WAT      O36796   1.450   5.308   0.784
12185WAT     H136797   1.414   5.312   0.690
12185WAT     H236798   1.375   5.324   0.849
12186WAT      O36799   2.780   1.707   3.920
12186WAT     H136800   2.875   1.680   3.939
12186WAT     H236801   2.762   1.701   3.822
12187WAT      O36802   1.656   3.456   1.771
12187WAT     H136803   1.724   3.493   1.834
12187WAT     H236804   1.702   3.407   1.697
12188WAT      O36805   9.376   6.429   8.220
12188WAT     H136806   9.285   6.439   8.180
12188WAT     H236807   9.433   6.374   8.159
12189WAT      O36808   6.659   9.248   6.826
12189WAT     H136809   6.720   9.292   6.760
12189WAT     H236810   6.700   9.163   6.859
12190WAT      O36811   7.083   2.183   6.178
12190WAT     H136812   7.023   2.116   6.133
12190WAT     H236813   7.034   2.227   6.253
12191WAT      O36814   3.641   7.451   7.837
12191WAT     H136815   3.600   7.534   7.877
12191WAT     H236816   3.617   7.372   7.893
12192WAT      O36817   2.475   2.633   4.197
12192WAT     H136818   2.404   2.675   4.253
12192WAT     H236819   2.450   2.639   4.101
12193WAT      O36820   1.379   3.599   3.078
12193WAT     H136821   1.444   3.638   3.014
12193WAT     H236822   1.286   3.622   3.049
12194WAT      O36823   8.174   8.204   3.049
12194WAT     H136824   8.240   8.238   2.982
12194WAT     H236825   8.218   8.200   3.139
12195WAT      O36826   4.635   9.180   0.453
12195WAT     H136827   4.647   9.084   0.427
12195WAT     H236828   4.582   9.227   0.383
12196WAT      O36829   7.558   2.419   0.343
12196WAT     H136830   7.522   2.483   0.275
12196WAT     H236831   7.485   2.394   0.407
12197WAT      O36832   7.550   0.385   5.253
12197WAT     H136833   7.613   0.317   5.291
12197WAT     H236834   7.476   0.401   5.317
12198WAT      O36835   0.448   6.565   4.535
12198WAT     H136836   0.426   6.649   4.486
12198WAT     H236837   0.404   6.566   4.625
12199WAT      O36838   6.957   6.756   0.504
12199WAT     H136839   7.046   6.778   0.462
12199WAT     H236840   6.970   6.736   0.601
12200WAT      O36841   5.978   3.760   2.665
12200WAT     H136842   6.063   3.746   2.716
12200WAT     H236843   5.982   3.846   2.615
12201WAT      O36844   2.546   3.917   6.926
12201WAT     H136845   2.466   3.951   6.876
12201WAT     H236846   2.589   3.992   6.976
12202WAT      O36847   4.588   2.248   6.910
12202WAT     H136848   4.649   2.315   6.868
12202WAT     H236849   4.508   2.235   6.852
12203WAT      O36850   2.242   9.296   3.197
12203WAT     H136851   2.214   9.253   3.283
12203WAT     H236852   2.266   9.225   3.130
12204WAT      O36853   4.299   4.259   3.906
12204WAT     H136854   4.234   4.203   3.957
12204WAT     H236855   4.355   4.312   3.970
12205WAT      O36856   8.734   9.059   0.367
12205WAT     H136857   8.759   9.128   0.299
12205WAT     H236858   8.676   9.100   0.437
12206WAT      O36859   9.873   6.867   0.384
12206WAT     H136860   9.816   6.787   0.401
12206WAT     H236861   9.937   6.879   0.460
12207WAT      O36862   9.706   8.949   5.618
12207WAT     H136863   9.723   9.038   5.575
12207WAT     H236864   9.623   8.953   5.673
12208WAT      O36865   2.847   9.761   6.909
12208WAT     H136866   2.778   9.715   6.852
12208WAT     H236867   2.801   9.813   6.981
12209WAT      O36868   2.671   9.150   1.276
12209WAT     H136869   2.659   9.249   1.278
12209WAT     H236870   2.768   9.129   1.259
12210WAT      O36871   4.989   8.439   0.831
12210WAT     H136872   5.081   8.457   0.864
12210WAT     H236873   4.951   8.522   0.789
12211WAT      O36874   0.858   9.060   0.684
12211WAT     H136875   0.890   9.014   0.601
12211WAT     H236876   0.884   9.007   0.764
12212WAT      O36877   3.404   9.683   1.834
12212WAT     H136878   3.423   9.585   1.829
12212WAT     H236879   3.346   9.710   1.757
12213WAT      O36880   6.338   3.100   8.411
12213WAT     H136881   6.412   3.114   8.345
12213WAT     H236882   6.250   3.111   8.366
12214WAT      O36883   5.900   6.685   3.698
12214WAT     H136884   5.898   6.770   3.751
12214WAT     H236885   5.827   6.624   3.730
12215WAT      O36886   7.762   4.628   3.718
12215WAT     H136887   7.819   4.554   3.683
12215WAT     H236888   7.668   4.596   3.727
12216WAT      O36889   9.153   1.656   7.633
12216WAT     H136890   9.150   1.750   7.599
12216WAT     H236891   9.165   1.593   7.557
12217WAT      O36892   9.754   6.265   7.865
12217WAT     H136893   9.804   6.331   7.808
12217WAT     H236894   9.703   6.314   7.936
12218WAT      O36895   4.279   2.621   6.754
12218WAT     H136896   4.299   2.588   6.662
12218WAT     H236897   4.364   2.629   6.806
12219WAT      O36898   6.609   2.790   7.823
12219WAT     H136899   6.606   2.690   7.828
12219WAT     H236900   6.686   2.824   7.877
12220WAT      O36901   4.460   6.120   7.620
12220WAT     H136902   4.535   6.059   7.599
12220WAT     H236903   4.477   6.166   7.707
12221WAT      O36904   8.502   9.597   8.307
12221WAT     H136905   8.413   9.559   8.283
12221WAT     H236906   8.502   9.696   8.290
12222WAT      O36907   2.727   4.309   3.126
12222WAT     H136908   2.655   4.350   3.070
12222WAT     H236909   2.811   4.304   3.073
12223WAT      O36910   2.640   1.024   6.664
12223WAT     H136911   2.712   0.981   6.608
12223WAT     H236912   2.552   0.986   6.638
12224WAT      O36913   3.297   7.222   7.982
12224WAT     H136914   3.294   7.232   7.883
12224WAT     H236915   3.392   7.225   8.013
12225WAT      O36916   1.999   1.874   5.084
12225WAT     H136917   1.940   1.794   5.096
12225WAT     H236918   1.950   1.942   5.029
12226WAT      O36919   8.227   5.942   4.050
12226WAT     H136920   8.245   5.894   3.964
12226WAT     H236921   8.186   6.031   4.030
12227WAT      O36922   7.745   5.347   2.894
12227WAT     H136923   7.688   5.323   2.816
12227WAT     H236924   7.804   5.424   2.869
12228WAT      O36925   5.048   7.792   8.026
12228WAT     H136926   4.993   7.874   8.041
12228WAT     H236927   5.088   7.795   7.934
12229WAT      O36928   4.627   8.271   2.340
12229WAT     H136929   4.546   8.212   2.349
12229WAT     H236930   4.626   8.340   2.413
12230WAT      O36931   8.201   2.236   3.165
12230WAT     H136932   8.125   2.263   3.106
12230WAT     H236933   8.172   2.162   3.226
12231WAT      O36934   1.792   5.604   5.384
12231WAT     H136935   1.711   5.559   5.421
12231WAT     H236936   1.772   5.639   5.293
12232WAT      O36937   5.459   9.605   8.890
12232WAT     H136938   5.532   9.588   8.955
12232WAT     H236939   5.487   9.678   8.826
12233WAT      O36940   2.348   0.452   4.735
12233WAT     H136941   2.272   0.387   4.732
12233WAT     H236942   2.431   0.407   4.702
12234WAT      O36943   2.495   3.867   1.724
12234WAT     H136944   2.423   3.798   1.733
12234WAT     H236945   2.583   3.822   1.709
12235WAT      O36946   3.286   0.033   8.081
12235WAT     H136947   3.211   0.041   8.015
12235WAT     H236948   3.346  -0.041   8.054
12236WAT      O36949   5.184   1.714   1.579
12236WAT     H136950   5.205   1.693   1.674
12236WAT     H236951   5.087   1.733   1.569
12237WAT      O36952   5.679   1.203   0.761
12237WAT     H136953   5.686   1.167   0.668
12237WAT     H236954   5.586   1.193   0.795
12238WAT      O36955   6.448   7.290   2.595
12238WAT     H136956   6.474   7.199   2.564
12238WAT     H236957   6.506   7.317   2.671
12239WAT      O36958   4.313   0.386   9.404
12239WAT     H136959   4.351   0.299   9.373
12239WAT     H236960   4.229   0.406   9.353
12240WAT      O36961   2.525   5.175   2.765
12240WAT     H136962   2.511   5.274   2.763
12240WAT     H236963   2.525   5.142   2.859
12241WAT      O36964   6.122   1.899   5.007
12241WAT     H136965   6.145   1.902   4.910
12241WAT     H236966   6.032   1.859   5.020
12242WAT      O36967   3.821   1.616   9.525
12242WAT     H136968   3.851   1.560   9.447
12242WAT     H236969   3.733   1.659   9.504
12243WAT      O36970   1.048   4.859   6.114
12243WAT     H136971   1.075   4.901   6.201
12243WAT     H236972   0.952   4.879   6.096
12244WAT      O36973   9.546   4.804   8.291
12244WAT     H136974   9.518   4.795   8.387
12244WAT     H236975   9.467   4.830   8.235
12245WAT      O36976   5.653   0.424   8.732
12245WAT     H136977   5.648   0.347   8.795
12245WAT     H236978   5.595   0.499   8.765
12246WAT      O36979   1.615   0.036   3.505
12246WAT     H136980   1.650   0.072   3.419
12246WAT     H236981   1.651  -0.056   3.520
12247WAT      O36982   6.360   8.630   8.896
12247WAT     H136983   6.273   8.616   8.943
12247WAT     H236984   6.430   8.653   8.963
12248WAT      O36985   9.872   3.373   5.673
12248WAT     H136986   9.808   3.323   5.615
12248WAT     H236987   9.889   3.320   5.756
12249WAT      O36988   3.250   4.652   0.567
12249WAT     H136989   3.200   4.566   0.558
12249WAT     H236990   3.347   4.634   0.583
12250WAT      O36991   2.365   0.830   0.324
12250WAT     H136992   2.401   0.890   0.253
12250WAT     H236993   2.274   0.799   0.298
12251WAT      O36994   6.258   6.841   0.614
12251WAT     H136995   6.268   6.929   0.568
12251WAT     H236996   6.166   6.833   0.651
12252WAT      O36997   0.066   5.752   4.620
12252WAT     H136998   0.005   5.826   4.592
12252WAT     H236999   0.143   5.790   4.671
12253WAT      O37000   6.229   7.909   8.400
12253WAT     H137001   6.182   7.916   8.312
12253WAT     H237002   6.228   7.999   8.445
12254WAT      O37003   9.120   3.390   1.220
12254WAT     H137004   9.087   3.358   1.309
12254WAT     H237005   9.049   3.446   1.177
12255WAT      O37006   0.207   6.789   7.639
12255WAT     H137007   0.223   6.849   7.561
12255WAT     H237008   0.122   6.738   7.624
12256WAT      O37009   6.887   6.719   7.301
12256WAT     H137010   6.887   6.773   7.217
12256WAT     H237011   6.793   6.690   7.322
12257WAT      O37012   7.977   0.694   5.621
12257WAT     H137013   7.879   0.681   5.640
12257WAT     H237014   7.991   0.786   5.583
12258WAT      O37015   0.291   0.298   6.535
12258WAT     H137016   0.220   0.261   6.596
12258WAT     H237017   0.265   0.390   6.506
12259WAT      O37018   2.907   7.168   2.103
12259WAT     H137019   2.963   7.158   2.021
12259WAT     H237020   2.957   7.219   2.172
12260WAT      O37021   3.139   8.170   8.577
12260WAT     H137022   3.046   8.189   8.545
12260WAT     H237023   3.138   8.152   8.675
12261WAT      O37024   7.259   9.242   2.787
12261WAT     H137025   7.276   9.240   2.689
12261WAT     H237026   7.226   9.333   2.814
12262WAT      O37027   6.966   1.519   3.646
12262WAT     H137028   6.872   1.499   3.619
12262WAT     H237029   7.025   1.521   3.565
12263WAT      O37030   6.213   3.880   2.066
12263WAT     H137031   6.167   3.793   2.083
12263WAT     H237032   6.271   3.872   1.985
12264WAT      O37033   2.802   0.442   9.141
12264WAT     H137034   2.707   0.448   9.172
12264WAT     H237035   2.834   0.532   9.115
12265WAT      O37036   0.939   3.834   9.656
12265WAT     H137037   0.959   3.744   9.618
12265WAT     H237038   0.923   3.826   9.754
12266WAT      O37039   9.867   0.442   7.354
12266WAT     H137040   9.959   0.413   7.326
12266WAT     H237041   9.804   0.431   7.277
12267WAT      O37042   6.885   3.274   4.325
12267WAT     H137043   6.785   3.284   4.322
12267WAT     H237044   6.923   3.341   4.388
12268WAT      O37045   2.728   9.100   8.925
12268WAT     H137046   2.797   9.066   8.989
12268WAT     H237047   2.668   9.025   8.898
12269WAT      O37048   2.113   2.235   1.388
12269WAT     H137049   2.089   2.329   1.366
12269WAT     H237050   2.176   2.234   1.465
12270WAT      O37051   4.112   0.393   5.272
12270WAT     H137052   4.022   0.356   5.250
12270WAT     H237053   4.113   0.423   5.367
12271WAT      O37054   4.984   9.768   5.506
12271WAT     H137055   5.008   9.682   5.552
12271WAT     H237056   4.886   9.771   5.490
12272WAT      O37057   7.523   6.596   2.311
12272WAT     H137058   7.481   6.550   2.389
12272WAT     H237059   7.497   6.693   2.311
12273WAT      O37060   0.407   9.725   8.918
12273WAT     H137061   0.394   9.807   8.861
12273WAT     H237062   0.381   9.644   8.867
12274WAT      O37063   8.104   7.073   1.958
12274WAT     H137064   8.127   7.167   1.934
12274WAT     H237065   8.178   7.012   1.930
12275WAT      O37066   2.646   1.575   1.389
12275WAT     H137067   2.736   1.558   1.428
12275WAT     H237068   2.588   1.494   1.402
12276WAT      O37069   1.899   4.830   9.180
12276WAT     H137070   1.843   4.833   9.263
12276WAT     H237071   1.995   4.846   9.203
12277WAT      O37072   2.720   8.645   9.870
12277WAT     H137073   2.746   8.736   9.838
12277WAT     H237074   2.735   8.578   9.797
12278WAT      O37075   2.875   6.545   4.577
12278WAT     H137076   2.775   6.542   4.569
12278WAT     H237077   2.909   6.630   4.538
12279WAT      O37078   0.203   0.199   1.256
12279WAT     H137079   0.259   0.136   1.202
12279WAT     H237080   0.212   0.292   1.220
12280WAT      O37081   5.082   7.105   4.420
12280WAT     H137082   5.111   7.131   4.328
12280WAT     H237083   5.159   7.111   4.483
12281WAT      O37084   1.627   7.069   6.777
12281WAT     H137085   1.575   7.122   6.844
12281WAT     H237086   1.601   7.097   6.684
12282WAT      O37087   4.597   1.149   9.209
12282WAT     H137088   4.553   1.225   9.257
12282WAT     H237089   4.632   1.182   9.121
12283WAT      O37090   0.215   0.870   2.900
12283WAT     H137091   0.272   0.799   2.940
12283WAT     H237092   0.215   0.860   2.800
12284WAT      O37093   4.295   2.595   5.539
12284WAT     H137094   4.233   2.634   5.607
12284WAT     H237095   4.370   2.548   5.586
12285WAT      O37096   6.281   8.689   7.594
12285WAT     H137097   6.273   8.596   7.628
12285WAT     H237098   6.288   8.689   7.494
12286WAT      O37099   7.154   9.602   9.620
12286WAT     H137100   7.121   9.508   9.611
12286WAT     H237101   7.169   9.623   9.716
12287WAT      O37102   6.072   7.059   9.147
12287WAT     H137103   6.022   7.098   9.070
12287WAT     H237104   6.022   6.979   9.182
12288WAT      O37105   4.780   1.732   7.603
12288WAT     H137106   4.729   1.817   7.594
12288WAT     H237107   4.865   1.738   7.551
12289WAT      O37108   1.835   5.716   9.275
12289WAT     H137109   1.777   5.637   9.256
12289WAT     H237110   1.890   5.738   9.194
12290WAT      O37111   4.990   6.005   5.427
12290WAT     H137112   5.012   5.953   5.345
12290WAT     H237113   4.998   6.103   5.409
12291WAT      O37114   5.365   5.246   8.121
12291WAT     H137115   5.327   5.156   8.144
12291WAT     H237116   5.380   5.252   8.023
12292WAT      O37117   4.638   8.901   5.116
12292WAT     H137118   4.675   8.923   5.026
12292WAT     H237119   4.546   8.865   5.106
12293WAT      O37120   1.594   6.373   5.343
12293WAT     H137121   1.504   6.346   5.376
12293WAT     H237122   1.586   6.456   5.288
12294WAT      O37123   2.293   8.311   2.700
12294WAT     H137124   2.268   8.399   2.660
12294WAT     H237125   2.214   8.272   2.748
12295WAT      O37126   1.273   4.260   0.056
12295WAT     H137127   1.239   4.354   0.054
12295WAT     H237128   1.212   4.200   0.005
12296WAT      O37129   5.646   4.285   9.308
12296WAT     H137130   5.700   4.342   9.247
12296WAT     H237131   5.689   4.283   9.399
12297WAT      O37132   2.978   2.045   5.173
12297WAT     H137133   3.013   2.115   5.235
12297WAT     H237134   3.009   1.955   5.203
12298WAT      O37135   2.104   0.791   0.195
12298WAT     H137136   2.026   0.792   0.259
12298WAT     H237137   2.083   0.732   0.118
12299WAT      O37138   8.934   8.682   7.081
12299WAT     H137139   8.877   8.743   7.027
12299WAT     H237140   8.887   8.595   7.094
12300WAT      O37141   6.040   8.002   8.179
12300WAT     H137142   5.952   8.006   8.227
12300WAT     H237143   6.064   8.093   8.145
12301WAT      O37144   8.021   5.802   2.193
12301WAT     H137145   7.927   5.836   2.184
12301WAT     H237146   8.080   5.850   2.128
12302WAT      O37147   5.923   4.112   5.960
12302WAT     H137148   5.870   4.063   5.891
12302WAT     H237149   5.897   4.209   5.960
12303WAT      O37150   2.834   0.683   3.977
12303WAT     H137151   2.873   0.758   3.925
12303WAT     H237152   2.859   0.693   4.074
12304WAT      O37153   7.017   9.346   3.833
12304WAT     H137154   6.927   9.369   3.797
12304WAT     H237155   7.059   9.276   3.774
12305WAT      O37156   9.529   4.352   6.786
12305WAT     H137157   9.525   4.360   6.686
12305WAT     H237158   9.592   4.279   6.811
12306WAT      O37159   0.805   0.914   9.011
12306WAT     H137160   0.802   0.823   9.053
12306WAT     H237161   0.819   0.983   9.082
12307WAT      O37162   8.753   2.826   0.206
12307WAT     H137163   8.784   2.736   0.235
12307WAT     H237164   8.780   2.894   0.274
12308WAT      O37165   5.146   8.139   8.883
12308WAT     H137166   5.108   8.172   8.796
12308WAT     H237167   5.164   8.041   8.876
12309WAT      O37168   8.765   5.455   1.371
12309WAT     H137169   8.715   5.537   1.342
12309WAT     H237170   8.827   5.479   1.445
12310WAT      O37171   7.496   7.705   0.531
12310WAT     H137172   7.454   7.615   0.545
12310WAT     H237173   7.461   7.769   0.599
12311WAT      O37174   9.086   9.339   6.021
12311WAT     H137175   9.114   9.272   5.953
12311WAT     H237176   9.094   9.431   5.982
12312WAT      O37177   6.796   7.997   2.897
12312WAT     H137178   6.805   8.060   2.974
12312WAT     H237179   6.820   7.905   2.926
12313WAT      O37180   3.121   9.170   3.778
12313WAT     H137181   3.193   9.115   3.735
12313WAT     H237182   3.155   9.208   3.863
12314WAT      O37183   8.754   2.837   3.245
12314WAT     H137184   8.685   2.907   3.262
12314WAT     H237185   8.771   2.787   3.330
12315WAT      O37186   9.665   6.155   3.415
12315WAT     H137187   9.703   6.218   3.347
12315WAT     H237188   9.566   6.164   3.418
12316WAT      O37189   9.127   4.964   0.281
12316WAT     H137190   9.162   5.003   0.366
12316WAT     H237191   9.030   4.984   0.272
12317WAT      O37192   7.012   5.792   0.170
12317WAT     H137193   7.007   5.892   0.175
12317WAT     H237194   6.982   5.762   0.079
12318WAT      O37195   9.403   7.756   4.614
12318WAT     H137196   9.399   7.758   4.514
12318WAT     H237197   9.459   7.833   4.646
12319WAT      O37198   4.367   5.380   8.882
12319WAT     H137199   4.285   5.396   8.936
12319WAT     H237200   4.439   5.344   8.942
12320WAT      O37201   8.128   2.794   7.086
12320WAT     H137202   8.144   2.892   7.089
12320WAT     H237203   8.180   2.750   7.159
12321WAT      O37204   2.993   1.467   7.235
12321WAT     H137205   2.939   1.525   7.296
12321WAT     H237206   2.986   1.500   7.141
12322WAT      O37207   3.964   5.338   5.898
12322WAT     H137208   3.917   5.426   5.887
12322WAT     H237209   3.901   5.264   5.874
12323WAT      O37210   2.681   4.932   9.814
12323WAT     H137211   2.746   4.943   9.889
12323WAT     H237212   2.655   4.836   9.806
12324WAT      O37213   2.865   0.718   0.178
12324WAT     H137214   2.788   0.716   0.242
12324WAT     H237215   2.949   0.695   0.225
12325WAT      O37216   2.996   8.233   5.032
12325WAT     H137217   2.997   8.333   5.019
12325WAT     H237218   2.910   8.196   4.998
12326WAT      O37219   2.091   4.992   2.154
12326WAT     H137220   2.131   4.918   2.207
12326WAT     H237221   2.162   5.057   2.128
12327WAT      O37222   2.276   9.799   7.515
12327WAT     H137223   2.190   9.789   7.464
12327WAT     H237224   2.304   9.710   7.550
12328WAT      O37225   7.786   6.980   2.802
12328WAT     H137226   7.885   6.987   2.788
12328WAT     H237227   7.745   6.926   2.729
12329WAT      O37228   9.522   3.273   1.623
12329WAT     H137229   9.450   3.299   1.559
12329WAT     H237230   9.485   3.276   1.716
12330WAT      O37231   7.518   0.097   9.526
12330WAT     H137232   7.511   0.130   9.620
12330WAT     H237233   7.521  -0.003   9.526
12331WAT      O37234   4.416   9.629   0.882
12331WAT     H137235   4.422   9.729   0.885
12331WAT     H237236   4.337   9.603   0.825
12332WAT      O37237   8.915   0.918   0.445
12332WAT     H137238   9.000   0.967   0.424
12332WAT     H237239   8.867   0.896   0.360
12333WAT      O37240   3.869   9.628   4.996
12333WAT     H137241   3.832   9.536   5.004
12333WAT     H237242   3.809   9.684   4.940
12334WAT      O37243   5.596   1.423   7.083
12334WAT     H137244   5.522   1.459   7.026
12334WAT     H237245   5.605   1.325   7.067
12335WAT      O37246   0.552   3.068   7.407
12335WAT     H137247   0.520   2.974   7.393
12335WAT     H237248   0.474   3.130   7.408
12336WAT      O37249   3.240   6.862   0.092
12336WAT     H137250   3.152   6.842   0.048
12336WAT     H237251   3.314   6.819   0.041
12337WAT      O37252   3.777   6.527   2.381
12337WAT     H137253   3.877   6.535   2.387
12337WAT     H237254   3.739   6.616   2.354
12338WAT      O37255   0.589   4.293   5.132
12338WAT     H137256   0.619   4.243   5.213
12338WAT     H237257   0.665   4.305   5.069
12339WAT      O37258   9.613   4.017   3.127
12339WAT     H137259   9.598   3.985   3.033
12339WAT     H237260   9.711   4.020   3.145
12340WAT      O37261   2.105   4.796   8.273
12340WAT     H137262   2.114   4.868   8.203
12340WAT     H237263   2.030   4.819   8.334
12341WAT      O37264   4.090   1.068   4.076
12341WAT     H137265   4.072   0.973   4.103
12341WAT     H237266   4.188   1.086   4.080
12342WAT      O37267   6.241   9.654   1.960
12342WAT     H137268   6.157   9.638   2.011
12342WAT     H237269   6.305   9.706   2.016
12343WAT      O37270   6.681   0.086   4.235
12343WAT     H137271   6.723   0.127   4.316
12343WAT     H237272   6.664  -0.011   4.252
12344WAT      O37273   2.165   3.867   7.174
12344WAT     H137274   2.126   3.806   7.243
12344WAT     H237275   2.094   3.928   7.140
12345WAT      O37276   5.676   5.920   5.517
12345WAT     H137277   5.596   5.901   5.574
12345WAT     H237278   5.683   6.018   5.500
12346WAT      O37279   7.253   6.840   4.229
12346WAT     H137280   7.229   6.927   4.186
12346WAT     H237281   7.344   6.847   4.270
12347WAT      O37282   2.322   7.223   1.668
12347WAT     H137283   2.265   7.266   1.738
12347WAT     H237284   2.279   7.235   1.579
12348WAT      O37285   5.087   1.298   7.074
12348WAT     H137286   4.992   1.321   7.092
12348WAT     H237287   5.104   1.300   6.975
12349WAT      O37288   0.786   7.557   6.237
12349WAT     H137289   0.724   7.493   6.283
12349WAT     H237290   0.818   7.517   6.152
12350WAT      O37291   8.581   1.965   9.167
12350WAT     H137292   8.574   1.878   9.119
12350WAT     H237293   8.548   2.039   9.108
12351WAT      O37294   7.827   2.380   5.230
12351WAT     H137295   7.898   2.320   5.193
12351WAT     H237296   7.856   2.475   5.224
12352WAT      O37297   6.462   1.629   5.979
12352WAT     H137298   6.375   1.604   6.019
12352WAT     H237299   6.520   1.670   6.049
12353WAT      O37300   4.408   8.441   7.805
12353WAT     H137301   4.407   8.511   7.733
12353WAT     H237302   4.460   8.475   7.883
12354WAT      O37303   9.814   7.090   9.635
12354WAT     H137304   9.857   7.043   9.712
12354WAT     H237305   9.825   7.034   9.552
12355WAT      O37306   8.903   8.754   4.857
12355WAT     H137307   8.984   8.813   4.861
12355WAT     H237308   8.885   8.728   4.763
12356WAT      O37309   2.578   2.914   0.141
12356WAT     H137310   2.531   2.966   0.069
12356WAT     H237311   2.574   2.964   0.227
12357WAT      O37312   6.583   8.892   7.131
12357WAT     H137313   6.560   8.804   7.089
12357WAT     H237314   6.570   8.886   7.230
12358WAT      O37315   8.731   2.837   5.602
12358WAT     H137316   8.784   2.781   5.666
12358WAT     H237317   8.648   2.787   5.576
12359WAT      O37318   4.961   4.596   9.885
12359WAT     H137319   4.969   4.695   9.869
12359WAT     H237320   4.881   4.561   9.837
12360WAT      O37321   1.246   0.050   4.295
12360WAT     H137322   1.207   0.091   4.212
12360WAT     H237323   1.310  -0.022   4.269
12361WAT      O37324   7.172   0.062   4.073
12361WAT     H137325   7.085   0.092   4.113
12361WAT     H237326   7.246   0.074   4.139
12362WAT      O37327   3.456   6.274   3.767
12362WAT     H137328   3.417   6.262   3.676
12362WAT     H237329   3.389   6.316   3.827
12363WAT      O37330   7.966   3.919   6.249
12363WAT     H137331   7.983   3.900   6.346
12363WAT     H237332   7.871   3.899   6.227
12364WAT      O37333   6.126   5.875   1.367
12364WAT     H137334   6.141   5.781   1.395
12364WAT     H237335   6.215   5.920   1.353
12365WAT      O37336   7.387   0.085   2.570
12365WAT     H137337   7.408   0.036   2.486
12365WAT     H237338   7.469   0.133   2.602
12366WAT      O37339   1.517   0.793   9.229
12366WAT     H137340   1.544   0.813   9.134
12366WAT     H237341   1.535   0.696   9.249
12367WAT      O37342   8.032   2.496   8.143
12367WAT     H137343   8.047   2.458   8.051
12367WAT     H237344   7.982   2.430   8.199
12368WAT      O37345   8.403   3.003   0.955
12368WAT     H137346   8.432   2.926   1.012
12368WAT     H237347   8.341   2.970   0.884
12369WAT      O37348   2.518   3.657   1.973
12369WAT     H137349   2.593   3.592   1.973
12369WAT     H237350   2.552   3.747   1.944
12370WAT      O37351   1.309   2.776   4.852
12370WAT     H137352   1.289   2.838   4.776
12370WAT     H237353   1.297   2.681   4.821
12371WAT      O37354   0.228   2.909   0.433
12371WAT     H137355   0.187   2.984   0.485
12371WAT     H237356   0.168   2.830   0.437
12372WAT      O37357   9.569   3.125   9.851
12372WAT     H137358   9.515   3.194   9.801
12372WAT     H237359   9.644   3.171   9.899
12373WAT      O37360   1.941   7.303   3.461
12373WAT     H137361   1.971   7.372   3.526
12373WAT     H237362   1.965   7.212   3.495
12374WAT      O37363   9.571   0.852   0.661
12374WAT     H137364   9.558   0.941   0.703
12374WAT     H237365   9.665   0.821   0.675
12375WAT      O37366   7.816   2.005   9.446
12375WAT     H137367   7.750   2.070   9.408
12375WAT     H237368   7.814   2.010   9.546
12376WAT      O37369   1.568   7.983   9.304
12376WAT     H137370   1.617   7.964   9.389
12376WAT     H237371   1.598   7.917   9.234
12377WAT      O37372   8.667   8.263   0.880
12377WAT     H137373   8.617   8.335   0.929
12377WAT     H237374   8.734   8.304   0.819
12378WAT      O37375   6.584   2.760   9.719
12378WAT     H137376   6.621   2.851   9.738
12378WAT     H237377   6.647   2.691   9.753
12379WAT      O37378   5.828   7.858   0.749
12379WAT     H137379   5.734   7.832   0.727
12379WAT     H237380   5.828   7.922   0.826
12380WAT      O37381   1.747   6.120   8.491
12380WAT     H137382   1.674   6.176   8.450
12380WAT     H237383   1.734   6.025   8.465
12381WAT      O37384   0.924   7.456   8.366
12381WAT     H137385   0.881   7.375   8.327
12381WAT     H237386   0.882   7.538   8.326
12382WAT      O37387   5.790   8.722   8.455
12382WAT     H137388   5.699   8.681   8.466
12382WAT     H237389   5.825   8.700   8.364
12383WAT      O37390   5.007   7.834   9.457
12383WAT     H137391   5.064   7.897   9.404
12383WAT     H237392   5.025   7.740   9.427
12384WAT      O37393   7.713   7.009   9.029
12384WAT     H137394   7.685   6.979   8.938
12384WAT     H237395   7.783   6.946   9.065
12385WAT      O37396   4.422   0.099   5.051
12385WAT     H137397   4.452   0.017   5.003
12385WAT     H237398   4.491   0.170   5.043
12386WAT      O37399   3.183   8.811   8.269
12386WAT     H137400   3.087   8.836   8.276
12386WAT     H237401   3.191   8.712   8.257
12387WAT      O37402   1.721   8.369   2.607
12387WAT     H137403   1.766   8.281   2.587
12387WAT     H237404   1.725   8.427   2.525
12388WAT      O37405   5.054   5.629   4.350
12388WAT     H137406   5.062   5.654   4.253
12388WAT     H237407   5.030   5.709   4.404
12389WAT      O37408   3.309   0.707   4.711
12389WAT     H137409   3.316   0.760   4.795
12389WAT     H237410   3.401   0.686   4.678
12390WAT      O37411   6.178   8.763   8.553
12390WAT     H137412   6.180   8.750   8.454
12390WAT     H237413   6.116   8.697   8.594
12391WAT      O37414   3.741   1.122   3.945
12391WAT     H137415   3.807   1.119   3.869
12391WAT     H237416   3.753   1.207   3.996
12392WAT      O37417   7.720   4.299   4.109
12392WAT     H137418   7.779   4.361   4.159
12392WAT     H237419   7.775   4.239   4.051
12393WAT      O37420   2.195   3.508   3.727
12393WAT     H137421   2.210   3.606   3.742
12393WAT     H237422   2.108   3.481   3.768
12394WAT      O37423   1.522   9.709   6.012
12394WAT     H137424   1.436   9.749   5.980
12394WAT     H237425   1.571   9.776   6.068
12395WAT      O37426   9.082   7.239   8.412
12395WAT     H137427   9.081   7.307   8.339
12395WAT     H237428   8.992   7.196   8.419
12396WAT      O37429   8.169   1.234   8.950
12396WAT     H137430   8.077   1.223   8.989
12396WAT     H237431   8.161   1.257   8.853
12397WAT      O37432   5.460   6.404   2.656
12397WAT     H137433   5.425   6.314   2.630
12397WAT     H237434   5.383   6.467   2.670
12398WAT      O37435   8.232   0.546   7.673
12398WAT     H137436   8.235   0.494   7.758
12398WAT     H237437   8.293   0.624   7.679
12399WAT      O37438   7.032   6.469   9.762
12399WAT     H137439   7.039   6.557   9.809
12399WAT     H237440   6.936   6.452   9.738
12400WAT      O37441   0.328   0.110   0.412
12400WAT     H137442   0.235   0.127   0.379
12400WAT     H237443   0.324   0.059   0.498
12401WAT      O37444   5.474   8.567   5.482
12401WAT     H137445   5.464   8.614   5.569
12401WAT     H237446   5.562   8.590   5.441
12402WAT      O37447   0.546   3.034   1.366
12402WAT     H137448   0.583   3.087   1.442
12402WAT     H237449   0.607   2.957   1.345
12403WAT      O37450   8.778   1.639   8.371
12403WAT     H137451   8.841   1.648   8.447
12403WAT     H237452   8.693   1.596   8.402
12404WAT      O37453   6.450   1.562   5.718
12404WAT     H137454   6.465   1.464   5.709
12404WAT     H237455   6.452   1.588   5.814
12405WAT      O37456   7.204   4.208   2.434
12405WAT     H137457   7.259   4.148   2.377
12405WAT     H237458   7.139   4.258   2.377
12406WAT      O37459   9.198   2.259   7.761
12406WAT     H137460   9.216   2.354   7.787
12406WAT     H237461   9.268   2.200   7.803
12407WAT      O37462   6.418   7.712   2.827
12407WAT     H137463   6.483   7.644   2.861
12407WAT     H237464   6.372   7.756   2.904
12408WAT      O37465   7.456   5.774   9.630
12408WAT     H137466   7.442   5.675   9.619
12408WAT     H237467   7.523   5.791   9.702
12409WAT      O37468   1.314   0.332   3.399
12409WAT     H137469   1.307   0.344   3.300
12409WAT     H237470   1.222   0.331   3.439
12410WAT      O37471   4.009   0.823   4.206
12410WAT     H137472   3.986   0.838   4.302
12410WAT     H237473   3.925   0.828   4.151
12411WAT      O37474   4.242   7.732   5.631
12411WAT     H137475   4.195   7.649   5.660
12411WAT     H237476   4.337   7.728   5.661
12412WAT      O37477   4.639   7.317   6.005
12412WAT     H137478   4.603   7.407   5.982
12412WAT     H237479   4.681   7.277   5.924
12413WAT      O37480   3.432   1.658   4.792
12413WAT     H137481   3.526   1.636   4.764
12413WAT     H237482   3.405   1.745   4.751
12414WAT      O37483   3.099   0.917   7.248
12414WAT     H137484   3.131   0.823   7.241
12414WAT     H237485   3.175   0.980   7.232
12415WAT      O37486   7.335   9.134   1.056
12415WAT     H137487   7.242   9.106   1.032
12415WAT     H237488   7.332   9.219   1.108
12416WAT      O37489   5.288   8.911   1.190
12416WAT     H137490   5.323   8.992   1.144
12416WAT     H237491   5.188   8.916   1.197
12417WAT      O37492   3.992   9.770   9.569
12417WAT     H137493   3.979   9.843   9.502
12417WAT     H237494   4.014   9.810   9.658
12418WAT      O37495   1.926   9.101   9.776
12418WAT     H137496   1.941   9.114   9.874
12418WAT     H237497   2.015   9.100   9.729
12419WAT      O37498   2.675   8.146   2.845
12419WAT     H137499   2.635   8.233   2.815
12419WAT     H237500   2.768   8.162   2.878
12420WAT      O37501   5.878   4.440   6.750
12420WAT     H137502   5.807   4.496   6.793
12420WAT     H237503   5.937   4.401   6.821
12421WAT      O37504   4.081   0.013   3.662
12421WAT     H137505   4.010  -0.021   3.724
12421WAT     H237506   4.169  -0.028   3.686
12422WAT      O37507   9.269   5.940   4.081
12422WAT     H137508   9.298   5.847   4.103
12422WAT     H237509   9.268   5.953   3.982
12423WAT      O37510   3.269   6.412   3.871
12423WAT     H137511   3.198   6.341   3.876
12423WAT     H237512   3.258   6.475   3.948
12424WAT      O37513   0.067   5.986   6.268
12424WAT     H137514   0.003   5.924   6.223
12424WAT     H237515   0.098   5.946   6.354
12425WAT      O37516   9.060   0.042   2.998
12425WAT     H137517   8.961   0.058   2.994
12425WAT     H237518   9.088   0.030   3.093
12426WAT      O37519   2.435   7.148   6.808
12426WAT     H137520   2.397   7.073   6.862
12426WAT     H237521   2.381   7.231   6.824
12427WAT      O37522   6.077   7.046   2.854
12427WAT     H137523   6.001   7.081   2.800
12427WAT     H237524   6.110   6.961   2.814
12428WAT      O37525   2.945   2.464   0.664
12428WAT     H137526   2.849   2.464   0.633
12428WAT     H237527   3.005   2.466   0.584
12429WAT      O37528   8.830   4.946   5.639
12429WAT     H137529   8.885   4.913   5.716
12429WAT     H237530   8.856   4.899   5.555
12430WAT      O37531   6.853   8.180   1.940
12430WAT     H137532   6.885   8.086   1.959
12430WAT     H237533   6.929   8.233   1.902
12431WAT      O37534   7.718   0.480   2.883
12431WAT     H137535   7.635   0.466   2.829
12431WAT     H237536   7.696   0.529   2.966
12432WAT      O37537   7.053   3.353   2.521
12432WAT     H137538   7.138   3.404   2.505
12432WAT     H237539   7.065   3.259   2.490
12433WAT      O37540   6.443   4.937   0.662
12433WAT     H137541   6.417   4.951   0.758
12433WAT     H237542   6.500   4.856   0.654
12434WAT      O37543   8.601   5.314   1.219
12434WAT     H137544   8.534   5.267   1.277
12434WAT     H237545   8.654   5.378   1.275
12435WAT      O37546   4.215   1.457   0.971
12435WAT     H137547   4.167   1.522   0.912
12435WAT     H237548   4.156   1.433   1.048
12436WAT      O37549   6.684   9.335   7.962
12436WAT     H137550   6.760   9.349   7.899
12436WAT     H237551   6.719   9.319   8.054
12437WAT      O37552   9.274   8.078   1.764
12437WAT     H137553   9.295   8.159   1.818
12437WAT     H237554   9.304   8.092   1.670
12438WAT      O37555   3.800   3.253   5.946
12438WAT     H137556   3.779   3.219   6.037
12438WAT     H237557   3.720   3.299   5.908
12439WAT      O37558   1.732   7.785   1.529
12439WAT     H137559   1.786   7.860   1.567
12439WAT     H237560   1.778   7.749   1.447
12440WAT      O37561   6.506   6.492   4.358
12440WAT     H137562   6.526   6.579   4.312
12440WAT     H237563   6.475   6.511   4.452
12441WAT      O37564   8.391   2.436   5.453
12441WAT     H137565   8.478   2.467   5.490
12441WAT     H237566   8.327   2.512   5.449
12442WAT      O37567   3.358   3.906   2.941
12442WAT     H137568   3.337   3.997   2.976
12442WAT     H237569   3.418   3.858   3.004
12443WAT      O37570   6.889   2.130   0.611
12443WAT     H137571   6.888   2.031   0.593
12443WAT     H237572   6.851   2.147   0.702
12444WAT      O37573   8.742   1.692   6.226
12444WAT     H137574   8.791   1.661   6.307
12444WAT     H237575   8.777   1.781   6.198
12445WAT      O37576   3.523   2.383   4.930
12445WAT     H137577   3.435   2.342   4.909
12445WAT     H237578   3.535   2.389   5.029
12446WAT      O37579   3.279   4.105   7.747
12446WAT     H137580   3.234   4.117   7.835
12446WAT     H237581   3.313   4.012   7.739
12447WAT      O37582   2.681   2.144   4.171
12447WAT     H137583   2.679   2.226   4.114
12447WAT     H237584   2.730   2.071   4.123
12448WAT      O37585   9.089   8.033   5.381
12448WAT     H137586   9.061   7.990   5.295
12448WAT     H237587   9.050   8.125   5.386
12449WAT      O37588   0.077   5.474   7.863
12449WAT     H137589   0.141   5.447   7.791
12449WAT     H237590   0.086   5.573   7.880
12450WAT      O37591   1.535   5.358   1.780
12450WAT     H137592   1.503   5.394   1.867
12450WAT     H237593   1.620   5.404   1.754
12451WAT      O37594   5.564   1.293   9.406
12451WAT     H137595   5.645   1.293   9.465
12451WAT     H237596   5.506   1.215   9.429
12452WAT      O37597   6.674   4.954   2.106
12452WAT     H137598   6.620   4.883   2.061
12452WAT     H237599   6.772   4.934   2.094
12453WAT      O37600   8.718   1.955   5.634
12453WAT     H137601   8.620   1.978   5.629
12453WAT     H237602   8.751   1.929   5.543
12454WAT      O37603   3.076   3.398   6.805
12454WAT     H137604   3.126   3.476   6.767
12454WAT     H237605   3.141   3.338   6.853
12455WAT      O37606   2.237   5.737   1.111
12455WAT     H137607   2.203   5.655   1.065
12455WAT     H237608   2.186   5.817   1.077
12456WAT      O37609   4.581   8.094   5.731
12456WAT     H137610   4.504   8.145   5.691
12456WAT     H237611   4.651   8.159   5.762
12457WAT      O37612   2.061   0.752   7.180
12457WAT     H137613   2.016   0.832   7.140
12457WAT     H237614   1.992   0.684   7.204
12458WAT      O37615   4.736   6.061   1.867
12458WAT     H137616   4.831   6.047   1.896
12458WAT     H237617   4.728   6.040   1.770
12459WAT      O37618   5.349   4.353   8.615
12459WAT     H137619   5.435   4.401   8.598
12459WAT     H237620   5.278   4.389   8.553
12460WAT      O37621   3.855   6.948   1.071
12460WAT     H137622   3.834   6.923   0.977
12460WAT     H237623   3.822   7.041   1.088
12461WAT      O37624   0.693   6.464   2.799
12461WAT     H137625   0.665   6.380   2.845
12461WAT     H237626   0.649   6.470   2.710
12462WAT      O37627   3.675   2.419   1.695
12462WAT     H137628   3.641   2.509   1.721
12462WAT     H237629   3.773   2.413   1.715
12463WAT      O37630   8.063   6.206   2.371
12463WAT     H137631   8.064   6.300   2.405
12463WAT     H237632   8.055   6.143   2.448
12464WAT      O37633   8.971   4.255   7.858
12464WAT     H137634   8.921   4.272   7.942
12464WAT     H237635   9.046   4.321   7.850
12465WAT      O37636   1.103   3.381   9.499
12465WAT     H137637   1.127   3.379   9.402
12465WAT     H237638   1.091   3.287   9.532
12466WAT      O37639   0.506   8.204   3.527
12466WAT     H137640   0.428   8.243   3.477
12466WAT     H237641   0.497   8.226   3.624
12467WAT      O37642   1.666   8.299   9.663
12467WAT     H137643   1.658   8.228   9.733
12467WAT     H237644   1.730   8.269   9.593
12468WAT      O37645   8.117   1.570   3.753
12468WAT     H137646   8.164   1.623   3.824
12468WAT     H237647   8.068   1.494   3.795
12469WAT      O37648   4.937   7.718   3.994
12469WAT     H137649   4.868   7.713   3.922
12469WAT     H237650   5.012   7.778   3.963
12470WAT      O37651   9.639   2.688   5.707
12470WAT     H137652   9.709   2.618   5.694
12470WAT     H237653   9.583   2.666   5.787
12471WAT      O37654   1.122   5.400   1.360
12471WAT     H137655   1.039   5.446   1.330
12471WAT     H237656   1.128   5.404   1.460
12472WAT      O37657   2.656   3.888   3.868
12472WAT     H137658   2.690   3.803   3.827
12472WAT     H237659   2.578   3.922   3.815
12473WAT      O37660   6.123   2.953   9.521
12473WAT     H137661   6.119   2.940   9.422
12473WAT     H237662   6.196   3.018   9.544
12474WAT      O37663   2.221   8.684   5.522
12474WAT     H137664   2.164   8.692   5.603
12474WAT     H237665   2.280   8.603   5.531
12475WAT      O37666   4.954   3.078   3.084
12475WAT     H137667   4.998   3.085   3.174
12475WAT     H237668   4.931   3.170   3.052
12476WAT      O37669   3.634   8.204   4.882
12476WAT     H137670   3.603   8.275   4.819
12476WAT     H237671   3.668   8.126   4.830
12477WAT      O37672   9.593   3.568   3.073
12477WAT     H137673   9.502   3.578   3.114
12477WAT     H237674   9.619   3.472   3.074
12478WAT      O37675   9.506   9.639   0.959
12478WAT     H137676   9.410   9.663   0.971
12478WAT     H237677   9.535   9.664   0.867
12479WAT      O37678   3.235   3.208   6.401
12479WAT     H137679   3.157   3.269   6.418
12479WAT     H237680   3.218   3.120   6.445
12480WAT      O37681   2.238   6.565   4.888
12480WAT     H137682   2.225   6.471   4.857
12480WAT     H237683   2.290   6.616   4.819
12481WAT      O37684   7.917   6.822   5.640
12481WAT     H137685   7.830   6.872   5.641
12481WAT     H237686   7.934   6.787   5.547
12482WAT      O37687   5.455   8.076   4.175
12482WAT     H137688   5.457   8.171   4.206
12482WAT     H237689   5.523   8.023   4.225
12483WAT      O37690   5.614   3.126   8.531
12483WAT     H137691   5.560   3.047   8.560
12483WAT     H237692   5.576   3.164   8.447
12484WAT      O37693   7.470   9.435   8.665
12484WAT     H137694   7.470   9.375   8.745
12484WAT     H237695   7.395   9.409   8.604
12485WAT      O37696   9.116   6.061   1.225
12485WAT     H137697   9.131   5.980   1.281
12485WAT     H237698   9.033   6.048   1.170
12486WAT      O37699   6.053   2.900   9.281
12486WAT     H137700   6.121   2.949   9.226
12486WAT     H237701   6.000   2.839   9.222
12487WAT      O37702   2.313   9.081   6.496
12487WAT     H137703   2.352   9.029   6.420
12487WAT     H237704   2.214   9.090   6.485
12488WAT      O37705   4.267   8.181   5.844
12488WAT     H137706   4.349   8.195   5.790
12488WAT     H237707   4.204   8.120   5.794
12489WAT      O37708   2.187   8.386   0.980
12489WAT     H137709   2.236   8.367   1.065
12489WAT     H237710   2.251   8.386   0.903
12490WAT      O37711   6.685   3.205   2.714
12490WAT     H137712   6.622   3.173   2.643
12490WAT     H237713   6.681   3.143   2.792
12491WAT      O37714   4.295   6.077   2.043
12491WAT     H137715   4.255   6.104   2.131
12491WAT     H237716   4.261   5.987   2.017
12492WAT      O37717   5.192   7.063   3.399
12492WAT     H137718   5.174   6.968   3.371
12492WAT     H237719   5.239   7.111   3.325
12493WAT      O37720   9.731   6.217   7.082
12493WAT     H137721   9.742   6.281   7.006
12493WAT     H237722   9.803   6.231   7.149
12494WAT      O37723   7.166   6.068   3.961
12494WAT     H137724   7.136   5.987   4.011
12494WAT     H237725   7.265   6.078   3.969
12495WAT      O37726   2.522   0.233   5.320
12495WAT     H137727   2.470   0.259   5.401
12495WAT     H237728   2.536   0.313   5.262
12496WAT      O37729   7.033   4.472   6.038
12496WAT     H137730   7.055   4.450   5.943
12496WAT     H237731   6.934   4.472   6.050
12497WAT      O37732   2.915   5.793   7.127
12497WAT     H137733   2.979   5.839   7.065
12497WAT     H237734   2.888   5.705   7.089
12498WAT      O37735   5.789   9.543   6.184
12498WAT     H137736   5.726   9.529   6.108
12498WAT     H237737   5.737   9.546   6.270
12499WAT      O37738   6.742   1.114   5.049
12499WAT     H137739   6.802   1.157   4.981
12499WAT     H237740   6.730   1.176   5.127
12500WAT      O37741   7.640   5.183   5.692
12500WAT     H137742   7.606   5.270   5.729
12500WAT     H237743   7.737   5.173   5.716
12501WAT      O37744   6.723   1.528   3.550
12501WAT     H137745   6.708   1.549   3.453
12501WAT     H237746   6.684   1.600   3.606
12502WAT      O37747   0.117   6.046   0.535
12502WAT     H137748   0.060   6.062   0.616
12502WAT     H237749   0.181   6.122   0.524
12503WAT      O37750   6.919   5.010   6.233
12503WAT     H137751   6.942   4.931   6.177
12503WAT     H237752   6.823   5.007   6.258
12504WAT      O37753   4.930   4.116   7.793
12504WAT     H137754   4.885   4.027   7.801
12504WAT     H237755   4.940   4.156   7.885
12505WAT      O37756   1.924   5.646   7.661
12505WAT     H137757   1.852   5.708   7.629
12505WAT     H237758   1.889   5.592   7.738
12506WAT      O37759   0.803   3.425   5.241
12506WAT     H137760   0.721   3.428   5.298
12506WAT     H237761   0.818   3.330   5.212
12507WAT      O37762   2.677   6.941   3.576
12507WAT     H137763   2.650   6.919   3.670
12507WAT     H237764   2.648   7.034   3.554
12508WAT      O37765   8.270   4.815   9.030
12508WAT     H137766   8.209   4.762   8.972
12508WAT     H237767   8.304   4.758   9.104
12509WAT      O37768   2.062   0.162   4.519
12509WAT     H137769   2.051   0.063   4.521
12509WAT     H237770   1.974   0.206   4.500
12510WAT      O37771   5.974   5.178   1.466
12510WAT     H137772   5.977   5.234   1.383
12510WAT     H237773   5.911   5.219   1.531
12511WAT      O37774   1.981   4.134   2.416
12511WAT     H137775   1.924   4.056   2.442
12511WAT     H237776   1.980   4.201   2.490
12512WAT      O37777   5.820   4.544   7.391
12512WAT     H137778   5.783   4.619   7.445
12512WAT     H237779   5.755   4.468   7.390
12513WAT      O37780   1.528   8.985   5.289
12513WAT     H137781   1.606   9.036   5.252
12513WAT     H237782   1.498   9.028   5.375
12514WAT      O37783   6.534   4.187   6.381
12514WAT     H137784   6.518   4.092   6.408
12514WAT     H237785   6.447   4.229   6.353
12515WAT      O37786   2.087   6.195   7.483
12515WAT     H137787   2.181   6.183   7.451
12515WAT     H237788   2.050   6.106   7.511
12516WAT      O37789   0.948   0.900   6.713
12516WAT     H137790   0.863   0.851   6.732
12516WAT     H237791   1.025   0.851   6.754
12517WAT      O37792   8.509   8.757   9.615
12517WAT     H137793   8.491   8.750   9.713
12517WAT     H237794   8.583   8.694   9.590
12518WAT      O37795   2.195   1.537   4.046
12518WAT     H137796   2.276   1.503   4.093
12518WAT     H237797   2.126   1.564   4.114
12519WAT      O37798   8.736   5.906   2.965
12519WAT     H137799   8.701   5.999   2.956
12519WAT     H237800   8.818   5.895   2.909
12520WAT      O37801   8.354   6.633   4.872
12520WAT     H137802   8.276   6.693   4.887
12520WAT     H237803   8.439   6.683   4.891
12521WAT      O37804   4.982   8.474   1.534
12521WAT     H137805   5.008   8.558   1.486
12521WAT     H237806   4.886   8.479   1.561
12522WAT      O37807   3.310   2.234   4.921
12522WAT     H137808   3.349   2.144   4.935
12522WAT     H237809   3.232   2.228   4.858
12523WAT      O37810   2.229   8.568   5.982
12523WAT     H137811   2.217   8.654   5.932
12523WAT     H237812   2.326   8.544   5.983
12524WAT      O37813   3.298   6.694   4.413
12524WAT     H137814   3.343   6.638   4.344
12524WAT     H237815   3.328   6.789   4.404
12525WAT      O37816   7.965   7.106   1.334
12525WAT     H137817   7.894   7.106   1.404
12525WAT     H237818   7.936   7.164   1.258
12526WAT      O37819   9.022   6.002   3.193
12526WAT     H137820   8.950   6.058   3.152
12526WAT     H237821   9.090   5.980   3.123
12527WAT      O37822   8.439   5.817   5.721
12527WAT     H137823   8.341   5.794   5.715
12527WAT     H237824   8.453   5.883   5.795
12528WAT      O37825   8.799   3.635   4.481
12528WAT     H137826   8.876   3.675   4.531
12528WAT     H237827   8.720   3.627   4.541
12529WAT      O37828   5.982   0.695   6.622
12529WAT     H137829   5.943   0.777   6.663
12529WAT     H237830   5.909   0.636   6.587
12530WAT      O37831   5.102   7.667   3.704
12530WAT     H137832   5.033   7.697   3.639
12530WAT     H237833   5.161   7.744   3.728
12531WAT      O37834   0.826   7.913   9.253
12531WAT     H137835   0.869   7.829   9.221
12531WAT     H237836   0.831   7.918   9.353
12532WAT      O37837   1.157   8.909   9.045
12532WAT     H137838   1.256   8.914   9.062
12532WAT     H237839   1.140   8.846   8.970
12533WAT      O37840   0.374   4.091   4.862
12533WAT     H137841   0.371   4.088   4.762
12533WAT     H237842   0.394   4.185   4.892
12534WAT      O37843   3.919   8.555   5.397
12534WAT     H137844   3.987   8.504   5.450
12534WAT     H237845   3.837   8.570   5.453
12535WAT      O37846   0.456   2.219   9.341
12535WAT     H137847   0.369   2.180   9.374
12535WAT     H237848   0.522   2.145   9.328
12536WAT      O37849   3.392   6.515   4.214
12536WAT     H137850   3.490   6.512   4.191
12536WAT     H237851   3.359   6.422   4.230
12537WAT      O37852   7.480   4.270   3.048
12537WAT     H137853   7.533   4.333   2.992
12537WAT     H237854   7.541   4.202   3.089
12538WAT      O37855   3.486   9.226   5.868
12538WAT     H137856   3.513   9.205   5.774
12538WAT     H237857   3.400   9.277   5.868
12539WAT      O37858   8.451   4.217   9.035
12539WAT     H137859   8.389   4.221   9.113
12539WAT     H237860   8.438   4.298   8.978
12540WAT      O37861   2.909   5.932   8.456
12540WAT     H137862   2.993   5.985   8.465
12540WAT     H237863   2.920   5.844   8.503
12541WAT      O37864   5.580   8.220   0.274
12541WAT     H137865   5.582   8.234   0.175
12541WAT     H237866   5.494   8.175   0.299
12542WAT      O37867   4.501   3.710   0.175
12542WAT     H137868   4.564   3.634   0.157
12542WAT     H237869   4.505   3.734   0.271
12543WAT      O37870   5.688   1.044   6.007
12543WAT     H137871   5.767   1.039   6.068
12543WAT     H237872   5.710   0.996   5.922
12544WAT      O37873   5.839   0.876   9.822
12544WAT     H137874   5.773   0.948   9.797
12544WAT     H237875   5.916   0.917   9.871
12545WAT      O37876   6.034   1.933   0.493
12545WAT     H137877   6.009   1.884   0.577
12545WAT     H237878   5.978   2.015   0.485
12546WAT      O37879   9.831   8.266   3.410
12546WAT     H137880   9.910   8.251   3.350
12546WAT     H237881   9.863   8.287   3.502
12547WAT      O37882   2.505   6.352   3.723
12547WAT     H137883   2.453   6.427   3.763
12547WAT     H237884   2.442   6.289   3.678
12548WAT      O37885   4.901   1.721   8.393
12548WAT     H137886   4.978   1.689   8.448
12548WAT     H237887   4.924   1.715   8.296
12549WAT      O37888   7.207   1.069   9.074
12549WAT     H137889   7.207   1.141   9.005
12549WAT     H237890   7.153   1.098   9.153
12550WAT      O37891   9.597   7.397   5.083
12550WAT     H137892   9.647   7.475   5.046
12550WAT     H237893   9.604   7.396   5.182
12551WAT      O37894   3.580   9.178   9.244
12551WAT     H137895   3.646   9.225   9.185
12551WAT     H237896   3.516   9.126   9.188
12552WAT      O37897   4.882   4.978   1.574
12552WAT     H137898   4.847   4.960   1.666
12552WAT     H237899   4.867   4.897   1.516
12553WAT      O37900   2.915   7.891   1.651
12553WAT     H137901   2.962   7.803   1.643
12553WAT     H237902   2.826   7.885   1.606
12554WAT      O37903   4.874   8.464   6.260
12554WAT     H137904   4.818   8.546   6.268
12554WAT     H237905   4.836   8.392   6.319
12555WAT      O37906   7.228   4.358   5.057
12555WAT     H137907   7.153   4.342   4.993
12555WAT     H237908   7.221   4.292   5.133
12556WAT      O37909   3.926   7.406   2.495
12556WAT     H137910   3.993   7.409   2.569
12556WAT     H237911   3.872   7.490   2.496
12557WAT      O37912   0.467   6.824   1.431
12557WAT     H137913   0.403   6.859   1.499
12557WAT     H237914   0.552   6.877   1.435
12558WAT      O37915   4.944   0.222   1.310
12558WAT     H137916   5.036   0.224   1.270
12558WAT     H237917   4.930   0.304   1.365
12559WAT      O37918   7.840   1.107   1.694
12559WAT     H137919   7.934   1.130   1.669
12559WAT     H237920   7.826   1.008   1.686
12560WAT      O37921   5.607   9.775   9.412
12560WAT     H137922   5.597   9.681   9.444
12560WAT     H237923   5.524   9.827   9.434
12561WAT      O37924   3.835   9.405   1.834
12561WAT     H137925   3.893   9.392   1.914
12561WAT     H237926   3.820   9.503   1.819
12562WAT      O37927   1.358   2.536   5.780
12562WAT     H137928   1.287   2.480   5.822
12562WAT     H237929   1.438   2.480   5.760
12563WAT      O37930   4.279   7.356   7.381
12563WAT     H137931   4.200   7.306   7.418
12563WAT     H237932   4.362   7.329   7.430
12564WAT      O37933   3.311   9.688   8.993
12564WAT     H137934   3.314   9.661   8.897
12564WAT     H237935   3.364   9.771   9.006
12565WAT      O37936   6.662   6.841   9.065
12565WAT     H137937   6.605   6.892   9.001
12565WAT     H237938   6.632   6.860   9.159
12566WAT      O37939   6.415   0.993   1.711
12566WAT     H137940   6.484   1.020   1.643
12566WAT     H237941   6.337   1.055   1.705
12567WAT      O37942   4.392   5.186   5.701
12567WAT     H137943   4.463   5.145   5.758
12567WAT     H237944   4.434   5.240   5.629
12568WAT      O37945   2.727   2.952   6.470
12568WAT     H137946   2.681   2.923   6.554
12568WAT     H237947   2.721   3.052   6.461
12569WAT      O37948   2.464   6.351   0.513
12569WAT     H137949   2.506   6.293   0.583
12569WAT     H237950   2.506   6.442   0.517
12570WAT      O37951   9.786   2.470   7.838
12570WAT     H137952   9.847   2.418   7.898
12570WAT     H237953   9.833   2.552   7.805
12571WAT      O37954   4.022   2.873   4.516
12571WAT     H137955   4.044   2.970   4.512
12571WAT     H237956   3.995   2.848   4.609
12572WAT      O37957   5.932   3.866   3.955
12572WAT     H137958   6.013   3.925   3.954
12572WAT     H237959   5.951   3.781   3.906
12573WAT      O37960   5.392   3.998   5.811
12573WAT     H137961   5.293   3.984   5.820
12573WAT     H237962   5.436   3.911   5.789
12574WAT      O37963   6.787   0.760   9.462
12574WAT     H137964   6.726   0.713   9.398
12574WAT     H237965   6.734   0.792   9.541
12575WAT      O37966   5.209   6.915   8.978
12575WAT     H137967   5.232   6.971   9.058
12575WAT     H237968   5.109   6.904   8.973
12576WAT      O37969   2.425   6.455   0.831
12576WAT     H137970   2.497   6.395   0.797
12576WAT     H237971   2.377   6.410   0.906
12577WAT      O37972   9.655   4.317   0.864
12577WAT     H137973   9.685   4.233   0.819
12577WAT     H237974   9.628   4.297   0.958
12578WAT      O37975   6.498   8.528   8.662
12578WAT     H137976   6.448   8.577   8.733
12578WAT     H237977   6.463   8.434   8.655
12579WAT      O37978   0.216   6.843   3.024
12579WAT     H137979   0.123   6.876   3.010
12579WAT     H237980   0.218   6.779   3.100
12580WAT      O37981   0.629   3.624   9.225
12580WAT     H137982   0.724   3.654   9.232
12580WAT     H237983   0.570   3.686   9.277
12581WAT      O37984   2.871   6.213   7.480
12581WAT     H137985   2.912   6.176   7.564
12581WAT     H237986   2.786   6.260   7.503
12582WAT      O37987   9.157   6.168   0.407
12582WAT     H137988   9.079   6.222   0.375
12582WAT     H237989   9.242   6.215   0.382
12583WAT      O37990   0.780   2.128   3.811
12583WAT     H137991   0.824   2.047   3.773
12583WAT     H237992   0.832   2.160   3.891
12584WAT      O37993   6.701   9.643   5.014
12584WAT     H137994   6.735   9.679   5.101
12584WAT     H237995   6.601   9.637   5.018
12585WAT      O37996   9.286   5.785   6.858
12585WAT     H137997   9.307   5.723   6.783
12585WAT     H237998   9.342   5.868   6.849
12586WAT      O37999   1.309   0.346   1.141
12586WAT     H138000   1.289   0.254   1.176
12586WAT     H238001   1.408   0.360   1.139
12587WAT      O38002   6.594   1.660   4.399
12587WAT     H138003   6.654   1.580   4.395
12587WAT     H238004   6.582   1.698   4.307
12588WAT      O38005   8.767   6.903   3.102
12588WAT     H138006   8.751   6.805   3.096
12588WAT     H238007   8.731   6.937   3.189
12589WAT      O38008   6.134   8.697   8.265
12589WAT     H138009   6.136   8.797   8.261
12589WAT     H238010   6.228   8.662   8.263
12590WAT      O38011   7.347   4.723   1.392
12590WAT     H138012   7.281   4.768   1.451
12590WAT     H238013   7.417   4.788   1.363
12591WAT      O38014   0.411   4.753   6.036
12591WAT     H138015   0.374   4.678   6.091
12591WAT     H238016   0.509   4.738   6.021
12592WAT      O38017   2.770   0.085   1.011
12592WAT     H138018   2.788  -0.005   0.971
12592WAT     H238019   2.758   0.153   0.938
12593WAT      O38020   7.861   9.766   9.116
12593WAT     H138021   7.909   9.685   9.083
12593WAT     H238022   7.871   9.840   9.050
12594WAT      O38023   9.783   6.203   1.626
12594WAT     H138024   9.873   6.223   1.666
12594WAT     H238025   9.724   6.282   1.635
12595WAT      O38026   2.788   1.361   2.032
12595WAT     H138027   2.853   1.428   1.998
12595WAT     H238028   2.837   1.280   2.065
12596WAT      O38029   0.931   3.854   2.388
12596WAT     H138030   1.022   3.847   2.346
12596WAT     H238031   0.907   3.951   2.399
12597WAT      O38032   7.799   5.889   7.969
12597WAT     H138033   7.769   5.869   7.876
12597WAT     H238034   7.768   5.817   8.030
12598WAT      O38035   5.391   5.262   2.476
12598WAT     H138036   5.396   5.311   2.563
12598WAT     H238037   5.482   5.225   2.454
12599WAT      O38038   4.256   6.562   8.900
12599WAT     H138039   4.230   6.524   8.989
12599WAT     H238040   4.232   6.498   8.828
12600WAT      O38041   2.773   7.447   4.412
12600WAT     H138042   2.776   7.481   4.318
12600WAT     H238043   2.736   7.354   4.413
12601WAT      O38044   3.000   8.181   1.013
12601WAT     H138045   2.925   8.146   0.958
12601WAT     H238046   2.978   8.274   1.043
12602WAT      O38047   6.159   9.196   2.666
12602WAT     H138048   6.195   9.225   2.755
12602WAT     H238049   6.227   9.214   2.595
12603WAT      O38050   6.709   0.866   5.607
12603WAT     H138051   6.694   0.917   5.522
12603WAT     H238052   6.790   0.900   5.653
12604WAT      O38053   8.857   4.697   0.920
12604WAT     H138054   8.867   4.734   1.013
12604WAT     H238055   8.839   4.599   0.925
12605WAT      O38056   6.571   0.754   3.474
12605WAT     H138057   6.659   0.790   3.444
12605WAT     H238058   6.552   0.669   3.426
12606WAT      O38059   1.278   1.063   1.231
12606WAT     H138060   1.236   1.039   1.144
12606WAT     H238061   1.310   1.158   1.228
12607WAT      O38062   1.085   2.161   9.433
12607WAT     H138063   0.998   2.210   9.429
12607WAT     H238064   1.137   2.191   9.512
12608WAT      O38065   9.649   8.843   8.597
12608WAT     H138066   9.555   8.867   8.620
12608WAT     H238067   9.710   8.918   8.625
12609WAT      O38068   7.551   5.257   3.309
12609WAT     H138069   7.489   5.267   3.387
12609WAT     H238070   7.636   5.214   3.340
12610WAT      O38071   2.172   0.113   2.512
12610WAT     H138072   2.085   0.160   2.530
12610WAT     H238073   2.236   0.178   2.470
12611WAT      O38074   2.922   1.820   0.166
12611WAT     H138075   3.021   1.809   0.161
12611WAT     H238076   2.884   1.756   0.233
12612WAT      O38077   3.243   9.135   1.080
12612WAT     H138078   3.247   9.168   1.174
12612WAT     H238079   3.315   9.067   1.064
12613WAT      O38080   8.201   8.821   3.132
12613WAT     H138081   8.298   8.800   3.126
12613WAT     H238082   8.148   8.748   3.089
12614WAT      O38083   9.489   7.639   6.231
12614WAT     H138084   9.479   7.657   6.134
12614WAT     H238085   9.453   7.548   6.251
12615WAT      O38086   7.862   3.556   1.559
12615WAT     H138087   7.928   3.623   1.523
12615WAT     H238088   7.788   3.604   1.605
12616WAT      O38089   6.353   0.047   3.117
12616WAT     H138090   6.397   0.009   3.198
12616WAT     H238091   6.422   0.072   3.050
12617WAT      O38092   8.353   6.841   7.232
12617WAT     H138093   8.281   6.816   7.167
12617WAT     H238094   8.387   6.758   7.276
12618WAT      O38095   0.258   3.653   6.523
12618WAT     H138096   0.234   3.627   6.430
12618WAT     H238097   0.175   3.675   6.574
12619WAT      O38098   2.919   2.677   0.303
12619WAT     H138099   2.965   2.720   0.381
12619WAT     H238100   2.848   2.616   0.337
12620WAT      O38101   5.827   0.465   0.234
12620WAT     H138102   5.758   0.434   0.299
12620WAT     H238103   5.809   0.561   0.210
12621WAT      O38104   5.021   8.758   1.976
12621WAT     H138105   5.040   8.670   1.933
12621WAT     H238106   5.069   8.764   2.064
12622WAT      O38107   6.717   8.347   6.768
12622WAT     H138108   6.707   8.357   6.669
12622WAT     H238109   6.739   8.252   6.789
12623WAT      O38110   9.208   6.937   6.630
12623WAT     H138111   9.288   6.927   6.570
12623WAT     H238112   9.124   6.929   6.575
12624WAT      O38113   6.426   2.150   0.726
12624WAT     H138114   6.519   2.115   0.711
12624WAT     H238115   6.363   2.105   0.663
12625WAT      O38116   8.206   4.585   1.593
12625WAT     H138117   8.244   4.657   1.535
12625WAT     H238118   8.108   4.576   1.576
12626WAT      O38119   8.969   4.094   0.108
12626WAT     H138120   9.024   4.177   0.097
12626WAT     H238121   8.897   4.092   0.038
12627WAT      O38122   9.187   9.742   7.198
12627WAT     H138123   9.110   9.690   7.236
12627WAT     H238124   9.262   9.743   7.265
12628WAT      O38125   1.518   7.700   9.784
12628WAT     H138126   1.606   7.746   9.797
12628WAT     H238127   1.507   7.629   9.853
12629WAT      O38128   9.764   8.317   9.232
12629WAT     H138129   9.832   8.379   9.193
12629WAT     H238130   9.690   8.305   9.167
12630WAT      O38131   5.755   8.766   5.879
12630WAT     H138132   5.727   8.861   5.890
12630WAT     H238133   5.846   8.762   5.838
12631WAT      O38134   8.693   8.949   3.214
12631WAT     H138135   8.768   8.904   3.263
12631WAT     H238136   8.724   9.038   3.180
12632WAT      O38137   6.172   6.385   4.263
12632WAT     H138138   6.169   6.464   4.202
12632WAT     H238139   6.169   6.417   4.358
12633WAT      O38140   9.352   8.029   9.169
12633WAT     H138141   9.328   7.935   9.192
12633WAT     H238142   9.433   8.029   9.110
12634WAT      O38143   6.346   2.552   2.096
12634WAT     H138144   6.419   2.598   2.147
12634WAT     H238145   6.327   2.463   2.138
12635WAT      O38146   2.820   1.139   9.567
12635WAT     H138147   2.773   1.055   9.541
12635WAT     H238148   2.889   1.161   9.497
12636WAT      O38149   7.029   5.268   6.645
12636WAT     H138150   7.069   5.257   6.554
12636WAT     H238151   6.932   5.246   6.643
12637WAT      O38152   1.574   5.196   7.208
12637WAT     H138153   1.628   5.254   7.270
12637WAT     H238154   1.491   5.243   7.182
12638WAT      O38155   2.033   6.263   3.013
12638WAT     H138156   1.971   6.210   2.956
12638WAT     H238157   2.070   6.340   2.960
12639WAT      O38158   8.554   5.626   7.831
12639WAT     H138159   8.579   5.537   7.792
12639WAT     H238160   8.603   5.640   7.917
12640WAT      O38161   4.659   5.124   6.367
12640WAT     H138162   4.634   5.203   6.312
12640WAT     H238163   4.703   5.055   6.309
12641WAT      O38164   5.839   1.397   4.005
12641WAT     H138165   5.785   1.442   3.934
12641WAT     H238166   5.883   1.315   3.968
12642WAT      O38167   4.375   3.362   4.490
12642WAT     H138168   4.297   3.353   4.553
12642WAT     H238169   4.450   3.303   4.522
12643WAT      O38170   3.031   5.085   6.698
12643WAT     H138171   3.124   5.114   6.721
12643WAT     H238172   3.002   5.013   6.761
12644WAT      O38173   7.723   3.611   5.392
12644WAT     H138174   7.657   3.676   5.429
12644WAT     H238175   7.771   3.566   5.468
12645WAT      O38176   8.282   3.868   6.207
12645WAT     H138177   8.299   3.799   6.277
12645WAT     H238178   8.189   3.903   6.217
12646WAT      O38179   3.180   5.818   3.357
12646WAT     H138180   3.231   5.841   3.439
12646WAT     H238181   3.082   5.820   3.376
12647WAT      O38182   9.332   8.424   4.322
12647WAT     H138183   9.423   8.434   4.362
12647WAT     H238184   9.287   8.343   4.358
12648WAT      O38185   3.510   7.694   9.889
12648WAT     H138186   3.424   7.650   9.862
12648WAT     H238187   3.567   7.707   9.808
12649WAT      O38188   9.130   4.412   3.722
12649WAT     H138189   9.185   4.484   3.679
12649WAT     H238190   9.037   4.446   3.735
12650WAT      O38191   5.695   4.314   1.601
12650WAT     H138192   5.760   4.238   1.612
12650WAT     H238193   5.745   4.398   1.583
12651WAT      O38194   0.552   4.533   5.616
12651WAT     H138195   0.543   4.473   5.537
12651WAT     H238196   0.480   4.602   5.614
12652WAT      O38197   5.361   2.676   2.209
12652WAT     H138198   5.285   2.631   2.163
12652WAT     H238199   5.404   2.742   2.147
12653WAT      O38200   8.042   6.930   3.724
12653WAT     H138201   8.102   6.905   3.800
12653WAT     H238202   8.026   7.029   3.725
12654WAT      O38203   9.562   3.096   6.240
12654WAT     H138204   9.487   3.150   6.279
12654WAT     H238205   9.565   3.111   6.141
12655WAT      O38206   4.767   1.079   1.359
12655WAT     H138207   4.703   1.142   1.315
12655WAT     H238208   4.856   1.084   1.313
12656WAT      O38209   8.021   6.121   7.121
12656WAT     H138210   8.086   6.045   7.115
12656WAT     H238211   8.044   6.180   7.198
12657WAT      O38212   3.914   2.070   3.058
12657WAT     H138213   3.965   2.139   3.110
12657WAT     H238214   3.818   2.071   3.085
12658WAT      O38215   6.180   3.294   6.891
12658WAT     H138216   6.111   3.364   6.904
12658WAT     H238217   6.206   3.255   6.980
12659WAT      O38218   4.681   2.906   9.051
12659WAT     H138219   4.609   2.946   8.995
12659WAT     H238220   4.676   2.943   9.144
12660WAT      O38221   3.841   1.790   6.032
12660WAT     H138222   3.851   1.776   5.933
12660WAT     H238223   3.814   1.885   6.049
12661WAT      O38224   4.177   5.401   6.476
12661WAT     H138225   4.224   5.361   6.555
12661WAT     H238226   4.234   5.472   6.435
12662WAT      O38227   9.452   9.420   5.381
12662WAT     H138228   9.456   9.337   5.325
12662WAT     H238229   9.400   9.490   5.333
12663WAT      O38230   2.781   8.503   4.026
12663WAT     H138231   2.850   8.496   3.953
12663WAT     H238232   2.690   8.496   3.986
12664WAT      O38233   6.203   2.405   8.444
12664WAT     H138234   6.255   2.325   8.415
12664WAT     H238235   6.254   2.488   8.420
12665WAT      O38236   9.045   6.529   5.668
12665WAT     H138237   9.006   6.520   5.760
12665WAT     H238238   9.037   6.442   5.620
12666WAT      O38239   7.471   7.587   9.331
12666WAT     H138240   7.507   7.678   9.351
12666WAT     H238241   7.534   7.518   9.367
12667WAT      O38242   0.758   6.545   0.902
12667WAT     H138243   0.815   6.502   0.832
12667WAT     H238244   0.815   6.606   0.957
12668WAT      O38245   4.863   3.044   8.885
12668WAT     H138246   4.895   2.981   8.814
12668WAT     H238247   4.813   2.993   8.955
12669WAT      O38248   5.136   9.468   2.563
12669WAT     H138249   5.060   9.513   2.609
12669WAT     H238250   5.217   9.527   2.568
12670WAT      O38251   7.444   7.295   5.327
12670WAT     H138252   7.483   7.358   5.395
12670WAT     H238253   7.372   7.240   5.369
12671WAT      O38254   8.317   2.739   5.236
12671WAT     H138255   8.404   2.783   5.214
12671WAT     H238256   8.267   2.721   5.152
12672WAT      O38257   4.809   0.412   0.335
12672WAT     H138258   4.759   0.491   0.372
12672WAT     H238259   4.791   0.332   0.393
12673WAT      O38260   3.411   2.831   9.215
12673WAT     H138261   3.453   2.871   9.296
12673WAT     H238262   3.335   2.773   9.243
12674WAT      O38263   0.028   9.521   5.362
12674WAT     H138264   0.091   9.580   5.413
12674WAT     H238265  -0.040   9.482   5.425
12675WAT      O38266   5.995   7.145   7.871
12675WAT     H138267   5.966   7.103   7.957
12675WAT     H238268   5.972   7.242   7.872
12676WAT      O38269   7.892   0.063   5.505
12676WAT     H138270   7.928   0.086   5.414
12676WAT     H238271   7.953   0.100   5.575
12677WAT      O38272   3.124   4.792   9.334
12677WAT     H138273   3.195   4.832   9.278
12677WAT     H238274   3.038   4.840   9.319
12678WAT      O38275   3.218   2.973   6.196
12678WAT     H138276   3.249   3.065   6.217
12678WAT     H238277   3.133   2.954   6.246
12679WAT      O38278   4.469   3.669   1.579
12679WAT     H138279   4.461   3.768   1.570
12679WAT     H238280   4.433   3.640   1.668
12680WAT      O38281   3.466   0.459   3.616
12680WAT     H138282   3.555   0.423   3.591
12680WAT     H238283   3.417   0.393   3.673
12681WAT      O38284   1.750   5.910   0.844
12681WAT     H138285   1.846   5.895   0.866
12681WAT     H238286   1.693   5.882   0.922
12682WAT      O38287   7.214   2.814   5.162
12682WAT     H138288   7.216   2.740   5.094
12682WAT     H238289   7.308   2.846   5.178
12683WAT      O38290   4.439   7.810   8.723
12683WAT     H138291   4.482   7.859   8.647
12683WAT     H238292   4.509   7.781   8.788
12684WAT      O38293   5.712   7.982   2.141
12684WAT     H138294   5.750   8.007   2.230
12684WAT     H238295   5.612   7.986   2.144
12685WAT      O38296   9.424   6.054   8.321
12685WAT     H138297   9.491   5.988   8.355
12685WAT     H238298   9.332   6.018   8.336
12686WAT      O38299   6.749   4.336   1.955
12686WAT     H138300   6.718   4.378   1.870
12686WAT     H238301   6.751   4.405   2.028
12687WAT      O38302   1.814   2.081   5.547
12687WAT     H138303   1.817   2.004   5.482
12687WAT     H238304   1.744   2.146   5.518
12688WAT      O38305   0.584   9.719   3.546
12688WAT     H138306   0.550   9.749   3.456
12688WAT     H238307   0.674   9.678   3.535
12689WAT      O38308   2.959   1.939   9.529
12689WAT     H138309   2.898   2.000   9.480
12689WAT     H238310   2.922   1.846   9.528
12690WAT      O38311   9.606   9.230   3.103
12690WAT     H138312   9.701   9.230   3.134
12690WAT     H238313   9.603   9.233   3.003
12691WAT      O38314   0.509   7.363   4.649
12691WAT     H138315   0.433   7.299   4.636
12691WAT     H238316   0.555   7.344   4.735
12692WAT      O38317   2.731   5.471   1.214
12692WAT     H138318   2.707   5.533   1.288
12692WAT     H238319   2.716   5.516   1.126
12693WAT      O38320   1.278   3.160   9.594
12693WAT     H138321   1.257   3.193   9.686
12693WAT     H238322   1.205   3.098   9.563
12694WAT      O38323   5.785   8.151   1.503
12694WAT     H138324   5.836   8.068   1.481
12694WAT     H238325   5.693   8.146   1.464
12695WAT      O38326   8.990   5.345   4.025
12695WAT     H138327   8.982   5.442   4.046
12695WAT     H238328   9.071   5.307   4.069
12696WAT      O38329   1.023   6.343   4.933
12696WAT     H138330   0.965   6.308   4.860
12696WAT     H238331   1.118   6.346   4.902
12697WAT      O38332   7.305   3.349   0.853
12697WAT     H138333   7.318   3.305   0.942
12697WAT     H238334   7.267   3.283   0.788
12698WAT      O38335   0.529   7.844   2.189
12698WAT     H138336   0.597   7.894   2.136
12698WAT     H238337   0.562   7.751   2.205
12699WAT      O38338   9.874   8.809   4.417
12699WAT     H138339   9.838   8.724   4.381
12699WAT     H238340   9.962   8.830   4.374
12700WAT      O38341   0.177   4.621   3.073
12700WAT     H138342   0.257   4.672   3.104
12700WAT     H238343   0.206   4.548   3.011
12701WAT      O38344   1.545   8.293   8.204
12701WAT     H138345   1.526   8.315   8.300
12701WAT     H238346   1.637   8.256   8.195
12702WAT      O38347   8.658   9.150   7.385
12702WAT     H138348   8.696   9.080   7.326
12702WAT     H238349   8.617   9.108   7.466
12703WAT      O38350   0.454   2.902   2.777
12703WAT     H138351   0.360   2.868   2.788
12703WAT     H238352   0.453   2.989   2.729
12704WAT      O38353   8.211   4.237   1.040
12704WAT     H138354   8.243   4.302   0.971
12704WAT     H238355   8.157   4.285   1.108
12705WAT      O38356   5.009   8.247   8.670
12705WAT     H138357   5.075   8.196   8.615
12705WAT     H238358   4.916   8.220   8.646
12706WAT      O38359   7.978   1.790   6.712
12706WAT     H138360   8.054   1.738   6.750
12706WAT     H238361   7.913   1.811   6.785
12707WAT      O38362   9.651   1.128   2.610
12707WAT     H138363   9.579   1.083   2.557
12707WAT     H238364   9.632   1.117   2.708
12708WAT      O38365   0.548   5.743   1.145
12708WAT     H138366   0.535   5.810   1.219
12708WAT     H238367   0.538   5.789   1.057
12709WAT      O38368   8.244   2.375   7.686
12709WAT     H138369   8.251   2.300   7.752
12709WAT     H238370   8.288   2.347   7.600
12710WAT      O38371   9.478   9.730   4.496
12710WAT     H138372   9.383   9.713   4.523
12710WAT     H238373   9.494   9.696   4.404
12711WAT      O38374   5.668   2.448   5.812
12711WAT     H138375   5.685   2.542   5.783
12711WAT     H238376   5.731   2.424   5.886
12712WAT      O38377   4.966   4.881   2.704
12712WAT     H138378   5.015   4.898   2.790
12712WAT     H238379   4.902   4.956   2.686
12713WAT      O38380   8.409   7.089   3.372
12713WAT     H138381   8.504   7.056   3.371
12713WAT     H238382   8.396   7.150   3.451
12714WAT      O38383   1.750   1.175   5.314
12714WAT     H138384   1.673   1.161   5.253
12714WAT     H238385   1.766   1.273   5.325
12715WAT      O38386   5.426   8.687   9.483
12715WAT     H138387   5.432   8.587   9.480
12715WAT     H238388   5.462   8.720   9.570
12716WAT      O38389   1.094   9.358   4.291
12716WAT     H138390   1.121   9.296   4.218
12716WAT     H238391   1.152   9.342   4.371
12717WAT      O38392   5.734   8.003   6.717
12717WAT     H138393   5.780   8.077   6.667
12717WAT     H238394   5.635   8.015   6.710
12718WAT      O38395   9.141   0.032   0.415
12718WAT     H138396   9.119   0.095   0.489
12718WAT     H238397   9.066  -0.032   0.402
12719WAT      O38398   6.858   6.885   4.480
12719WAT     H138399   6.808   6.821   4.539
12719WAT     H238400   6.869   6.972   4.528
12720WAT      O38401   3.380   9.629   3.662
12720WAT     H138402   3.303   9.605   3.720
12720WAT     H238403   3.353   9.624   3.566
12721WAT      O38404   4.904   1.622   1.770
12721WAT     H138405   4.815   1.576   1.782
12721WAT     H238406   4.890   1.708   1.720
12722WAT      O38407   3.985   5.562   4.687
12722WAT     H138408   3.986   5.545   4.786
12722WAT     H238409   3.970   5.476   4.639
12723WAT      O38410   0.740   4.597   4.388
12723WAT     H138411   0.678   4.522   4.409
12723WAT     H238412   0.745   4.609   4.289
12724WAT      O38413   0.656   1.143   2.897
12724WAT     H138414   0.593   1.165   2.972
12724WAT     H238415   0.733   1.090   2.933
12725WAT      O38416   1.746   4.965   4.640
12725WAT     H138417   1.699   5.009   4.564
12725WAT     H238418   1.833   5.010   4.657
12726WAT      O38419   7.771   1.978   2.146
12726WAT     H138420   7.695   2.016   2.198
12726WAT     H238421   7.818   2.052   2.098
12727WAT      O38422   3.786   4.388   1.068
12727WAT     H138423   3.758   4.307   1.018
12727WAT     H238424   3.705   4.434   1.105
12728WAT      O38425   3.690   1.565   7.611
12728WAT     H138426   3.670   1.518   7.525
12728WAT     H238427   3.618   1.544   7.677
12729WAT      O38428   8.861   6.639   3.174
12729WAT     H138429   8.938   6.580   3.152
12729WAT     H238430   8.844   6.636   3.273
12730WAT      O38431   0.027   5.496   4.541
12730WAT     H138432   0.050   5.593   4.547
12730WAT     H238433   0.075   5.446   4.613
12731WAT      O38434   1.034   9.221   3.454
12731WAT     H138435   0.978   9.244   3.534
12731WAT     H238436   1.120   9.271   3.458
12732WAT      O38437   4.805   4.686   2.860
12732WAT     H138438   4.743   4.747   2.909
12732WAT     H238439   4.857   4.739   2.793
12733WAT      O38440   2.325   8.017   3.295
12733WAT     H138441   2.245   7.972   3.255
12733WAT     H238442   2.374   7.952   3.353
12734WAT      O38443   8.258   4.018   5.429
12734WAT     H138444   8.282   4.015   5.332
12734WAT     H238445   8.182   3.955   5.446
12735WAT      O38446   5.442   7.735   9.583
12735WAT     H138447   5.538   7.709   9.594
12735WAT     H238448   5.416   7.798   9.656
12736WAT      O38449   4.727   8.889   0.690
12736WAT     H138450   4.804   8.953   0.694
12736WAT     H238451   4.680   8.887   0.778
12737WAT      O38452   6.250   4.613   3.818
12737WAT     H138453   6.157   4.596   3.849
12737WAT     H238454   6.304   4.651   3.893
12738WAT      O38455   9.358   8.422   1.105
12738WAT     H138456   9.397   8.509   1.137
12738WAT     H238457   9.430   8.353   1.102
12739WAT      O38458   5.425   5.073   1.221
12739WAT     H138459   5.393   5.137   1.151
12739WAT     H238460   5.347   5.026   1.262
12740WAT      O38461   6.090   4.132   9.735
12740WAT     H138462   6.099   4.214   9.791
12740WAT     H238463   6.058   4.056   9.791
12741WAT      O38464   5.388   7.034   5.708
12741WAT     H138465   5.320   7.088   5.758
12741WAT     H238466   5.377   6.938   5.732
12742WAT      O38467   0.231   4.159   3.135
12742WAT     H138468   0.260   4.063   3.130
12742WAT     H238469   0.304   4.213   3.177
12743WAT      O38470   0.714   2.114   2.958
12743WAT     H138471   0.734   2.085   2.864
12743WAT     H238472   0.724   2.037   3.020
12744WAT      O38473   0.881   2.187   0.638
12744WAT     H138474   0.883   2.287   0.635
12744WAT     H238475   0.793   2.156   0.674
12745WAT      O38476   0.629   6.610   9.773
12745WAT     H138477   0.592   6.580   9.685
12745WAT     H238478   0.701   6.547   9.801
12746WAT      O38479   8.001   0.679   7.074
12746WAT     H138480   8.089   0.706   7.035
12746WAT     H238481   7.979   0.586   7.044
12747WAT      O38482   2.207   6.202   6.737
12747WAT     H138483   2.266   6.212   6.657
12747WAT     H238484   2.129   6.264   6.729
12748WAT      O38485   6.516   7.707   0.113
12748WAT     H138486   6.563   7.698   0.200
12748WAT     H238487   6.479   7.800   0.104
12749WAT      O38488   6.945   7.655   5.777
12749WAT     H138489   6.956   7.578   5.840
12749WAT     H238490   7.011   7.727   5.801
12750WAT      O38491   4.363   7.583   2.811
12750WAT     H138492   4.360   7.621   2.719
12750WAT     H238493   4.312   7.643   2.873
12751WAT      O38494   9.740   9.456   9.327
12751WAT     H138495   9.790   9.525   9.275
12751WAT     H238496   9.716   9.493   9.417
12752WAT      O38497   2.806   7.515   3.334
12752WAT     H138498   2.904   7.535   3.324
12752WAT     H238499   2.788   7.487   3.428
12753WAT      O38500   1.903   0.437   3.187
12753WAT     H138501   1.923   0.403   3.279
12753WAT     H238502   1.977   0.498   3.157
12754WAT      O38503   9.517   3.254   5.996
12754WAT     H138504   9.454   3.307   6.053
12754WAT     H238505   9.493   3.265   5.900
12755WAT      O38506   9.025   2.186   6.117
12755WAT     H138507   9.106   2.213   6.065
12755WAT     H238508   8.950   2.248   6.097
12756WAT      O38509   0.959   5.305   2.267
12756WAT     H138510   0.885   5.262   2.319
12756WAT     H238511   1.045   5.257   2.284
12757WAT      O38512   5.968   1.070   0.462
12757WAT     H138513   5.910   1.149   0.484
12757WAT     H238514   6.043   1.098   0.402
12758WAT      O38515   8.413   3.087   7.497
12758WAT     H138516   8.466   3.041   7.426
12758WAT     H238517   8.386   3.178   7.465
12759WAT      O38518   3.018   0.706   9.677
12759WAT     H138519   2.927   0.680   9.645
12759WAT     H238520   3.034   0.803   9.656
12760WAT      O38521   8.050   1.376   8.028
12760WAT     H138522   7.956   1.392   8.059
12760WAT     H238523   8.106   1.455   8.051
12761WAT      O38524   2.511   0.091   6.474
12761WAT     H138525   2.546  -0.003   6.466
12761WAT     H238526   2.519   0.121   6.569
12762WAT      O38527   1.711   0.085   3.245
12762WAT     H138528   1.622   0.071   3.202
12762WAT     H238529   1.782   0.088   3.175
12763WAT      O38530   7.980   1.148   0.195
12763WAT     H138531   7.901   1.198   0.230
12763WAT     H238532   7.968   1.050   0.212
12764WAT      O38533   7.008   2.367   5.677
12764WAT     H138534   6.967   2.350   5.588
12764WAT     H238535   7.076   2.440   5.669
12765WAT      O38536   6.275   3.428   6.456
12765WAT     H138537   6.203   3.360   6.439
12765WAT     H238538   6.256   3.475   6.542
12766WAT      O38539   8.272   0.881   5.923
12766WAT     H138540   8.172   0.884   5.921
12766WAT     H238541   8.306   0.866   5.831
12767WAT      O38542   0.836   5.173   3.153
12767WAT     H138543   0.832   5.266   3.116
12767WAT     H238544   0.875   5.112   3.084
12768WAT      O38545   8.577   5.130   8.508
12768WAT     H138546   8.583   5.127   8.408
12768WAT     H238547   8.663   5.167   8.545
12769WAT      O38548   2.810   6.409   5.280
12769WAT     H138549   2.823   6.500   5.318
12769WAT     H238550   2.866   6.343   5.331
12770WAT      O38551   9.153   0.405   0.728
12770WAT     H138552   9.227   0.456   0.685
12770WAT     H238553   9.067   0.425   0.681
12771WAT      O38554   0.968   2.981   5.018
12771WAT     H138555   1.014   2.908   5.068
12771WAT     H238556   0.976   2.964   4.920
12772WAT      O38557   0.830   6.738   3.856
12772WAT     H138558   0.899   6.804   3.885
12772WAT     H238559   0.739   6.778   3.865
12773WAT      O38560   6.833   2.423   2.160
12773WAT     H138561   6.764   2.482   2.118
12773WAT     H238562   6.913   2.416   2.100
12774WAT      O38563   2.436   8.903   1.602
12774WAT     H138564   2.516   8.929   1.656
12774WAT     H238565   2.437   8.950   1.515
12775WAT      O38566   7.926   0.665   6.721
12775WAT     H138567   7.957   0.709   6.805
12775WAT     H238568   7.831   0.637   6.731
12776WAT      O38569   0.295   2.370   1.021
12776WAT     H138570   0.284   2.470   1.016
12776WAT     H238571   0.303   2.343   1.117
12777WAT      O38572   4.659   4.206   5.521
12777WAT     H138573   4.571   4.191   5.565
12777WAT     H238574   4.723   4.246   5.586
12778WAT      O38575   7.105   7.541   8.172
12778WAT     H138576   7.041   7.615   8.152
12778WAT     H238577   7.058   7.469   8.223
12779WAT      O38578   1.070   7.281   2.369
12779WAT     H138579   1.095   7.372   2.399
12779WAT     H238580   1.096   7.214   2.439
12780WAT      O38581   1.633   2.950   8.966
12780WAT     H138582   1.590   2.936   8.877
12780WAT     H238583   1.686   2.868   8.990
12781WAT      O38584   3.623   8.377   2.644
12781WAT     H138585   3.629   8.476   2.627
12781WAT     H238586   3.637   8.328   2.558
12782WAT      O38587   6.084   9.230   1.835
12782WAT     H138588   6.122   9.158   1.777
12782WAT     H238589   6.143   9.310   1.832
12783WAT      O38590   3.239   1.762   8.483
12783WAT     H138591   3.197   1.774   8.393
12783WAT     H238592   3.338   1.751   8.473
12784WAT      O38593   6.227   3.522   6.710
12784WAT     H138594   6.187   3.455   6.774
12784WAT     H238595   6.205   3.614   6.742
12785WAT      O38596   5.513   6.271   2.995
12785WAT     H138597   5.428   6.221   2.981
12785WAT     H238598   5.565   6.272   2.909
12786WAT      O38599   4.850   4.478   0.226
12786WAT     H138600   4.884   4.502   0.135
12786WAT     H238601   4.898   4.397   0.259
12787WAT      O38602   3.837   4.125   6.386
12787WAT     H138603   3.766   4.103   6.320
12787WAT     H238604   3.809   4.094   6.477
12788WAT      O38605   6.394   2.783   2.531
12788WAT     H138606   6.309   2.836   2.539
12788WAT     H238607   6.371   2.686   2.524
12789WAT      O38608   1.112   8.703   6.248
12789WAT     H138609   1.131   8.610   6.281
12789WAT     H238610   1.193   8.739   6.202
12790WAT      O38611   3.618   4.406   9.695
12790WAT     H138612   3.668   4.326   9.730
12790WAT     H238613   3.546   4.431   9.759
12791WAT      O38614   6.226   7.086   7.739
12791WAT     H138615   6.213   7.128   7.649
12791WAT     H238616   6.153   7.117   7.800
12792WAT      O38617   6.753   1.848   1.411
12792WAT     H138618   6.723   1.788   1.337
12792WAT     H238619   6.676   1.905   1.441
12793WAT      O38620   8.314   4.260   9.498
12793WAT     H138621   8.259   4.205   9.561
12793WAT     H238622   8.388   4.305   9.549
12794WAT      O38623   3.149   7.151   5.423
12794WAT     H138624   3.232   7.203   5.404
12794WAT     H238625   3.098   7.195   5.498
12795WAT      O38626   1.165   4.404   3.707
12795WAT     H138627   1.113   4.419   3.623
12795WAT     H238628   1.150   4.481   3.770
12796WAT      O38629   4.803   9.353   1.878
12796WAT     H138630   4.824   9.450   1.871
12796WAT     H238631   4.711   9.337   1.841
12797WAT      O38632   5.105   5.648   2.465
12797WAT     H138633   5.163   5.607   2.394
12797WAT     H238634   5.161   5.672   2.544
12798WAT      O38635   9.750   8.690   0.189
12798WAT     H138636   9.740   8.606   0.136
12798WAT     H238637   9.683   8.758   0.156
12799WAT      O38638   9.661   6.112   7.673
12799WAT     H138639   9.666   6.018   7.708
12799WAT     H238640   9.689   6.176   7.745
12800WAT      O38641   4.507   7.885   3.917
12800WAT     H138642   4.454   7.856   3.837
12800WAT     H238643   4.594   7.835   3.919
12801WAT      O38644   6.101   9.020   3.082
12801WAT     H138645   6.140   8.992   3.170
12801WAT     H238646   6.168   9.004   3.010
12802WAT      O38647   7.747   5.603   3.615
12802WAT     H138648   7.771   5.569   3.524
12802WAT     H238649   7.818   5.575   3.680
12803WAT      O38650   4.027   6.889   0.052
12803WAT     H138651   4.020   6.899   0.151
12803WAT     H238652   4.105   6.829   0.030
12804WAT      O38653   6.353   4.376   0.681
12804WAT     H138654   6.370   4.388   0.779
12804WAT     H238655   6.269   4.323   0.669
12805WAT      O38656   2.313   0.730   4.097
12805WAT     H138657   2.285   0.639   4.063
12805WAT     H238658   2.404   0.752   4.062
12806WAT      O38659   8.562   6.107   3.755
12806WAT     H138660   8.479   6.055   3.737
12806WAT     H238661   8.641   6.047   3.748
12807WAT      O38662   1.465   2.883   2.433
12807WAT     H138663   1.458   2.785   2.415
12807WAT     H238664   1.454   2.934   2.347
12808WAT      O38665   5.410   3.906   9.365
12808WAT     H138666   5.441   3.982   9.307
12808WAT     H238667   5.313   3.890   9.349
12809WAT      O38668   1.190   5.184   3.048
12809WAT     H138669   1.261   5.113   3.051
12809WAT     H238670   1.198   5.243   3.129
12810WAT      O38671   1.091   8.048   4.844
12810WAT     H138672   1.026   7.990   4.796
12810WAT     H238673   1.046   8.092   4.922
12811WAT      O38674   4.358   0.291   5.281
12811WAT     H138675   4.264   0.321   5.263
12811WAT     H238676   4.399   0.256   5.198
12812WAT      O38677   8.165   8.535   4.688
12812WAT     H138678   8.151   8.503   4.782
12812WAT     H238679   8.171   8.635   4.688
12813WAT      O38680   5.915   2.284   8.710
12813WAT     H138681   5.888   2.361   8.652
12813WAT     H238682   5.867   2.201   8.680
12814WAT      O38683   3.087   3.971   4.909
12814WAT     H138684   3.084   4.046   4.843
12814WAT     H238685   3.041   3.998   4.993
12815WAT      O38686   2.235   2.162   5.466
12815WAT     H138687   2.186   2.173   5.553
12815WAT     H238688   2.187   2.095   5.409
12816WAT      O38689   5.419   9.328   9.756
12816WAT     H138690   5.470   9.394   9.811
12816WAT     H238691   5.374   9.377   9.681
12817WAT      O38692   4.566   6.486   8.829
12817WAT     H138693   4.530   6.511   8.739
12817WAT     H238694   4.527   6.547   8.899
12818WAT      O38695   0.829   9.248   9.852
12818WAT     H138696   0.869   9.217   9.938
12818WAT     H238697   0.835   9.174   9.784
12819WAT      O38698   4.226   5.838   3.550
12819WAT     H138699   4.306   5.898   3.560
12819WAT     H238700   4.186   5.822   3.641
12820WAT      O38701   9.036   7.896   5.815
12820WAT     H138702   9.073   7.857   5.731
12820WAT     H238703   8.952   7.849   5.841
12821WAT      O38704   8.122   9.325   4.113
12821WAT     H138705   8.179   9.344   4.193
12821WAT     H238706   8.105   9.226   4.107
12822WAT      O38707   2.648   2.989   4.327
12822WAT     H138708   2.662   2.952   4.419
12822WAT     H238709   2.660   3.088   4.329
12823WAT      O38710   0.878   7.995   6.505
12823WAT     H138711   0.844   7.901   6.499
12823WAT     H238712   0.817   8.055   6.453
12824WAT      O38713   6.168   9.680   3.235
12824WAT     H138714   6.074   9.692   3.202
12824WAT     H238715   6.227   9.746   3.189
12825WAT      O38716   9.662   1.329   9.719
12825WAT     H138717   9.596   1.254   9.715
12825WAT     H238718   9.619   1.410   9.758
12826WAT      O38719   4.318   1.881   1.842
12826WAT     H138720   4.408   1.878   1.886
12826WAT     H238721   4.276   1.791   1.844
12827WAT      O38722   8.860   1.713   4.308
12827WAT     H138723   8.784   1.735   4.246
12827WAT     H238724   8.858   1.776   4.386
12828WAT      O38725   7.342   0.832   1.577
12828WAT     H138726   7.415   0.884   1.533
12828WAT     H238727   7.370   0.737   1.588
12829WAT      O38728   6.043   2.617   3.787
12829WAT     H138729   5.982   2.549   3.747
12829WAT     H238730   6.120   2.571   3.832
12830WAT      O38731   1.989   9.549   9.416
12830WAT     H138732   2.059   9.543   9.345
12830WAT     H238733   1.960   9.645   9.426
12831WAT      O38734   6.551   5.057   8.473
12831WAT     H138735   6.465   5.108   8.460
12831WAT     H238736   6.529   4.962   8.496
12832WAT      O38737   4.252   3.867   2.215
12832WAT     H138738   4.271   3.959   2.182
12832WAT     H238739   4.332   3.831   2.263
12833WAT      O38740   6.096   2.453   0.690
12833WAT     H138741   6.169   2.436   0.757
12833WAT     H238742   6.136   2.487   0.605
12834WAT      O38743   7.548   1.100   8.547
12834WAT     H138744   7.521   1.021   8.490
12834WAT     H238745   7.491   1.178   8.523
12835WAT      O38746   2.667   9.803   1.240
12835WAT     H138747   2.703   9.711   1.227
12835WAT     H238748   2.714   9.866   1.178
12836WAT      O38749   3.252   4.737   4.658
12836WAT     H138750   3.256   4.647   4.613
12836WAT     H238751   3.204   4.728   4.745
12837WAT      O38752   0.628   6.216   1.051
12837WAT     H138753   0.620   6.171   1.140
12837WAT     H238754   0.702   6.173   0.999
12838WAT      O38755   1.330   2.811   8.569
12838WAT     H138756   1.323   2.823   8.470
12838WAT     H238757   1.302   2.718   8.594
12839WAT      O38758   4.299   4.039   1.655
12839WAT     H138759   4.262   4.098   1.584
12839WAT     H238760   4.394   4.018   1.635
12840WAT      O38761   2.039   6.638   7.033
12840WAT     H138762   2.055   6.634   7.131
12840WAT     H238763   2.069   6.726   6.997
12841WAT      O38764   5.215   0.491   7.587
12841WAT     H138765   5.172   0.404   7.609
12841WAT     H238766   5.203   0.511   7.490
12842WAT      O38767   3.529   6.943   6.234
12842WAT     H138768   3.429   6.951   6.240
12842WAT     H238769   3.567   6.927   6.325
12843WAT      O38770   8.136   3.051   7.528
12843WAT     H138771   8.235   3.049   7.516
12843WAT     H238772   8.092   3.040   7.439
12844WAT      O38773   7.262   9.683   2.283
12844WAT     H138774   7.273   9.624   2.203
12844WAT     H238775   7.164   9.690   2.305
12845WAT      O38776   1.852   3.575   4.906
12845WAT     H138777   1.836   3.657   4.850
12845WAT     H238778   1.949   3.551   4.902
12846WAT      O38779   0.044   3.462   5.223
12846WAT     H138780  -0.003   3.535   5.272
12846WAT     H238781   0.096   3.501   5.147
12847WAT      O38782   7.546   0.774   4.274
12847WAT     H138783   7.458   0.761   4.320
12847WAT     H238784   7.598   0.688   4.275
12848WAT      O38785   3.935   2.538   2.355
12848WAT     H138786   3.900   2.608   2.417
12848WAT     H238787   4.035   2.539   2.355
12849WAT      O38788   5.115   1.653   9.684
12849WAT     H138789   5.082   1.654   9.779
12849WAT     H238790   5.190   1.718   9.675
12850WAT      O38791   3.857   6.602   1.297
12850WAT     H138792   3.792   6.666   1.338
12850WAT     H238793   3.917   6.567   1.368
12851WAT      O38794   0.925   5.177   8.451
12851WAT     H138795   0.973   5.161   8.365
12851WAT     H238796   0.952   5.265   8.489
12852WAT      O38797   0.876   4.145   1.213
12852WAT     H138798   0.906   4.233   1.249
12852WAT     H238799   0.888   4.074   1.283
12853WAT      O38800   5.720   6.005   8.374
12853WAT     H138801   5.754   6.094   8.343
12853WAT     H238802   5.734   5.997   8.473
12854WAT      O38803   0.014   2.219   7.512
12854WAT     H138804  -0.046   2.169   7.575
12854WAT     H238805  -0.042   2.275   7.451
12855WAT      O38806   4.668   3.208   3.047
12855WAT     H138807   4.741   3.274   3.062
12855WAT     H238808   4.655   3.153   3.130
12856WAT      O38809   7.208   2.859   3.293
12856WAT     H138810   7.245   2.873   3.385
12856WAT     H238811   7.264   2.910   3.227
12857WAT      O38812   8.159   1.323   2.428
12857WAT     H138813   8.123   1.234   2.458
12857WAT     H238814   8.085   1.391   2.429
12858WAT      O38815   6.086   7.948   2.200
12858WAT     H138816   6.033   7.903   2.128
12858WAT     H238817   6.093   8.046   2.180
12859WAT      O38818   3.745   3.309   4.993
12859WAT     H138819   3.806   3.321   4.915
12859WAT     H238820   3.658   3.271   4.961
12860WAT      O38821   5.901   6.704   3.249
12860WAT     H138822   5.868   6.798   3.246
12860WAT     H238823   5.998   6.702   3.224
12861WAT      O38824   4.744   2.204   8.273
12861WAT     H138825   4.702   2.290   8.303
12861WAT     H238826   4.692   2.167   8.196
12862WAT      O38827   0.792   1.291   5.028
12862WAT     H138828   0.767   1.194   5.017
12862WAT     H238829   0.786   1.316   5.124
12863WAT      O38830   7.186   3.287   1.689
12863WAT     H138831   7.254   3.227   1.732
12863WAT     H238832   7.171   3.258   1.594
12864WAT      O38833   6.811   5.273   7.035
12864WAT     H138834   6.876   5.348   7.048
12864WAT     H238835   6.860   5.193   7.001
12865WAT      O38836   2.410   4.821   5.581
12865WAT     H138837   2.509   4.837   5.588
12865WAT     H238838   2.392   4.763   5.502
12866WAT      O38839   7.545   2.161   7.133
12866WAT     H138840   7.483   2.084   7.145
12866WAT     H238841   7.495   2.247   7.141
12867WAT      O38842   6.655   6.154   5.384
12867WAT     H138843   6.566   6.109   5.372
12867WAT     H238844   6.725   6.101   5.338
12868WAT      O38845   9.275   3.831   3.244
12868WAT     H138846   9.249   3.905   3.306
12868WAT     H238847   9.296   3.869   3.154
12869WAT      O38848   6.692   7.740   4.032
12869WAT     H138849   6.595   7.765   4.037
12869WAT     H238850   6.730   7.770   3.944
12870WAT      O38851   1.236   6.239   0.383
12870WAT     H138852   1.237   6.339   0.384
12870WAT     H238853   1.321   6.205   0.342
12871WAT      O38854   7.325   4.384   0.954
12871WAT     H138855   7.272   4.444   0.894
12871WAT     H238856   7.421   4.413   0.953
12872WAT      O38857   3.129   5.221   1.359
12872WAT     H138858   3.033   5.232   1.337
12872WAT     H238859   3.168   5.146   1.306
12873WAT      O38860   6.476   4.788   9.142
12873WAT     H138861   6.424   4.728   9.203
12873WAT     H238862   6.549   4.833   9.194
12874WAT      O38863   6.361   0.009   1.397
12874WAT     H138864   6.339   0.090   1.451
12874WAT     H238865   6.277  -0.029   1.359
12875WAT      O38866   1.704   8.519   2.375
12875WAT     H138867   1.654   8.461   2.311
12875WAT     H238868   1.797   8.535   2.342
12876WAT      O38869   4.716   5.224   6.960
12876WAT     H138870   4.787   5.256   6.897
12876WAT     H238871   4.757   5.165   7.029
12877WAT      O38872   0.564   4.503   4.825
12877WAT     H138873   0.515   4.532   4.743
12877WAT     H238874   0.508   4.438   4.877
12878WAT      O38875   0.645   1.520   3.690
12878WAT     H138876   0.730   1.555   3.650
12878WAT     H238877   0.619   1.577   3.768
12879WAT      O38878   4.627   7.063   6.141
12879WAT     H138879   4.631   7.154   6.099
12879WAT     H238880   4.536   7.049   6.180
12880WAT      O38881   0.022   1.527   8.767
12880WAT     H138882  -0.033   1.446   8.786
12880WAT     H238883   0.107   1.500   8.721
12881WAT      O38884   3.337   5.917   1.027
12881WAT     H138885   3.404   5.866   0.972
12881WAT     H238886   3.245   5.903   0.990
12882WAT      O38887   5.340   3.121   2.394
12882WAT     H138888   5.242   3.140   2.382
12882WAT     H238889   5.353   3.023   2.409
12883WAT      O38890   5.134   5.712   0.872
12883WAT     H138891   5.096   5.762   0.950
12883WAT     H238892   5.063   5.654   0.832
12884WAT      O38893   6.384   6.294   5.144
12884WAT     H138894   6.439   6.334   5.217
12884WAT     H238895   6.410   6.198   5.131
12885WAT      O38896   1.579   9.030   2.067
12885WAT     H138897   1.487   9.065   2.050
12885WAT     H238898   1.610   8.978   1.987
12886WAT      O38899   8.360   4.581   4.418
12886WAT     H138900   8.267   4.605   4.389
12886WAT     H238901   8.402   4.659   4.465
12887WAT      O38902   6.468   9.404   3.709
12887WAT     H138903   6.501   9.477   3.649
12887WAT     H238904   6.477   9.316   3.664
12888WAT      O38905   0.697   7.261   2.316
12888WAT     H138906   0.620   7.286   2.257
12888WAT     H238907   0.783   7.278   2.268
12889WAT      O38908   7.096   7.864   0.176
12889WAT     H138909   7.124   7.863   0.272
12889WAT     H238910   7.156   7.802   0.124
12890WAT      O38911   8.040   1.893   2.857
12890WAT     H138912   7.973   1.968   2.858
12890WAT     H238913   8.124   1.925   2.814
12891WAT      O38914   7.333   8.486   8.157
12891WAT     H138915   7.281   8.528   8.083
12891WAT     H238916   7.399   8.551   8.193
12892WAT      O38917   5.784   0.806   4.944
12892WAT     H138918   5.745   0.721   4.908
12892WAT     H238919   5.874   0.822   4.905
12893WAT      O38920   5.299   9.835   1.109
12893WAT     H138921   5.261   9.926   1.127
12893WAT     H238922   5.333   9.796   1.194
12894WAT      O38923   1.850   6.150   6.372
12894WAT     H138924   1.880   6.130   6.465
12894WAT     H238925   1.761   6.195   6.375
12895WAT      O38926   5.337   7.799   5.668
12895WAT     H138927   5.318   7.701   5.671
12895WAT     H238928   5.417   7.819   5.724
12896WAT      O38929   7.078   0.738   4.630
12896WAT     H138930   7.098   0.662   4.692
12896WAT     H238931   6.991   0.781   4.655
12897WAT      O38932   9.704   7.684   9.077
12897WAT     H138933   9.639   7.745   9.031
12897WAT     H238934   9.710   7.709   9.173
12898WAT      O38935   8.865   7.472   4.210
12898WAT     H138936   8.772   7.440   4.231
12898WAT     H238937   8.874   7.568   4.237
12899WAT      O38938   4.339   4.827   0.139
12899WAT     H138939   4.300   4.911   0.101
12899WAT     H238940   4.265   4.772   0.178
12900WAT      O38941   2.175   0.346   9.250
12900WAT     H138942   2.236   0.424   9.263
12900WAT     H238943   2.084   0.368   9.286
12901WAT      O38944   3.819   4.285   8.712
12901WAT     H138945   3.844   4.363   8.653
12901WAT     H238946   3.742   4.310   8.770
12902WAT      O38947   2.290   9.307   0.568
12902WAT     H138948   2.226   9.268   0.503
12902WAT     H238949   2.257   9.291   0.661
12903WAT      O38950   7.535   3.054   1.027
12903WAT     H138951   7.513   2.990   1.101
12903WAT     H238952   7.496   3.143   1.048
12904WAT      O38953   5.702   1.436   0.872
12904WAT     H138954   5.720   1.348   0.827
12904WAT     H238955   5.714   1.510   0.806
12905WAT      O38956   0.128   1.773   0.414
12905WAT     H138957   0.123   1.823   0.501
12905WAT     H238958   0.184   1.824   0.349
12906WAT      O38959   8.931   0.583   0.296
12906WAT     H138960   9.009   0.523   0.319
12906WAT     H238961   8.846   0.531   0.304
12907WAT      O38962   5.903   0.600   5.984
12907WAT     H138963   5.825   0.538   5.975
12907WAT     H238964   5.875   0.682   6.035
12908WAT      O38965   6.156   8.179   0.494
12908WAT     H138966   6.236   8.149   0.546
12908WAT     H238967   6.154   8.279   0.492
12909WAT      O38968   5.133   9.586   9.384
12909WAT     H138969   5.188   9.645   9.325
12909WAT     H238970   5.098   9.509   9.331
12910WAT      O38971   7.116   4.240   8.328
12910WAT     H138972   7.161   4.249   8.239
12910WAT     H238973   7.034   4.183   8.317
12911WAT      O38974   6.337   7.077   0.500
12911WAT     H138975   6.358   7.095   0.404
12911WAT     H238976   6.421   7.083   0.554
12912WAT      O38977   0.561   4.461   0.197
12912WAT     H138978   0.500   4.463   0.118
12912WAT     H238979   0.507   4.462   0.281
12913WAT      O38980   9.624   0.472   1.866
12913WAT     H138981   9.542   0.498   1.916
12913WAT     H238982   9.635   0.532   1.786
12914WAT      O38983   9.199   2.142   8.125
12914WAT     H138984   9.222   2.163   8.220
12914WAT     H238985   9.118   2.084   8.122
12915WAT      O38986   6.606   0.975   8.051
12915WAT     H138987   6.689   1.022   8.022
12915WAT     H238988   6.561   1.026   8.124
12916WAT      O38989   4.694   0.500   3.660
12916WAT     H138990   4.644   0.517   3.576
12916WAT     H238991   4.792   0.494   3.641
12917WAT      O38992   6.206   5.049   9.031
12917WAT     H138993   6.211   5.100   9.118
12917WAT     H238994   6.202   4.951   9.050
12918WAT      O38995   1.812   8.504   1.930
12918WAT     H138996   1.824   8.551   2.017
12918WAT     H238997   1.865   8.419   1.930
12919WAT      O38998   4.234   6.286   5.155
12919WAT     H138999   4.179   6.295   5.072
12919WAT     H239000   4.317   6.234   5.136
12920WAT      O39001   7.973   1.130   2.455
12920WAT     H139002   7.925   1.155   2.371
12920WAT     H239003   7.943   1.039   2.484
12921WAT      O39004   4.023   0.394   0.028
12921WAT     H139005   4.051   0.484   0.063
12921WAT     H239006   4.102   0.350  -0.015
12922WAT      O39007   1.142   3.284   7.514
12922WAT     H139008   1.094   3.197   7.498
12922WAT     H239009   1.077   3.359   7.511
12923WAT      O39010   8.203   2.189   7.888
12923WAT     H139011   8.175   2.093   7.890
12923WAT     H239012   8.135   2.245   7.935
12924WAT      O39013   4.408   5.908   8.540
12924WAT     H139014   4.449   5.998   8.530
12924WAT     H239015   4.470   5.848   8.591
12925WAT      O39016   8.645   4.147   3.820
12925WAT     H139017   8.723   4.208   3.806
12925WAT     H239018   8.563   4.201   3.841
12926WAT      O39019   4.488   5.417   0.260
12926WAT     H139020   4.433   5.354   0.205
12926WAT     H239021   4.436   5.501   0.276
12927WAT      O39022   4.775   2.770   6.607
12927WAT     H139023   4.793   2.722   6.521
12927WAT     H239024   4.717   2.850   6.589
12928WAT      O39025   2.542   3.468   4.993
12928WAT     H139026   2.530   3.405   5.070
12928WAT     H239027   2.519   3.421   4.908
12929WAT      O39028   8.940   1.590   5.949
12929WAT     H139029   9.029   1.632   5.966
12929WAT     H239030   8.953   1.498   5.912
12930WAT      O39031   1.654   7.058   6.279
12930WAT     H139032   1.663   7.106   6.367
12930WAT     H239033   1.689   7.117   6.206
12931WAT      O39034   8.426   5.643   1.093
12931WAT     H139035   8.402   5.562   1.039
12931WAT     H239036   8.343   5.695   1.113
12932WAT      O39037   5.825   7.576   9.442
12932WAT     H139038   5.829   7.503   9.373
12932WAT     H239039   5.914   7.585   9.486
12933WAT      O39040   8.979   6.838   4.276
12933WAT     H139041   8.980   6.912   4.344
12933WAT     H239042   8.989   6.878   4.185
12934WAT      O39043   2.199   2.126   8.362
12934WAT     H139044   2.181   2.033   8.395
12934WAT     H239045   2.148   2.142   8.278
12935WAT      O39046   3.221   4.031   5.355
12935WAT     H139047   3.146   3.996   5.411
12935WAT     H239048   3.271   4.102   5.406
12936WAT      O39049   0.027   1.758   6.103
12936WAT     H139050  -0.067   1.731   6.081
12936WAT     H239051   0.055   1.833   6.042
12937WAT      O39052   0.044   0.384   2.594
12937WAT     H139053  -0.015   0.458   2.626
12937WAT     H239054   0.109   0.419   2.527
12938WAT      O39055   2.579   4.760   1.025
12938WAT     H139056   2.515   4.813   0.970
12938WAT     H239057   2.554   4.766   1.122
12939WAT      O39058   8.849   0.056   1.488
12939WAT     H139059   8.909   0.097   1.419
12939WAT     H239060   8.869   0.097   1.578
12940WAT      O39061   3.947   0.181   7.610
12940WAT     H139062   3.943   0.264   7.555
12940WAT     H239063   3.984   0.203   7.701
12941WAT      O39064   5.606   8.063   9.806
12941WAT     H139065   5.701   8.036   9.815
12941WAT     H239066   5.548   7.999   9.856
12942WAT      O39067   4.357   4.411   4.357
12942WAT     H139068   4.286   4.469   4.397
12942WAT     H239069   4.430   4.397   4.424
12943WAT      O39070   4.827   5.017   7.124
12943WAT     H139071   4.805   5.034   7.220
12943WAT     H239072   4.750   4.971   7.079
12944WAT      O39073   4.861   7.150   0.600
12944WAT     H139074   4.795   7.179   0.670
12944WAT     H239075   4.937   7.215   0.598
12945WAT      O39076   3.423   6.943   7.754
12945WAT     H139077   3.477   6.874   7.802
12945WAT     H239078   3.331   6.946   7.792
12946WAT      O39079   0.732   7.101   7.991
12946WAT     H139080   0.636   7.081   8.009
12946WAT     H239081   0.771   7.151   8.068
12947WAT      O39082   4.534   6.595   4.239
12947WAT     H139083   4.600   6.670   4.240
12947WAT     H239084   4.525   6.561   4.145
12948WAT      O39085   0.837   7.606   5.620
12948WAT     H139086   0.811   7.620   5.524
12948WAT     H239087   0.768   7.648   5.679
12949WAT      O39088   6.324   9.172   9.850
12949WAT     H139089   6.394   9.227   9.807
12949WAT     H239090   6.242   9.227   9.864
12950WAT      O39091   2.532   4.491   0.641
12950WAT     H139092   2.511   4.565   0.577
12950WAT     H239093   2.471   4.414   0.624
12951WAT      O39094   2.471   8.521   2.461
12951WAT     H139095   2.406   8.520   2.537
12951WAT     H239096   2.555   8.474   2.488
12952WAT      O39097   3.727   0.537   1.406
12952WAT     H139098   3.751   0.519   1.502
12952WAT     H239099   3.732   0.635   1.389
12953WAT      O39100   7.188   6.670   4.714
12953WAT     H139101   7.160   6.709   4.627
12953WAT     H239102   7.288   6.674   4.722
12954WAT      O39103   6.418   5.225   1.556
12954WAT     H139104   6.343   5.160   1.566
12954WAT     H239105   6.469   5.205   1.472
12955WAT      O39106   1.787   4.581   5.388
12955WAT     H139107   1.853   4.645   5.428
12955WAT     H239108   1.752   4.520   5.459
12956WAT      O39109   4.667   5.085   0.499
12956WAT     H139110   4.606   5.017   0.457
12956WAT     H239111   4.721   5.041   0.571
12957WAT      O39112   1.205   8.697   2.450
12957WAT     H139113   1.259   8.645   2.517
12957WAT     H239114   1.115   8.717   2.489
12958WAT      O39115   0.312   6.184   2.471
12958WAT     H139116   0.265   6.131   2.401
12958WAT     H239117   0.247   6.213   2.541
12959WAT      O39118   6.936   0.373   5.946
12959WAT     H139119   6.973   0.294   5.995
12959WAT     H239120   6.881   0.428   6.009
12960WAT      O39121   0.943   8.957   6.578
12960WAT     H139122   0.988   9.036   6.535
12960WAT     H239123   0.900   8.901   6.507
12961WAT      O39124   4.037   6.606   3.120
12961WAT     H139125   4.041   6.511   3.088
12961WAT     H239126   4.107   6.660   3.074
12962WAT      O39127   5.246   7.809   7.832
12962WAT     H139128   5.307   7.731   7.844
12962WAT     H239129   5.245   7.836   7.735
12963WAT      O39130   3.790   6.502   5.078
12963WAT     H139131   3.788   6.602   5.089
12963WAT     H239132   3.843   6.462   5.153
12964WAT      O39133   9.699   6.013   0.266
12964WAT     H139134   9.765   6.083   0.294
12964WAT     H239135   9.686   5.947   0.341
12965WAT      O39136   0.030   2.721   0.358
12965WAT     H139137  -0.051   2.694   0.409
12965WAT     H239138   0.091   2.643   0.347
12966WAT      O39139   0.243   9.308   2.653
12966WAT     H139140   0.245   9.317   2.554
12966WAT     H239141   0.233   9.212   2.679
12967WAT      O39142   9.215   5.570   0.281
12967WAT     H139143   9.232   5.530   0.191
12967WAT     H239144   9.193   5.498   0.346
12968WAT      O39145   5.639   7.247   1.718
12968WAT     H139146   5.557   7.207   1.759
12968WAT     H239147   5.636   7.234   1.618
12969WAT      O39148   2.743   4.319   7.347
12969WAT     H139149   2.806   4.294   7.421
12969WAT     H239150   2.795   4.336   7.263
12970WAT      O39151   5.586   7.911   0.630
12970WAT     H139152   5.636   7.900   0.544
12970WAT     H239153   5.493   7.875   0.620
12971WAT      O39154   5.366   4.780   7.015
12971WAT     H139155   5.415   4.837   6.950
12971WAT     H239156   5.268   4.801   7.012
12972WAT      O39157   4.848   7.904   1.198
12972WAT     H139158   4.789   7.837   1.243
12972WAT     H239159   4.940   7.866   1.188
12973WAT      O39160   3.551   6.262   4.140
12973WAT     H139161   3.590   6.189   4.084
12973WAT     H239162   3.604   6.346   4.126
12974WAT      O39163   0.823   9.634   5.150
12974WAT     H139164   0.850   9.541   5.178
12974WAT     H239165   0.796   9.633   5.054
12975WAT      O39166   8.622   2.435   2.156
12975WAT     H139167   8.678   2.402   2.080
12975WAT     H239168   8.565   2.511   2.124
12976WAT      O39169   8.882   5.299   5.379
12976WAT     H139170   8.973   5.260   5.394
12976WAT     H239171   8.840   5.322   5.467
12977WAT      O39172   1.705   1.997   4.700
12977WAT     H139173   1.623   2.045   4.669
12977WAT     H239174   1.742   1.942   4.625
12978WAT      O39175   6.291   7.522   6.448
12978WAT     H139176   6.234   7.459   6.500
12978WAT     H239177   6.233   7.588   6.400
12979WAT      O39178   5.078   2.883   1.570
12979WAT     H139179   5.023   2.824   1.629
12979WAT     H239180   5.159   2.833   1.538
12980WAT      O39181   0.458   2.128   9.795
12980WAT     H139182   0.367   2.103   9.764
12980WAT     H239183   0.451   2.198   9.866
12981WAT      O39184   0.179   4.639   9.230
12981WAT     H139185   0.249   4.599   9.171
12981WAT     H239186   0.099   4.662   9.175
12982WAT      O39187   0.341   9.624   2.434
12982WAT     H139188   0.313   9.630   2.530
12982WAT     H239189   0.345   9.528   2.406
12983WAT      O39190   5.156   3.585   9.447
12983WAT     H139191   5.130   3.624   9.535
12983WAT     H239192   5.256   3.579   9.442
12984WAT      O39193   4.533   5.089   1.397
12984WAT     H139194   4.590   5.170   1.414
12984WAT     H239195   4.448   5.118   1.352
12985WAT      O39196   6.630   7.796   5.020
12985WAT     H139197   6.603   7.705   5.052
12985WAT     H239198   6.723   7.816   5.052
12986WAT      O39199   3.900   7.526   1.442
12986WAT     H139200   3.996   7.555   1.446
12986WAT     H239201   3.894   7.430   1.469
12987WAT      O39202   5.137   0.572   5.141
12987WAT     H139203   5.133   0.481   5.102
12987WAT     H239204   5.119   0.640   5.070
12988WAT      O39205   2.780   6.234   9.662
12988WAT     H139206   2.846   6.309   9.658
12988WAT     H239207   2.687   6.271   9.666
12989WAT      O39208   0.141   6.289   1.690
12989WAT     H139209   0.155   6.242   1.777
12989WAT     H239210   0.208   6.363   1.680
12990WAT      O39211   1.375   7.313   7.349
12990WAT     H139212   1.370   7.227   7.401
12990WAT     H239213   1.402   7.387   7.411
12991WAT      O39214   7.992   4.872   7.541
12991WAT     H139215   7.898   4.906   7.532
12991WAT     H239216   8.041   4.929   7.607
12992WAT      O39217   7.573   5.799   3.586
12992WAT     H139218   7.637   5.724   3.602
12992WAT     H239219   7.621   5.875   3.542
12993WAT      O39220   5.236   6.472   5.326
12993WAT     H139221   5.248   6.513   5.417
12993WAT     H239222   5.148   6.425   5.322
12994WAT      O39223   6.104   9.296   3.124
12994WAT     H139224   6.102   9.337   3.214
12994WAT     H239225   6.088   9.197   3.131
12995WAT      O39226   5.817   1.724   6.032
12995WAT     H139227   5.798   1.814   6.072
12995WAT     H239228   5.796   1.726   5.934
12996WAT      O39229   8.615   7.016   0.073
12996WAT     H139230   8.667   7.077   0.133
12996WAT     H239231   8.652   7.022  -0.020
12997WAT      O39232   4.617   0.395   4.392
12997WAT     H139233   4.707   0.352   4.390
12997WAT     H239234   4.627   0.494   4.385
12998WAT      O39235   9.533   7.098   0.787
12998WAT     H139236   9.479   7.030   0.836
12998WAT     H239237   9.603   7.052   0.733
12999WAT      O39238   3.547   3.855   7.209
12999WAT     H139239   3.647   3.858   7.216
12999WAT     H239240   3.513   3.772   7.254
13000WAT      O39241   3.943   6.117   1.806
13000WAT     H139242   3.961   6.215   1.816
13000WAT     H239243   3.934   6.075   1.896
13001WAT      O39244   3.721   3.366   9.612
13001WAT     H139245   3.710   3.448   9.555
13001WAT     H239246   3.673   3.379   9.698
13002WAT      O39247   7.366   9.401   0.253
13002WAT     H139248   7.329   9.488   0.289
13002WAT     H239249   7.465   9.400   0.265
13003WAT      O39250   1.387   6.734   3.542
13003WAT     H139251   1.432   6.783   3.468
13003WAT     H239252   1.452   6.720   3.617
13004WAT      O39253   6.872   2.823   5.045
13004WAT     H139254   6.953   2.803   4.990
13004WAT     H239255   6.861   2.922   5.052
13005WAT      O39256   4.880   8.291   0.577
13005WAT     H139257   4.978   8.301   0.560
13005WAT     H239258   4.865   8.264   0.672
13006WAT      O39259   9.606   7.740   0.260
13006WAT     H139260   9.572   7.833   0.267
13006WAT     H239261   9.544   7.685   0.204
13007WAT      O39262   9.065   9.454   9.576
13007WAT     H139263   9.156   9.462   9.536
13007WAT     H239264   9.038   9.358   9.582
13008WAT      O39265   1.839   3.993   9.351
13008WAT     H139266   1.921   4.048   9.362
13008WAT     H239267   1.862   3.896   9.361
13009WAT      O39268   7.150   6.535   5.761
13009WAT     H139269   7.126   6.488   5.846
13009WAT     H239270   7.092   6.615   5.749
13010WAT      O39271   5.133   6.761   9.286
13010WAT     H139272   5.168   6.847   9.249
13010WAT     H239273   5.033   6.766   9.294
13011WAT      O39274   4.719   0.559   2.064
13011WAT     H139275   4.755   0.529   2.152
13011WAT     H239276   4.700   0.479   2.007
13012WAT      O39277   6.573   6.889   5.257
13012WAT     H139278   6.664   6.890   5.215
13012WAT     H239279   6.551   6.796   5.286
13013WAT      O39280   3.416   4.454   0.011
13013WAT     H139281   3.360   4.497  -0.059
13013WAT     H239282   3.460   4.525   0.067
13014WAT      O39283   5.107   7.228   8.642
13014WAT     H139284   5.053   7.178   8.710
13014WAT     H239285   5.198   7.186   8.634
13015WAT      O39286   8.382   0.544   7.443
13015WAT     H139287   8.310   0.540   7.513
13015WAT     H239288   8.371   0.628   7.390
13016WAT      O39289   4.490   5.751   1.489
13016WAT     H139290   4.396   5.761   1.458
13016WAT     H239291   4.499   5.787   1.582
13017WAT      O39292   4.624   2.412   7.967
13017WAT     H139293   4.717   2.380   7.984
13017WAT     H239294   4.626   2.511   7.949
13018WAT      O39295   1.324   8.061   9.434
13018WAT     H139296   1.376   8.055   9.349
13018WAT     H239297   1.229   8.085   9.413
13019WAT      O39298   0.435   3.128   2.614
13019WAT     H139299   0.372   3.123   2.536
13019WAT     H239300   0.476   3.219   2.618
13020WAT      O39301   8.631   9.000   9.839
13020WAT     H139302   8.563   9.071   9.821
13020WAT     H239303   8.595   8.936   9.907
13021WAT      O39304   0.107   2.838   5.085
13021WAT     H139305   0.196   2.804   5.114
13021WAT     H239306   0.121   2.914   5.021
13022WAT      O39307   6.000   1.621   3.812
13022WAT     H139308   5.992   1.689   3.885
13022WAT     H239309   6.013   1.666   3.725
13023WAT      O39310   3.215   5.455   3.643
13023WAT     H139311   3.214   5.385   3.715
13023WAT     H239312   3.274   5.531   3.672
13024WAT      O39313   8.810   9.602   4.841
13024WAT     H139314   8.871   9.664   4.889
13024WAT     H239315   8.778   9.531   4.903
13025WAT      O39316   7.610   7.475   1.211
13025WAT     H139317   7.575   7.567   1.226
13025WAT     H239318   7.700   7.466   1.254
13026WAT      O39319   1.509   7.948   4.712
13026WAT     H139320   1.423   7.989   4.741
13026WAT     H239321   1.519   7.858   4.753
13027WAT      O39322   3.674   9.052   2.343
13027WAT     H139323   3.741   9.126   2.338
13027WAT     H239324   3.619   9.051   2.260
13028WAT      O39325   4.019   4.332   9.704
13028WAT     H139326   4.102   4.311   9.653
13028WAT     H239327   3.966   4.402   9.656
13029WAT      O39328   2.375   6.710   7.212
13029WAT     H139329   2.367   6.733   7.115
13029WAT     H239330   2.311   6.765   7.265
13030WAT      O39331   1.107   0.447   8.491
13030WAT     H139332   1.171   0.461   8.415
13030WAT     H239333   1.046   0.526   8.499
13031WAT      O39334   4.549   9.086   4.167
13031WAT     H139335   4.515   9.152   4.234
13031WAT     H239336   4.540   8.993   4.204
13032WAT      O39337   0.621   4.125   5.325
13032WAT     H139338   0.524   4.109   5.344
13032WAT     H239339   0.667   4.150   5.410
13033WAT      O39340   8.250   7.572   1.813
13033WAT     H139341   8.169   7.627   1.794
13033WAT     H239342   8.319   7.590   1.743
13034WAT      O39343   6.516   6.835   0.375
13034WAT     H139344   6.465   6.903   0.322
13034WAT     H239345   6.481   6.744   0.356
13035WAT      O39346   0.003   5.217   7.569
13035WAT     H139347   0.012   5.313   7.542
13035WAT     H239348   0.011   5.209   7.668
13036WAT      O39349   9.099   4.354   0.075
13036WAT     H139350   9.096   4.454   0.063
13036WAT     H239351   9.158   4.331   0.152
13037WAT      O39352   4.944   0.493   3.309
13037WAT     H139353   4.927   0.578   3.359
13037WAT     H239354   4.942   0.416   3.373
13038WAT      O39355   4.194   9.475   5.507
13038WAT     H139356   4.288   9.493   5.477
13038WAT     H239357   4.193   9.462   5.606
13039WAT      O39358   5.177   1.987   9.226
13039WAT     H139359   5.087   1.953   9.252
13039WAT     H239360   5.176   2.087   9.225
13040WAT      O39361   4.460   3.133   8.676
13040WAT     H139362   4.409   3.073   8.613
13040WAT     H239363   4.538   3.172   8.628
13041WAT      O39364   5.280   2.496   9.511
13041WAT     H139365   5.364   2.441   9.518
13041WAT     H239366   5.201   2.435   9.506
13042WAT      O39367   8.077   1.258   7.591
13042WAT     H139368   8.022   1.267   7.508
13042WAT     H239369   8.174   1.251   7.567
13043WAT      O39370   1.452   4.145   0.474
13043WAT     H139371   1.378   4.174   0.413
13043WAT     H239372   1.425   4.061   0.521
13044WAT      O39373   8.364   2.625   5.881
13044WAT     H139374   8.269   2.645   5.905
13044WAT     H239375   8.422   2.635   5.963
13045WAT      O39376   3.242   7.820   1.476
13045WAT     H139377   3.249   7.899   1.415
13045WAT     H239378   3.190   7.747   1.430
13046WAT      O39379   5.410   6.185   0.513
13046WAT     H139380   5.458   6.170   0.600
13046WAT     H239381   5.406   6.283   0.494
13047WAT      O39382   0.256   9.670   2.678
13047WAT     H139383   0.237   9.752   2.624
13047WAT     H239384   0.173   9.616   2.688
13048WAT      O39385   4.589   2.173   0.119
13048WAT     H139386   4.512   2.110   0.120
13048WAT     H239387   4.556   2.266   0.103
13049WAT      O39388   5.792   4.404   1.024
13049WAT     H139389   5.786   4.471   1.098
13049WAT     H239390   5.766   4.447   0.937
13050WAT      O39391   9.244   8.453   2.181
13050WAT     H139392   9.301   8.502   2.247
13050WAT     H239393   9.173   8.514   2.146
13051WAT      O39394   4.323   4.051   2.520
13051WAT     H139395   4.411   4.083   2.485
13051WAT     H239396   4.308   3.956   2.495
13052WAT      O39397   7.038   7.631   7.498
13052WAT     H139398   6.991   7.578   7.569
13052WAT     H239399   7.094   7.702   7.541
13053WAT      O39400   3.047   3.104   9.086
13053WAT     H139401   3.139   3.140   9.100
13053WAT     H239402   3.012   3.065   9.171
13054WAT      O39403   8.949   2.204   4.895
13054WAT     H139404   9.044   2.234   4.892
13054WAT     H239405   8.926   2.156   4.811
13055WAT      O39406   2.037   5.515   5.501
13055WAT     H139407   1.945   5.518   5.463
13055WAT     H239408   2.095   5.581   5.455
13056WAT      O39409   8.382   6.164   0.233
13056WAT     H139410   8.322   6.217   0.294
13056WAT     H239411   8.443   6.107   0.288
13057WAT      O39412   8.280   8.065   5.798
13057WAT     H139413   8.254   8.161   5.793
13057WAT     H239414   8.199   8.009   5.811
13058WAT      O39415   5.294   7.792   0.288
13058WAT     H139416   5.315   7.814   0.192
13058WAT     H239417   5.223   7.722   0.291
13059WAT      O39418   0.020   4.056   1.562
13059WAT     H139419  -0.005   4.015   1.475
13059WAT     H239420  -0.031   4.141   1.575
13060WAT      O39421   6.991   1.603   1.831
13060WAT     H139422   6.955   1.511   1.848
13060WAT     H239423   7.059   1.625   1.901
13061WAT      O39424   1.337   6.321   3.652
13061WAT     H139425   1.328   6.390   3.724
13061WAT     H239426   1.321   6.230   3.689
13062WAT      O39427   9.348   7.876   1.910
13062WAT     H139428   9.372   7.906   2.003
13062WAT     H239429   9.323   7.956   1.855
13063WAT      O39430   4.610   2.143   1.379
13063WAT     H139431   4.547   2.128   1.303
13063WAT     H239432   4.590   2.232   1.421
13064WAT      O39433   5.744   8.354   3.839
13064WAT     H139434   5.747   8.328   3.743
13064WAT     H239435   5.702   8.280   3.892
13065WAT      O39436   8.300   1.582   4.567
13065WAT     H139437   8.204   1.554   4.574
13065WAT     H239438   8.356   1.529   4.630
13066WAT      O39439   0.479   6.760   3.311
13066WAT     H139440   0.486   6.829   3.384
13066WAT     H239441   0.562   6.761   3.256
13067WAT      O39442   0.746   2.369   9.794
13067WAT     H139443   0.657   2.414   9.791
13067WAT     H239444   0.744   2.288   9.736
13068WAT      O39445   2.522   7.989   7.560
13068WAT     H139446   2.447   7.999   7.624
13068WAT     H239447   2.503   8.042   7.477
13069WAT      O39448   5.474   9.435   6.831
13069WAT     H139449   5.420   9.408   6.911
13069WAT     H239450   5.423   9.413   6.748
13070WAT      O39451   0.539   3.030   7.050
13070WAT     H139452   0.565   2.979   6.968
13070WAT     H239453   0.472   2.977   7.103
13071WAT      O39454   5.446   6.486   4.413
13071WAT     H139455   5.506   6.498   4.492
13071WAT     H239456   5.450   6.568   4.355
13072WAT      O39457   7.658   8.661   7.557
13072WAT     H139458   7.696   8.627   7.643
13072WAT     H239459   7.668   8.760   7.553
13073WAT      O39460   0.587   9.543   0.961
13073WAT     H139461   0.679   9.516   0.990
13073WAT     H239462   0.594   9.608   0.885
13074WAT      O39463   8.150   5.712   6.308
13074WAT     H139464   8.072   5.670   6.353
13074WAT     H239465   8.182   5.653   6.234
13075WAT      O39466   7.644   2.170   9.318
13075WAT     H139467   7.566   2.112   9.291
13075WAT     H239468   7.617   2.228   9.395
13076WAT      O39469   0.877   8.399   5.815
13076WAT     H139470   0.916   8.307   5.809
13076WAT     H239471   0.840   8.414   5.907
13077WAT      O39472   1.032   0.041   2.757
13077WAT     H139473   1.006   0.031   2.661
13077WAT     H239474   0.953   0.023   2.816
13078WAT      O39475   5.328   3.724   8.072
13078WAT     H139476   5.352   3.731   7.975
13078WAT     H239477   5.302   3.630   8.092
13079WAT      O39478   5.001   1.296   5.219
13079WAT     H139479   5.048   1.375   5.257
13079WAT     H239480   4.951   1.324   5.136
13080WAT      O39481   4.617   0.577   1.664
13080WAT     H139482   4.667   0.491   1.653
13080WAT     H239483   4.670   0.640   1.720
13081WAT      O39484   9.470   4.441   4.695
13081WAT     H139485   9.519   4.390   4.624
13081WAT     H239486   9.383   4.396   4.713
13082WAT      O39487   6.913   9.126   6.584
13082WAT     H139488   6.853   9.204   6.565
13082WAT     H239489   6.918   9.068   6.503
13083WAT      O39490   1.679   9.804   1.931
13083WAT     H139491   1.757   9.840   1.879
13083WAT     H239492   1.684   9.837   2.025
13084WAT      O39493   0.579   7.947   1.025
13084WAT     H139494   0.560   7.866   0.969
13084WAT     H239495   0.538   8.027   0.983
13085WAT      O39496   0.866   1.638   3.298
13085WAT     H139497   0.941   1.687   3.254
13085WAT     H239498   0.868   1.656   3.396
13086WAT      O39499   2.632   8.203   2.284
13086WAT     H139500   2.642   8.176   2.189
13086WAT     H239501   2.552   8.158   2.324
13087WAT      O39502   1.852   3.703   3.777
13087WAT     H139503   1.850   3.755   3.691
13087WAT     H239504   1.759   3.689   3.809
13088WAT      O39505   5.615   6.923   8.895
13088WAT     H139506   5.631   7.018   8.919
13088WAT     H239507   5.598   6.870   8.979
13089WAT      O39508   8.225   6.520   4.282
13089WAT     H139509   8.325   6.516   4.275
13089WAT     H239510   8.198   6.610   4.315
13090WAT      O39511   1.961   5.117   4.664
13090WAT     H139512   2.033   5.132   4.597
13090WAT     H239513   1.992   5.147   4.754
13091WAT      O39514   2.270   5.055   6.913
13091WAT     H139515   2.233   5.136   6.868
13091WAT     H239516   2.297   5.078   7.006
13092WAT      O39517   5.246   5.538   4.940
13092WAT     H139518   5.177   5.500   4.879
13092WAT     H239519   5.214   5.532   5.035
13093WAT      O39520   5.382   6.759   5.768
13093WAT     H139521   5.466   6.721   5.806
13093WAT     H239522   5.303   6.712   5.807
13094WAT      O39523   0.586   8.710   5.771
13094WAT     H139524   0.655   8.662   5.716
13094WAT     H239525   0.511   8.738   5.712
13095WAT      O39526   7.621   3.101   2.288
13095WAT     H139527   7.619   3.155   2.204
13095WAT     H239528   7.679   3.020   2.274
13096WAT      O39529   9.183   3.071   2.019
13096WAT     H139530   9.140   3.053   1.931
13096WAT     H239531   9.215   2.985   2.059
13097WAT      O39532   2.116   3.810   0.468
13097WAT     H139533   2.023   3.774   0.477
13097WAT     H239534   2.113   3.907   0.446
13098WAT      O39535   4.665   9.635   5.887
13098WAT     H139536   4.697   9.730   5.883
13098WAT     H239537   4.744   9.574   5.892
13099WAT      O39538   7.059   7.230   1.085
13099WAT     H139539   7.031   7.237   1.181
13099WAT     H239540   7.044   7.136   1.053
13100WAT      O39541   4.156   0.755   1.527
13100WAT     H139542   4.097   0.833   1.545
13100WAT     H239543   4.112   0.672   1.562
13101WAT      O39544   2.600   4.786   7.620
13101WAT     H139545   2.616   4.706   7.562
13101WAT     H239546   2.633   4.766   7.712
13102WAT      O39547   8.349   4.807   6.125
13102WAT     H139548   8.381   4.882   6.068
13102WAT     H239549   8.251   4.793   6.109
13103WAT      O39550   0.332   7.677   0.335
13103WAT     H139551   0.321   7.608   0.406
13103WAT     H239552   0.423   7.717   0.341
13104WAT      O39553   0.897   9.296   1.873
13104WAT     H139554   0.836   9.271   1.948
13104WAT     H239555   0.868   9.249   1.789
13105WAT      O39556   9.633   2.410   8.388
13105WAT     H139557   9.713   2.379   8.439
13105WAT     H239558   9.560   2.343   8.395
13106WAT      O39559   8.972   0.825   6.350
13106WAT     H139560   8.930   0.822   6.260
13106WAT     H239561   9.053   0.767   6.352
13107WAT      O39562   7.766   6.853   6.260
13107WAT     H139563   7.684   6.905   6.239
13107WAT     H239564   7.780   6.851   6.359
13108WAT      O39565   3.401   7.363   3.549
13108WAT     H139566   3.409   7.337   3.453
13108WAT     H239567   3.369   7.286   3.603
13109WAT      O39568   7.376   8.881   8.292
13109WAT     H139569   7.329   8.864   8.379
13109WAT     H239570   7.406   8.794   8.252
13110WAT      O39571   1.424   8.495   4.032
13110WAT     H139572   1.488   8.439   3.980
13110WAT     H239573   1.373   8.437   4.096
13111WAT      O39574   8.536   9.217   1.789
13111WAT     H139575   8.475   9.295   1.808
13111WAT     H239576   8.483   9.133   1.790
13112WAT      O39577   8.926   2.510   1.312
13112WAT     H139578   8.895   2.466   1.228
13112WAT     H239579   8.868   2.589   1.332
13113WAT      O39580   8.865   1.515   4.709
13113WAT     H139581   8.921   1.527   4.791
13113WAT     H239582   8.882   1.591   4.646
13114WAT      O39583   7.998   9.058   2.614
13114WAT     H139584   8.068   9.117   2.655
13114WAT     H239585   7.947   9.012   2.687
13115WAT      O39586   1.310   3.405   2.038
13115WAT     H139587   1.267   3.315   2.047
13115WAT     H239588   1.348   3.414   1.946
13116WAT      O39589   6.705   5.961   9.537
13116WAT     H139590   6.680   6.035   9.599
13116WAT     H239591   6.802   5.968   9.513
13117WAT      O39592   0.464   3.196   7.768
13117WAT     H139593   0.375   3.166   7.733
13117WAT     H239594   0.537   3.144   7.722
13118WAT      O39595   4.750   1.907   4.143
13118WAT     H139596   4.782   1.981   4.084
13118WAT     H239597   4.693   1.944   4.215
13119WAT      O39598   7.582   1.935   5.406
13119WAT     H139599   7.529   2.013   5.373
13119WAT     H239600   7.679   1.956   5.404
13120WAT      O39601   3.002   6.848   5.088
13120WAT     H139602   2.909   6.853   5.051
13120WAT     H239603   3.026   6.753   5.105
13121WAT      O39604   8.294   7.908   8.260
13121WAT     H139605   8.390   7.906   8.231
13121WAT     H239606   8.237   7.871   8.186
13122WAT      O39607   5.275   9.776   1.646
13122WAT     H139608   5.319   9.813   1.728
13122WAT     H239609   5.322   9.692   1.619
13123WAT      O39610   2.677   1.740   0.016
13123WAT     H139611   2.756   1.795   0.044
13123WAT     H239612   2.647   1.768  -0.075
13124WAT      O39613   8.551   1.291   5.405
13124WAT     H139614   8.640   1.326   5.434
13124WAT     H239615   8.485   1.302   5.480
13125WAT      O39616   4.218   3.968   0.579
13125WAT     H139617   4.214   3.870   0.556
13125WAT     H239618   4.271   4.016   0.509
13126WAT      O39619   3.003   9.143   6.247
13126WAT     H139620   3.058   9.062   6.265
13126WAT     H239621   2.966   9.138   6.154
13127WAT      O39622   5.420   5.411   4.159
13127WAT     H139623   5.381   5.338   4.103
13127WAT     H239624   5.354   5.439   4.229
13128WAT      O39625   5.719   3.577   9.467
13128WAT     H139626   5.701   3.519   9.388
13128WAT     H239627   5.797   3.541   9.518
13129WAT      O39628   0.196   2.061   2.610
13129WAT     H139629   0.104   2.023   2.599
13129WAT     H239630   0.189   2.156   2.642
13130WAT      O39631   6.880   9.620   3.977
13130WAT     H139632   6.854   9.624   4.073
13130WAT     H239633   6.906   9.526   3.954
13131WAT      O39634   0.854   0.607   0.643
13131WAT     H139635   0.818   0.690   0.687
13131WAT     H239636   0.802   0.588   0.560
13132WAT      O39637   9.560   0.477   8.059
13132WAT     H139638   9.561   0.545   7.985
13132WAT     H239639   9.507   0.397   8.030
13133WAT      O39640   8.731   8.686   3.530
13133WAT     H139641   8.763   8.672   3.624
13133WAT     H239642   8.652   8.748   3.531
13134WAT      O39643   4.265   6.005   0.939
13134WAT     H139644   4.302   5.982   1.029
13134WAT     H239645   4.272   5.925   0.879
13135WAT      O39646   6.123   6.296   8.168
13135WAT     H139647   6.070   6.211   8.165
13135WAT     H239648   6.096   6.355   8.093
13136WAT      O39649   0.732   2.173   8.326
13136WAT     H139650   0.750   2.268   8.301
13136WAT     H239651   0.720   2.119   8.243
13137WAT      O39652   3.271   1.773   7.869
13137WAT     H139653   3.245   1.863   7.833
13137WAT     H239654   3.214   1.703   7.826
13138WAT      O39655   6.210   8.998   3.328
13138WAT     H139656   6.201   8.946   3.413
13138WAT     H239657   6.296   9.049   3.330
13139WAT      O39658   6.235   0.532   2.755
13139WAT     H139659   6.292   0.475   2.697
13139WAT     H239660   6.290   0.607   2.793
13140WAT      O39661   4.459   2.526   4.313
13140WAT     H139662   4.432   2.474   4.232
13140WAT     H239663   4.555   2.552   4.306
13141WAT      O39664   7.498   9.142   9.555
13141WAT     H139665   7.487   9.185   9.645
13141WAT     H239666   7.595   9.137   9.531
13142WAT      O39667   3.918   5.618   6.706
13142WAT     H139668   3.856   5.619   6.627
13142WAT     H239669   4.002   5.667   6.683
13143WAT      O39670   8.075   3.470   2.404
13143WAT     H139671   8.036   3.378   2.395
13143WAT     H239672   8.080   3.514   2.315
13144WAT      O39673   9.611   6.434   0.517
13144WAT     H139674   9.532   6.377   0.492
13144WAT     H239675   9.664   6.388   0.588
13145WAT      O39676   3.476   2.308   1.543
13145WAT     H139677   3.517   2.274   1.458
13145WAT     H239678   3.548   2.326   1.610
13146WAT      O39679   8.507   7.775   6.643
13146WAT     H139680   8.452   7.697   6.673
13146WAT     H239681   8.589   7.741   6.596
13147WAT      O39682   1.850   9.650   5.279
13147WAT     H139683   1.774   9.701   5.319
13147WAT     H239684   1.936   9.683   5.318
13148WAT      O39685   2.691   7.721   3.592
13148WAT     H139686   2.769   7.783   3.585
13148WAT     H239687   2.723   7.626   3.593
13149WAT      O39688   6.653   5.039   3.640
13149WAT     H139689   6.603   4.968   3.590
13149WAT     H239690   6.593   5.080   3.709
13150WAT      O39691   4.489   2.266   3.813
13150WAT     H139692   4.453   2.349   3.770
13150WAT     H239693   4.417   2.197   3.819
13151WAT      O39694   1.109   8.130   2.561
13151WAT     H139695   1.110   8.144   2.660
13151WAT     H239696   1.068   8.041   2.540
13152WAT      O39697   6.604   7.104   3.010
13152WAT     H139698   6.595   7.050   3.094
13152WAT     H239699   6.522   7.093   2.954
13153WAT      O39700   1.484   1.470   3.293
13153WAT     H139701   1.461   1.526   3.373
13153WAT     H239702   1.581   1.483   3.270
13154WAT      O39703   5.145   7.212   7.717
13154WAT     H139704   5.161   7.261   7.631
13154WAT     H239705   5.186   7.121   7.710
13155WAT      O39706   4.120   4.393   2.237
13155WAT     H139707   4.219   4.395   2.245
13155WAT     H239708   4.079   4.387   2.327
13156WAT      O39709   8.675   7.707   7.792
13156WAT     H139710   8.664   7.641   7.866
13156WAT     H239711   8.770   7.705   7.760
13157WAT      O39712   5.904   8.138   2.011
13157WAT     H139713   5.869   8.228   1.988
13157WAT     H239714   5.841   8.092   2.073
13158WAT      O39715   3.305   6.929   9.655
13158WAT     H139716   3.360   7.007   9.625
13158WAT     H239717   3.208   6.952   9.650
13159WAT      O39718   3.950   1.055   9.458
13159WAT     H139719   4.026   1.058   9.522
13159WAT     H239720   3.877   1.115   9.489
13160WAT      O39721   1.807   7.935   7.750
13160WAT     H139722   1.856   7.855   7.782
13160WAT     H239723   1.826   7.950   7.653
13161WAT      O39724   0.229   2.899   2.190
13161WAT     H139725   0.175   2.936   2.114
13161WAT     H239726   0.322   2.879   2.158
13162WAT      O39727   8.629   3.218   9.391
13162WAT     H139728   8.579   3.135   9.364
13162WAT     H239729   8.723   3.194   9.414
13163WAT      O39730   4.776   8.880   6.028
13163WAT     H139731   4.737   8.914   5.943
13163WAT     H239732   4.702   8.862   6.093
13164WAT      O39733   8.608   1.331   1.136
13164WAT     H139734   8.530   1.391   1.118
13164WAT     H239735   8.689   1.367   1.090
13165WAT      O39736   4.204   4.135   5.715
13165WAT     H139737   4.149   4.053   5.703
13165WAT     H239738   4.147   4.209   5.751
13166WAT      O39739   7.737   8.646   2.614
13166WAT     H139740   7.710   8.741   2.628
13166WAT     H239741   7.663   8.586   2.646
13167WAT      O39742   1.667   7.416   7.069
13167WAT     H139743   1.624   7.459   7.148
13167WAT     H239744   1.707   7.329   7.095
13168WAT      O39745   3.421   6.873   2.874
13168WAT     H139746   3.497   6.819   2.911
13168WAT     H239747   3.430   6.968   2.904
13169WAT      O39748   4.233   4.332   0.260
13169WAT     H139749   4.276   4.249   0.295
13169WAT     H239750   4.167   4.366   0.327
13170WAT      O39751   0.284   8.100   3.929
13170WAT     H139752   0.249   8.006   3.931
13170WAT     H239753   0.334   8.115   3.844
13171WAT      O39754   1.776   8.801   6.771
13171WAT     H139755   1.779   8.737   6.694
13171WAT     H239756   1.790   8.751   6.856
13172WAT      O39757   8.118   4.014   5.826
13172WAT     H139758   8.067   3.957   5.762
13172WAT     H239759   8.172   3.956   5.887
13173WAT      O39760   9.565   1.477   5.131
13173WAT     H139761   9.591   1.563   5.176
13173WAT     H239762   9.646   1.419   5.122
13174WAT      O39763   4.174   2.059   0.976
13174WAT     H139764   4.133   2.017   0.895
13174WAT     H239765   4.156   2.157   0.976
13175WAT      O39766   3.357   1.280   6.768
13175WAT     H139767   3.340   1.182   6.766
13175WAT     H239768   3.271   1.329   6.752
13176WAT      O39769   1.957   7.277   5.991
13176WAT     H139770   1.964   7.351   5.924
13176WAT     H239771   1.993   7.193   5.952
13177WAT      O39772   8.557   1.057   7.898
13177WAT     H139773   8.526   1.147   7.927
13177WAT     H239774   8.563   0.997   7.977
13178WAT      O39775   9.370   1.278   2.697
13178WAT     H139776   9.440   1.340   2.661
13178WAT     H239777   9.414   1.206   2.750
13179WAT      O39778   8.359   4.028   3.515
13179WAT     H139779   8.321   4.063   3.600
13179WAT     H239780   8.300   4.055   3.439
13180WAT      O39781   0.151   1.549   7.884
13180WAT     H139782   0.201   1.617   7.937
13180WAT     H239783   0.188   1.458   7.903
13181WAT      O39784   8.052   4.415   2.056
13181WAT     H139785   7.967   4.399   2.006
13181WAT     H239786   8.099   4.328   2.069
13182WAT      O39787   5.642   9.345   5.565
13182WAT     H139788   5.604   9.403   5.493
13182WAT     H239789   5.675   9.402   5.640
13183WAT      O39790   2.549   9.289   2.493
13183WAT     H139791   2.635   9.329   2.523
13183WAT     H239792   2.560   9.191   2.479
13184WAT      O39793   5.219   4.504   3.958
13184WAT     H139794   5.153   4.490   4.031
13184WAT     H239795   5.225   4.422   3.902
13185WAT      O39796   6.185   7.090   5.155
13185WAT     H139797   6.283   7.108   5.153
13185WAT     H239798   6.169   6.998   5.189
13186WAT      O39799   4.995   8.723   4.246
13186WAT     H139800   5.021   8.693   4.154
13186WAT     H239801   4.935   8.655   4.288
13187WAT      O39802   2.245   6.631   8.089
13187WAT     H139803   2.163   6.574   8.089
13187WAT     H239804   2.220   6.726   8.108
13188WAT      O39805   3.951   2.275   2.434
13188WAT     H139806   3.998   2.282   2.522
13188WAT     H239807   3.899   2.359   2.417
13189WAT      O39808   0.738   1.464   4.817
13189WAT     H139809   0.799   1.542   4.829
13189WAT     H239810   0.750   1.400   4.893
13190WAT      O39811   3.386   1.351   8.871
13190WAT     H139812   3.354   1.442   8.846
13190WAT     H239813   3.335   1.282   8.820
13191WAT      O39814   8.647   5.846   3.420
13191WAT     H139815   8.742   5.815   3.409
13191WAT     H239816   8.644   5.945   3.411
13192WAT      O39817   0.325   2.960   6.745
13192WAT     H139818   0.315   3.049   6.790
13192WAT     H239819   0.285   2.889   6.802
13193WAT      O39820   5.883   8.858   8.923
13193WAT     H139821   5.811   8.836   8.988
13193WAT     H239822   5.930   8.942   8.951
13194WAT      O39823   1.871   7.617   6.041
13194WAT     H139824   1.909   7.617   5.948
13194WAT     H239825   1.783   7.664   6.041
13195WAT      O39826   6.105   0.659   0.845
13195WAT     H139827   6.012   0.622   0.837
13195WAT     H239828   6.117   0.734   0.780
13196WAT      O39829   4.236   3.221   0.460
13196WAT     H139830   4.193   3.130   0.457
13196WAT     H239831   4.297   3.231   0.382
13197WAT      O39832   0.475   8.266   7.121
13197WAT     H139833   0.398   8.230   7.069
13197WAT     H239834   0.459   8.252   7.219
13198WAT      O39835   4.287   7.800   5.955
13198WAT     H139836   4.265   7.771   5.862
13198WAT     H239837   4.214   7.772   6.017
13199WAT      O39838   1.792   7.561   8.710
13199WAT     H139839   1.701   7.602   8.708
13199WAT     H239840   1.860   7.630   8.733
13200WAT      O39841   0.143   5.845   2.484
13200WAT     H139842   0.230   5.796   2.490
13200WAT     H239843   0.149   5.916   2.414
13201WAT      O39844   8.990   9.447   4.730
13201WAT     H139845   8.923   9.498   4.784
13201WAT     H239846   9.071   9.503   4.716
13202WAT      O39847   8.587   9.008   8.910
13202WAT     H139848   8.593   9.084   8.844
13202WAT     H239849   8.529   8.936   8.872
13203WAT      O39850   3.896   0.053   1.230
13203WAT     H139851   3.922  -0.020   1.293
13203WAT     H239852   3.799   0.042   1.205
13204WAT      O39853   9.111   5.716   7.611
13204WAT     H139854   9.108   5.702   7.512
13204WAT     H239855   9.204   5.739   7.638
13205WAT      O39856   7.989   9.185   8.782
13205WAT     H139857   8.073   9.156   8.828
13205WAT     H239858   7.912   9.180   8.846
13206WAT      O39859   0.915   4.495   5.336
13206WAT     H139860   0.930   4.399   5.312
13206WAT     H239861   0.854   4.536   5.269
13207WAT      O39862   9.743   4.730   4.677
13207WAT     H139863   9.655   4.710   4.634
13207WAT     H239864   9.804   4.651   4.668
13208WAT      O39865   5.056   2.539   4.837
13208WAT     H139866   4.980   2.501   4.783
13208WAT     H239867   5.022   2.614   4.894
13209WAT      O39868   6.851   3.538   0.520
13209WAT     H139869   6.934   3.537   0.577
13209WAT     H239870   6.867   3.594   0.439
13210WAT      O39871   9.157   4.202   1.351
13210WAT     H139872   9.131   4.107   1.333
13210WAT     H239873   9.247   4.205   1.394
13211WAT      O39874   2.349   1.016   8.785
13211WAT     H139875   2.284   1.041   8.857
13211WAT     H239876   2.341   0.919   8.765
13212WAT      O39877   5.004   6.987   1.967
13212WAT     H139878   4.927   6.991   2.030
13212WAT     H239879   5.079   6.935   2.009
13213WAT      O39880   1.852   0.804   1.637
13213WAT     H139881   1.760   0.771   1.612
13213WAT     H239882   1.913   0.794   1.558
13214WAT      O39883   3.346   3.486   0.018
13214WAT     H139884   3.324   3.479   0.115
13214WAT     H239885   3.379   3.397  -0.015
13215WAT      O39886   9.648   3.736   8.321
13215WAT     H139887   9.612   3.650   8.283
13215WAT     H239888   9.744   3.722   8.347
13216WAT      O39889   2.133   1.362   3.331
13216WAT     H139890   2.044   1.406   3.332
13216WAT     H239891   2.205   1.431   3.339
13217WAT      O39892   4.153   9.645   7.298
13217WAT     H139893   4.192   9.700   7.372
13217WAT     H239894   4.184   9.681   7.210
13218WAT      O39895   6.459   6.104   2.454
13218WAT     H139896   6.456   6.011   2.489
13218WAT     H239897   6.494   6.103   2.360
13219WAT      O39898   6.258   3.959   2.314
13219WAT     H139899   6.257   3.871   2.360
13219WAT     H239900   6.258   3.945   2.215
13220WAT      O39901   0.640   8.378   2.881
13220WAT     H139902   0.728   8.372   2.928
13220WAT     H239903   0.650   8.349   2.786
13221WAT      O39904   8.762   3.620   7.998
13221WAT     H139905   8.764   3.538   8.055
13221WAT     H239906   8.674   3.627   7.951
13222WAT      O39907   8.443   8.645   3.882
13222WAT     H139908   8.354   8.620   3.920
13222WAT     H239909   8.446   8.618   3.785
13223WAT      O39910   2.220   0.555   8.951
13223WAT     H139911   2.309   0.575   8.991
13223WAT     H239912   2.148   0.569   9.019
13224WAT      O39913   6.145   0.599   3.337
13224WAT     H139914   6.209   0.561   3.403
13224WAT     H239915   6.166   0.565   3.245
13225WAT      O39916   1.014   5.547   9.675
13225WAT     H139917   1.060   5.621   9.725
13225WAT     H239918   0.965   5.585   9.597
13226WAT      O39919   4.940   4.993   9.242
13226WAT     H139920   4.900   5.082   9.266
13226WAT     H239921   4.997   4.961   9.318
13227WAT      O39922   9.515   9.730   2.727
13227WAT     H139923   9.547   9.693   2.814
13227WAT     H239924   9.453   9.807   2.743
13228WAT      O39925   7.831   0.357   0.664
13228WAT     H139926   7.868   0.282   0.719
13228WAT     H239927   7.861   0.444   0.702
13229WAT      O39928   4.633   7.588   7.016
13229WAT     H139929   4.634   7.502   7.067
13229WAT     H239930   4.611   7.663   7.079
13230WAT      O39931   0.607   2.929   6.813
13230WAT     H139932   0.513   2.946   6.781
13230WAT     H239933   0.647   2.856   6.758
13231WAT      O39934   7.147   9.195   6.984
13231WAT     H139935   7.096   9.142   7.052
13231WAT     H239936   7.133   9.156   6.893
13232WAT      O39937   3.248   6.887   7.927
13232WAT     H139938   3.295   6.803   7.956
13232WAT     H239939   3.198   6.925   8.004
13233WAT      O39940   1.703   1.297   1.213
13233WAT     H139941   1.717   1.217   1.155
13233WAT     H239942   1.611   1.333   1.199
13234WAT      O39943   6.012   2.456   1.734
13234WAT     H139944   6.111   2.440   1.737
13234WAT     H239945   5.980   2.449   1.640
13235WAT      O39946   4.823   7.981   4.094
13235WAT     H139947   4.810   7.883   4.113
13235WAT     H239948   4.840   7.994   3.996
13236WAT      O39949   0.186   2.629   3.763
13236WAT     H139950   0.174   2.560   3.691
13236WAT     H239951   0.134   2.711   3.739
13237WAT      O39952   9.493   2.568   9.556
13237WAT     H139953   9.417   2.598   9.614
13237WAT     H239954   9.462   2.494   9.496
13238WAT      O39955   7.910   4.859   8.490
13238WAT     H139956   7.884   4.766   8.513
13238WAT     H239957   7.899   4.873   8.391
13239WAT      O39958   6.285   9.189   6.201
13239WAT     H139959   6.336   9.238   6.130
13239WAT     H239960   6.315   9.094   6.204
13240WAT      O39961   6.871   1.648   5.459
13240WAT     H139962   6.778   1.683   5.473
13240WAT     H239963   6.900   1.599   5.541
13241WAT      O39964   5.253   5.740   6.188
13241WAT     H139965   5.239   5.812   6.255
13241WAT     H239966   5.313   5.670   6.226
13242WAT      O39967   7.316   9.236   5.594
13242WAT     H139968   7.414   9.240   5.616
13242WAT     H239969   7.264   9.284   5.664
13243WAT      O39970   5.055   9.644   5.741
13243WAT     H139971   5.088   9.713   5.805
13243WAT     H239972   4.995   9.580   5.790
13244WAT      O39973   9.464   7.778   5.994
13244WAT     H139974   9.472   7.717   5.915
13244WAT     H239975   9.540   7.843   5.994
13245WAT      O39976   8.126   7.217   5.971
13245WAT     H139977   8.062   7.158   6.019
13245WAT     H239978   8.122   7.198   5.873
13246WAT      O39979   6.276   2.822   1.178
13246WAT     H139980   6.252   2.803   1.273
13246WAT     H239981   6.297   2.736   1.131
13247WAT      O39982   2.054   3.558   2.056
13247WAT     H139983   2.100   3.472   2.077
13247WAT     H239984   2.089   3.631   2.115
13248WAT      O39985   5.766   1.662   8.387
13248WAT     H139986   5.679   1.649   8.434
13248WAT     H239987   5.838   1.675   8.455
13249WAT      O39988   4.505   8.449   0.207
13249WAT     H139989   4.445   8.502   0.266
13249WAT     H239990   4.586   8.421   0.258
13250WAT      O39991   9.871   7.031   7.326
13250WAT     H139992   9.835   7.098   7.261
13250WAT     H239993   9.804   7.017   7.399
13251WAT      O39994   6.451   7.890   7.816
13251WAT     H139995   6.472   7.979   7.776
13251WAT     H239996   6.412   7.902   7.907
13252WAT      O39997   0.197   5.673   5.513
13252WAT     H139998   0.222   5.722   5.597
13252WAT     H239999   0.178   5.738   5.440
13253WAT      O40000   5.166   9.637   3.368
13253WAT     H140001   5.074   9.612   3.337
13253WAT     H240002   5.211   9.690   3.296
13254WAT      O40003   8.876   0.982   4.563
13254WAT     H140004   8.876   0.897   4.616
13254WAT     H240005   8.877   0.960   4.465
13255WAT      O40006   3.808   8.721   7.046
13255WAT     H140007   3.860   8.806   7.050
13255WAT     H240008   3.723   8.731   7.097
13256WAT      O40009   4.530   1.002   3.674
13256WAT     H140010   4.599   0.931   3.688
13256WAT     H240011   4.486   0.988   3.586
13257WAT      O40012   5.590   6.011   6.934
13257WAT     H140013   5.632   6.081   6.992
13257WAT     H240014   5.660   5.947   6.903
13258WAT      O40015   0.631   8.115   2.325
13258WAT     H140016   0.649   8.053   2.402
13258WAT     H240017   0.710   8.114   2.264
13259WAT      O40018   5.065   7.984   3.450
13259WAT     H140019   5.084   8.056   3.383
13259WAT     H240020   5.137   7.914   3.446
13260WAT      O40021   8.456   4.931   4.915
13260WAT     H140022   8.434   4.987   4.836
13260WAT     H240023   8.540   4.879   4.897
13261WAT      O40024   9.421   6.117   3.297
13261WAT     H140025   9.423   6.111   3.197
13261WAT     H240026   9.373   6.037   3.334
13262WAT      O40027   0.305   2.016   1.955
13262WAT     H140028   0.260   1.942   2.006
13262WAT     H240029   0.236   2.079   1.919
13263WAT      O40030   2.380   2.895   0.579
13263WAT     H140031   2.451   2.910   0.510
13263WAT     H240032   2.419   2.907   0.670
13264WAT      O40033   9.271   4.236   3.867
13264WAT     H140034   9.199   4.281   3.815
13264WAT     H240035   9.246   4.233   3.963
13265WAT      O40036   9.702   1.812   5.093
13265WAT     H140037   9.715   1.906   5.124
13265WAT     H240038   9.605   1.793   5.083
13266WAT      O40039   7.022   2.548   0.526
13266WAT     H140040   7.056   2.469   0.474
13266WAT     H240041   7.082   2.626   0.509
13267WAT      O40042   9.751   7.434   0.694
13267WAT     H140043   9.765   7.491   0.613
13267WAT     H240044   9.715   7.491   0.768
13268WAT      O40045   1.289   2.242   1.771
13268WAT     H140046   1.297   2.282   1.863
13268WAT     H240047   1.352   2.166   1.763
13269WAT      O40048   0.240   0.370   9.129
13269WAT     H140049   0.167   0.431   9.159
13269WAT     H240050   0.326   0.395   9.173
13270WAT      O40051   9.672   4.696   0.012
13270WAT     H140052   9.770   4.675   0.017
13270WAT     H240053   9.643   4.692  -0.084
13271WAT      O40054   7.751   9.690   6.832
13271WAT     H140055   7.696   9.693   6.916
13271WAT     H240056   7.700   9.733   6.757
13272WAT      O40057   6.164   3.691   4.487
13272WAT     H140058   6.254   3.682   4.444
13272WAT     H240059   6.102   3.739   4.425
13273WAT      O40060   1.770   4.689   0.683
13273WAT     H140061   1.726   4.599   0.687
13273WAT     H240062   1.724   4.745   0.613
13274WAT      O40063   7.238   2.216   8.900
13274WAT     H140064   7.239   2.225   8.801
13274WAT     H240065   7.162   2.268   8.938
13275WAT      O40066   7.675   7.636   6.991
13275WAT     H140067   7.649   7.559   6.933
13275WAT     H240068   7.771   7.625   7.019
13276WAT      O40069   4.445   4.469   9.748
13276WAT     H140070   4.499   4.553   9.742
13276WAT     H240071   4.445   4.436   9.842
13277WAT      O40072   2.572   1.817   9.158
13277WAT     H140073   2.518   1.872   9.095
13277WAT     H240074   2.661   1.861   9.174
13278WAT      O40075   1.662   8.601   3.734
13278WAT     H140076   1.703   8.516   3.769
13278WAT     H240077   1.636   8.659   3.810
13279WAT      O40078   0.498   0.444   9.204
13279WAT     H140079   0.521   0.495   9.121
13279WAT     H240080   0.566   0.372   9.218
13280WAT      O40081   2.015   3.633   8.420
13280WAT     H140082   1.973   3.690   8.350
13280WAT     H240083   2.114   3.649   8.422
13281WAT      O40084   4.467   3.075   2.275
13281WAT     H140085   4.399   3.026   2.220
13281WAT     H240086   4.462   3.173   2.255
13282WAT      O40087   7.424   8.106   9.346
13282WAT     H140088   7.407   8.189   9.292
13282WAT     H240089   7.377   8.029   9.304
13283WAT      O40090   9.497   4.892   5.519
13283WAT     H140091   9.572   4.824   5.521
13283WAT     H240092   9.437   4.876   5.597
13284WAT      O40093   6.462   1.696   4.956
13284WAT     H140094   6.473   1.688   4.857
13284WAT     H240095   6.551   1.692   5.000
13285WAT      O40096   1.874   8.499   0.259
13285WAT     H140097   1.848   8.445   0.179
13285WAT     H240098   1.863   8.443   0.341
13286WAT      O40099   2.171   2.250   2.882
13286WAT     H140100   2.216   2.298   2.806
13286WAT     H240101   2.231   2.177   2.915
13287WAT      O40102   4.861   9.087   6.461
13287WAT     H140103   4.772   9.132   6.475
13287WAT     H240104   4.917   9.098   6.543
13288WAT      O40105   5.541   7.121   5.052
13288WAT     H140106   5.496   7.043   5.008
13288WAT     H240107   5.594   7.089   5.130
13289WAT      O40108   2.005   6.261   1.125
13289WAT     H140109   1.957   6.180   1.158
13289WAT     H240110   2.072   6.235   1.056
13290WAT      O40111   6.111   1.783   6.660
13290WAT     H140112   6.153   1.834   6.735
13290WAT     H240113   6.038   1.725   6.696
13291WAT      O40114   6.154   0.262   3.137
13291WAT     H140115   6.229   0.198   3.121
13291WAT     H240116   6.086   0.220   3.197
13292WAT      O40117   8.386   6.826   4.501
13292WAT     H140118   8.357   6.915   4.535
13292WAT     H240119   8.307   6.775   4.467
13293WAT      O40120   1.229   2.025   3.690
13293WAT     H140121   1.155   1.987   3.634
13293WAT     H240122   1.256   2.114   3.654
13294WAT      O40123   5.255   7.776   1.355
13294WAT     H140124   5.188   7.782   1.281
13294WAT     H240125   5.210   7.748   1.440
13295WAT      O40126   5.831   9.288   6.053
13295WAT     H140127   5.816   9.383   6.078
13295WAT     H240128   5.905   9.250   6.109
13296WAT      O40129   7.171   8.634   1.870
13296WAT     H140130   7.266   8.624   1.840
13296WAT     H240131   7.146   8.731   1.869
13297WAT      O40132   8.392   4.262   7.430
13297WAT     H140133   8.427   4.327   7.363
13297WAT     H240134   8.318   4.209   7.389
13298WAT      O40135   8.561   2.024   6.523
13298WAT     H140136   8.562   2.019   6.423
13298WAT     H240137   8.608   1.944   6.560
13299WAT      O40138   6.027   2.201   9.472
13299WAT     H140139   6.060   2.294   9.453
13299WAT     H240140   6.028   2.148   9.387
13300WAT      O40141   3.587   1.151   0.138
13300WAT     H140142   3.560   1.178   0.230
13300WAT     H240143   3.514   1.096   0.097
13301WAT      O40144   2.430   7.048   4.900
13301WAT     H140145   2.438   7.067   4.998
13301WAT     H240146   2.454   7.131   4.849
13302WAT      O40147   3.705   4.908   7.316
13302WAT     H140148   3.669   4.946   7.401
13302WAT     H240149   3.633   4.856   7.270
13303WAT      O40150   8.197   0.299   8.419
13303WAT     H140151   8.248   0.379   8.389
13303WAT     H240152   8.129   0.274   8.350
13304WAT      O40153   0.277   6.995   3.816
13304WAT     H140154   0.242   7.025   3.904
13304WAT     H240155   0.369   6.956   3.828
13305WAT      O40156   9.621   7.463   8.896
13305WAT     H140157   9.710   7.420   8.908
13305WAT     H240158   9.595   7.510   8.980
13306WAT      O40159   1.808   1.563   9.853
13306WAT     H140160   1.866   1.567   9.771
13306WAT     H240161   1.712   1.567   9.827
13307WAT      O40162   1.231   7.215   5.188
13307WAT     H140163   1.267   7.207   5.095
13307WAT     H240164   1.292   7.167   5.251
13308WAT      O40165   9.625   9.159   6.842
13308WAT     H140166   9.622   9.236   6.779
13308WAT     H240167   9.718   9.147   6.877
13309WAT      O40168   1.357   1.828   2.378
13309WAT     H140169   1.400   1.822   2.288
13309WAT     H240170   1.372   1.920   2.416
13310WAT      O40171   8.749   2.165   9.224
13310WAT     H140172   8.680   2.092   9.221
13310WAT     H240173   8.771   2.186   9.319
13311WAT      O40174   7.829   7.933   2.179
13311WAT     H140175   7.828   8.007   2.111
13311WAT     H240176   7.922   7.920   2.212
13312WAT      O40177   6.804   9.663   7.944
13312WAT     H140178   6.874   9.705   7.886
13312WAT     H240179   6.820   9.565   7.951
13313WAT      O40180   0.717   2.764   6.628
13313WAT     H140181   0.707   2.673   6.589
13313WAT     H240182   0.802   2.768   6.681
13314WAT      O40183   1.258   2.343   2.256
13314WAT     H140184   1.333   2.302   2.307
13314WAT     H240185   1.221   2.420   2.308
13315WAT      O40186   7.134   7.478   3.314
13315WAT     H140187   7.037   7.460   3.331
13315WAT     H240188   7.182   7.392   3.300
13316WAT      O40189   6.873   4.287   8.934
13316WAT     H140190   6.966   4.301   8.898
13316WAT     H240191   6.854   4.355   9.005
13317WAT      O40192   0.390   0.270   6.011
13317WAT     H140193   0.452   0.194   6.029
13317WAT     H240194   0.434   0.356   6.035
13318WAT      O40195   4.174   0.495   2.551
13318WAT     H140196   4.219   0.532   2.470
13318WAT     H240197   4.081   0.530   2.556
13319WAT      O40198   4.948   5.866   4.435
13319WAT     H140199   4.855   5.833   4.452
13319WAT     H240200   4.973   5.933   4.505
13320WAT      O40201   8.002   5.194   2.503
13320WAT     H140202   8.035   5.236   2.418
13320WAT     H240203   7.919   5.241   2.534
13321WAT      O40204   4.073   1.822   2.749
13321WAT     H140205   3.987   1.776   2.727
13321WAT     H240206   4.142   1.800   2.680
13322WAT      O40207   3.925   4.582   2.991
13322WAT     H140208   3.833   4.564   3.026
13322WAT     H240209   3.924   4.663   2.933
13323WAT      O40210   3.439   7.884   6.427
13323WAT     H140211   3.403   7.931   6.347
13323WAT     H240212   3.369   7.821   6.462
13324WAT      O40213   4.533   3.097   6.007
13324WAT     H140214   4.535   3.040   5.925
13324WAT     H240215   4.450   3.078   6.059
13325WAT      O40216   9.620   3.166   2.799
13325WAT     H140217   9.570   3.216   2.729
13325WAT     H240218   9.715   3.199   2.803
13326WAT      O40219   4.714   2.759   2.156
13326WAT     H140220   4.682   2.718   2.241
13326WAT     H240221   4.731   2.857   2.171
13327WAT      O40222   2.352   5.808   5.605
13327WAT     H140223   2.404   5.730   5.640
13327WAT     H240224   2.311   5.784   5.517
13328WAT      O40225   6.575   2.833   6.218
13328WAT     H140226   6.662   2.782   6.222
13328WAT     H240227   6.579   2.899   6.143
13329WAT      O40228   2.013   5.572   6.528
13329WAT     H140229   2.086   5.528   6.475
13329WAT     H240230   2.039   5.575   6.624
13330WAT      O40231   2.206   7.443   9.479
13330WAT     H140232   2.239   7.537   9.466
13330WAT     H240233   2.110   7.438   9.451
13331WAT      O40234   3.376   6.688   6.777
13331WAT     H140235   3.380   6.628   6.696
13331WAT     H240236   3.297   6.663   6.832
13332WAT      O40237   8.595   0.204   2.625
13332WAT     H140238   8.663   0.258   2.675
13332WAT     H240239   8.622   0.108   2.625
13333WAT      O40240   4.772   1.227   6.731
13333WAT     H140241   4.706   1.302   6.740
13333WAT     H240242   4.729   1.149   6.686
13334WAT      O40243   5.561   8.650   0.062
13334WAT     H140244   5.498   8.573   0.075
13334WAT     H240245   5.550   8.715   0.136
13335WAT      O40246   4.188   2.543   2.127
13335WAT     H140247   4.278   2.563   2.088
13335WAT     H240248   4.117   2.584   2.070
13336WAT      O40249   4.828   0.506   7.661
13336WAT     H140250   4.898   0.571   7.690
13336WAT     H240251   4.819   0.433   7.729
13337WAT      O40252   0.535   1.280   2.685
13337WAT     H140253   0.594   1.257   2.762
13337WAT     H240254   0.509   1.197   2.636
13338WAT      O40255   1.523   7.673   3.884
13338WAT     H140256   1.449   7.675   3.952
13338WAT     H240257   1.607   7.640   3.927
13339WAT      O40258   0.299   9.328   6.005
13339WAT     H140259   0.227   9.396   6.021
13339WAT     H240260   0.292   9.256   6.074
13340WAT      O40261   4.268   8.325   2.500
13340WAT     H140262   4.277   8.421   2.471
13340WAT     H240263   4.267   8.320   2.600
13341WAT      O40264   8.244   7.704   5.564
13341WAT     H140265   8.191   7.619   5.562
13341WAT     H240266   8.215   7.763   5.488
13342WAT      O40267   3.266   5.861   0.137
13342WAT     H140268   3.196   5.790   0.132
13342WAT     H240269   3.347   5.833   0.084
13343WAT      O40270   2.393   3.377   4.238
13343WAT     H140271   2.477   3.351   4.287
13343WAT     H240272   2.346   3.449   4.288
13344WAT      O40273   8.349   5.893   1.644
13344WAT     H140274   8.270   5.951   1.624
13344WAT     H240275   8.379   5.908   1.738
13345WAT      O40276   5.738   7.461   3.909
13345WAT     H140277   5.650   7.418   3.931
13345WAT     H240278   5.746   7.546   3.960
13346WAT      O40279   4.589   6.683   3.238
13346WAT     H140280   4.509   6.637   3.202
13346WAT     H240281   4.579   6.696   3.337
13347WAT      O40282   6.996   1.759   4.686
13347WAT     H140283   6.929   1.763   4.612
13347WAT     H240284   6.952   1.787   4.772
13348WAT      O40285   4.703   3.728   8.698
13348WAT     H140286   4.681   3.794   8.769
13348WAT     H240287   4.763   3.658   8.735
13349WAT      O40288   6.040   9.768   8.412
13349WAT     H140289   6.054   9.850   8.356
13349WAT     H240290   6.006   9.795   8.502
13350WAT      O40291   0.815   1.891   0.067
13350WAT     H140292   0.739   1.916   0.007
13350WAT     H240293   0.872   1.823   0.022
13351WAT      O40294   2.659   1.087   2.610
13351WAT     H140295   2.740   1.066   2.664
13351WAT     H240296   2.627   1.179   2.633
13352WAT      O40297   9.878   3.354   8.686
13352WAT     H140298   9.800   3.417   8.680
13352WAT     H240299   9.848   3.262   8.662
13353WAT      O40300   1.117   2.877   4.079
13353WAT     H140301   1.160   2.930   4.006
13353WAT     H240302   1.021   2.862   4.058
13354WAT      O40303   6.126   1.239   3.685
13354WAT     H140304   6.039   1.212   3.643
13354WAT     H240305   6.200   1.231   3.618
13355WAT      O40306   4.661   1.737   9.613
13355WAT     H140307   4.741   1.694   9.570
13355WAT     H240308   4.596   1.765   9.542
13356WAT      O40309   2.510   0.690   5.883
13356WAT     H140310   2.520   0.659   5.978
13356WAT     H240311   2.545   0.620   5.821
13357WAT      O40312   7.812   2.483   6.401
13357WAT     H140313   7.860   2.426   6.335
13357WAT     H240314   7.723   2.443   6.422
13358WAT      O40315   0.393   0.545   7.646
13358WAT     H140316   0.297   0.564   7.623
13358WAT     H240317   0.443   0.632   7.654
13359WAT      O40318   3.014   8.584   1.478
13359WAT     H140319   3.007   8.492   1.517
13359WAT     H240320   3.052   8.646   1.548
13360WAT      O40321   6.132   6.382   8.784
13360WAT     H140322   6.140   6.427   8.873
13360WAT     H240323   6.183   6.434   8.715
13361WAT      O40324   4.623   2.180   4.594
13361WAT     H140325   4.591   2.216   4.682
13361WAT     H240326   4.616   2.080   4.595
13362WAT      O40327   5.030   3.779   9.121
13362WAT     H140328   4.940   3.742   9.144
13362WAT     H240329   5.070   3.822   9.201
13363WAT      O40330   6.894   0.880   7.212
13363WAT     H140331   6.850   0.793   7.233
13363WAT     H240332   6.893   0.895   7.113
13364WAT      O40333   9.065   3.636   7.268
13364WAT     H140334   8.989   3.641   7.333
13364WAT     H240335   9.028   3.627   7.175
13365WAT      O40336   0.116   3.248   2.487
13365WAT     H140337   0.188   3.186   2.457
13365WAT     H240338   0.151   3.342   2.485
13366WAT      O40339   5.995   0.427   1.186
13366WAT     H140340   6.029   0.408   1.094
13366WAT     H240341   6.006   0.525   1.206
13367WAT      O40342   2.815   8.654   0.217
13367WAT     H140343   2.774   8.650   0.125
13367WAT     H240344   2.894   8.593   0.220
13368WAT      O40345   3.248   1.424   7.368
13368WAT     H140346   3.319   1.467   7.312
13368WAT     H240347   3.158   1.459   7.342
13369WAT      O40348   1.161   3.519   3.648
13369WAT     H140349   1.207   3.577   3.715
13369WAT     H240350   1.175   3.557   3.556
13370WAT      O40351   3.748   8.643   3.950
13370WAT     H140352   3.679   8.616   3.883
13370WAT     H240353   3.739   8.586   4.032
13371WAT      O40354   0.324   9.396   5.581
13371WAT     H140355   0.364   9.478   5.540
13371WAT     H240356   0.382   9.317   5.561
13372WAT      O40357   8.703   8.176   3.904
13372WAT     H140358   8.732   8.080   3.903
13372WAT     H240359   8.614   8.184   3.948
13373WAT      O40360   2.636   4.365   5.045
13373WAT     H140361   2.644   4.403   4.953
13373WAT     H240362   2.582   4.428   5.102
13374WAT      O40363   6.155   6.150   4.515
13374WAT     H140364   6.056   6.138   4.523
13374WAT     H240365   6.194   6.077   4.459
13375WAT      O40366   4.599   1.190   1.924
13375WAT     H140367   4.608   1.177   1.825
13375WAT     H240368   4.668   1.134   1.970
13376WAT      O40369   6.692   4.497   8.963
13376WAT     H140370   6.640   4.526   9.043
13376WAT     H240371   6.660   4.407   8.933
13377WAT      O40372   7.783   6.283   5.913
13377WAT     H140373   7.859   6.259   5.973
13377WAT     H240374   7.704   6.227   5.936
13378WAT      O40375   7.546   0.580   8.432
13378WAT     H140376   7.608   0.505   8.412
13378WAT     H240377   7.466   0.575   8.371
13379WAT      O40378   9.179   3.587   0.789
13379WAT     H140379   9.184   3.608   0.691
13379WAT     H240380   9.269   3.601   0.830
13380WAT      O40381   3.919   7.994   2.262
13380WAT     H140382   3.848   7.925   2.278
13380WAT     H240383   3.878   8.074   2.218
13381WAT      O40384   7.813   4.083   8.650
13381WAT     H140385   7.776   4.041   8.567
13381WAT     H240386   7.784   4.030   8.730
13382WAT      O40387   2.757   2.815   7.595
13382WAT     H140388   2.819   2.756   7.543
13382WAT     H240389   2.713   2.880   7.533
13383WAT      O40390   5.719   5.868   4.454
13383WAT     H140391   5.774   5.893   4.534
13383WAT     H240392   5.684   5.775   4.466
13384WAT      O40393   0.494   0.500   6.058
13384WAT     H140394   0.526   0.543   6.143
13384WAT     H240395   0.449   0.569   6.001
13385WAT      O40396   8.311   5.829   4.496
13385WAT     H140397   8.390   5.794   4.545
13385WAT     H240398   8.231   5.772   4.517
13386WAT      O40399   3.453   7.746   8.482
13386WAT     H140400   3.526   7.761   8.548
13386WAT     H240401   3.388   7.822   8.484
13387WAT      O40402   9.639   8.315   5.899
13387WAT     H140403   9.547   8.287   5.873
13387WAT     H240404   9.703   8.293   5.826
13388WAT      O40405   9.829   7.863   3.318
13388WAT     H140406   9.816   7.939   3.382
13388WAT     H240407   9.908   7.882   3.260
13389WAT      O40408   4.435   5.332   6.977
13389WAT     H140409   4.513   5.275   6.950
13389WAT     H240410   4.424   5.406   6.911
13390WAT      O40411   1.822   4.538   2.292
13390WAT     H140412   1.852   4.501   2.203
13390WAT     H240413   1.749   4.481   2.329
13391WAT      O40414   6.827   1.737   2.759
13391WAT     H140415   6.794   1.646   2.734
13391WAT     H240416   6.896   1.767   2.694
13392WAT      O40417   0.830   5.360   1.998
13392WAT     H140418   0.864   5.340   2.089
13392WAT     H240419   0.772   5.441   2.000
13393WAT      O40420   4.471   0.599   9.414
13393WAT     H140421   4.563   0.563   9.396
13393WAT     H240422   4.409   0.524   9.434
13394WAT      O40423   2.645   6.891   2.639
13394WAT     H140424   2.662   6.973   2.695
13394WAT     H240425   2.605   6.820   2.697
13395WAT      O40426   2.255   6.821   5.264
13395WAT     H140427   2.274   6.918   5.247
13395WAT     H240428   2.215   6.780   5.182
13396WAT      O40429   1.972   5.573   2.362
13396WAT     H140430   1.995   5.642   2.431
13396WAT     H240431   1.918   5.615   2.289
13397WAT      O40432   7.175   6.202   1.900
13397WAT     H140433   7.158   6.292   1.860
13397WAT     H240434   7.250   6.157   1.851
13398WAT      O40435   9.155   5.765   5.682
13398WAT     H140436   9.069   5.754   5.633
13398WAT     H240437   9.186   5.677   5.716
13399WAT      O40438   8.087   3.126   0.523
13399WAT     H140439   8.063   3.223   0.517
13399WAT     H240440   8.150   3.103   0.449
13400WAT      O40441   8.772   6.193   1.676
13400WAT     H140442   8.813   6.214   1.587
13400WAT     H240443   8.750   6.278   1.723
13401WAT      O40444   8.568   6.855   7.504
13401WAT     H140445   8.654   6.892   7.468
13401WAT     H240446   8.542   6.774   7.452
13402WAT      O40447   6.278   1.220   1.680
13402WAT     H140448   6.360   1.263   1.720
13402WAT     H240449   6.253   1.270   1.597
13403WAT      O40450   9.428   1.986   1.774
13403WAT     H140451   9.465   2.070   1.735
13403WAT     H240452   9.348   1.957   1.721
13404WAT      O40453   2.348   3.673   5.021
13404WAT     H140454   2.299   3.712   5.099
13404WAT     H240455   2.420   3.613   5.055
13405WAT      O40456   2.801   5.276   5.782
13405WAT     H140457   2.895   5.274   5.750
13405WAT     H240458   2.745   5.215   5.727
13406WAT      O40459   8.866   2.410   0.093
13406WAT     H140460   8.932   2.464   0.039
13406WAT     H240461   8.903   2.319   0.108
13407WAT      O40462   6.019   4.106   2.706
13407WAT     H140463   6.023   4.045   2.627
13407WAT     H240464   6.113   4.128   2.735
13408WAT      O40465   2.849   0.054   1.555
13408WAT     H140466   2.874   0.116   1.481
13408WAT     H240467   2.761   0.082   1.594
13409WAT      O40468   6.900   3.851   2.129
13409WAT     H140469   6.891   3.899   2.216
13409WAT     H240470   6.885   3.753   2.143
13410WAT      O40471   6.889   1.003   8.379
13410WAT     H140472   6.943   1.053   8.446
13410WAT     H240473   6.799   0.982   8.419
13411WAT      O40474   5.407   9.235   9.404
13411WAT     H140475   5.497   9.216   9.366
13411WAT     H240476   5.363   9.150   9.432
13412WAT      O40477   2.132   0.751   7.619
13412WAT     H140478   2.106   0.788   7.708
13412WAT     H240479   2.053   0.707   7.577
13413WAT      O40480   6.786   1.751   2.267
13413WAT     H140481   6.866   1.695   2.289
13413WAT     H240482   6.802   1.845   2.296
13414WAT      O40483   7.534   4.730   0.374
13414WAT     H140484   7.474   4.781   0.312
13414WAT     H240485   7.528   4.632   0.353
13415WAT      O40486   9.531   8.109   4.492
13415WAT     H140487   9.521   8.064   4.580
13415WAT     H240488   9.602   8.179   4.498
13416WAT      O40489   3.811   7.145   6.287
13416WAT     H140490   3.882   7.079   6.310
13416WAT     H240491   3.756   7.110   6.211
13417WAT      O40492   1.217   9.010   2.496
13417WAT     H140493   1.262   8.952   2.428
13417WAT     H240494   1.125   8.976   2.513
13418WAT      O40495   1.476   4.631   0.616
13418WAT     H140496   1.482   4.726   0.585
13418WAT     H240497   1.388   4.592   0.588
13419WAT      O40498   6.437   6.774   2.255
13419WAT     H140499   6.530   6.803   2.277
13419WAT     H240500   6.420   6.684   2.294
13420WAT      O40501   0.454   3.255   4.335
13420WAT     H140502   0.545   3.267   4.295
13420WAT     H240503   0.387   3.307   4.282
13421WAT      O40504   9.644   3.722   6.565
13421WAT     H140505   9.583   3.745   6.642
13421WAT     H240506   9.593   3.728   6.479
13422WAT      O40507   9.874   1.849   8.227
13422WAT     H140508   9.853   1.754   8.250
13422WAT     H240509   9.918   1.853   8.137
13423WAT      O40510   0.881   4.360   1.709
13423WAT     H140511   0.907   4.306   1.630
13423WAT     H240512   0.961   4.379   1.766
13424WAT      O40513   5.106   7.877   6.349
13424WAT     H140514   5.098   7.976   6.346
13424WAT     H240515   5.032   7.836   6.296
13425WAT      O40516   0.681   2.591   2.491
13425WAT     H140517   0.749   2.523   2.463
13425WAT     H240518   0.711   2.636   2.575
13426WAT      O40519   1.958   6.343   2.118
13426WAT     H140520   1.912   6.293   2.192
13426WAT     H240521   1.904   6.335   2.034
13427WAT      O40522   8.891   9.088   3.930
13427WAT     H140523   8.989   9.091   3.910
13427WAT     H240524   8.840   9.074   3.845
13428WAT      O40525   6.518   8.863   2.305
13428WAT     H140526   6.586   8.817   2.362
13428WAT     H240527   6.434   8.877   2.356
13429WAT      O40528   7.536   7.496   3.491
13429WAT     H140529   7.459   7.543   3.449
13429WAT     H240530   7.508   7.406   3.522
13430WAT      O40531   5.291   1.054   4.012
13430WAT     H140532   5.278   1.007   4.100
13430WAT     H240533   5.388   1.050   3.987
13431WAT      O40534   3.513   4.309   8.454
13431WAT     H140535   3.596   4.285   8.404
13431WAT     H240536   3.529   4.391   8.509
13432WAT      O40537   0.352   4.977   6.822
13432WAT     H140538   0.412   4.971   6.742
13432WAT     H240539   0.272   5.033   6.799
13433WAT      O40540   1.578   7.295   5.885
13433WAT     H140541   1.480   7.316   5.892
13433WAT     H240542   1.610   7.259   5.973
13434WAT      O40543   3.193   6.735   0.855
13434WAT     H140544   3.271   6.681   0.824
13434WAT     H240545   3.156   6.695   0.939
13435WAT      O40546   9.252   0.816   4.982
13435WAT     H140547   9.167   0.851   4.942
13435WAT     H240548   9.275   0.728   4.940
13436WAT      O40549   8.853   7.772   3.241
13436WAT     H140550   8.811   7.772   3.332
13436WAT     H240551   8.906   7.856   3.229
13437WAT      O40552   2.430   6.984   1.774
13437WAT     H140553   2.501   6.959   1.708
13437WAT     H240554   2.387   7.069   1.745
13438WAT      O40555   8.796   2.350   8.588
13438WAT     H140556   8.864   2.389   8.649
13438WAT     H240557   8.744   2.423   8.544
13439WAT      O40558   5.901   4.048   4.181
13439WAT     H140559   5.959   4.105   4.123
13439WAT     H240560   5.868   3.970   4.128
13440WAT      O40561   0.735   4.221   5.571
13440WAT     H140562   0.776   4.276   5.645
13440WAT     H240563   0.669   4.157   5.610
13441WAT      O40564   7.096   8.469   8.751
13441WAT     H140565   7.192   8.446   8.770
13441WAT     H240566   7.060   8.524   8.827
13442WAT      O40567   8.484   5.890   2.555
13442WAT     H140568   8.575   5.904   2.516
13442WAT     H240569   8.416   5.929   2.493
13443WAT      O40570   4.593   4.237   1.041
13443WAT     H140571   4.576   4.234   0.942
13443WAT     H240572   4.654   4.314   1.062
13444WAT      O40573   2.677   2.508   0.297
13444WAT     H140574   2.604   2.493   0.230
13444WAT     H240575   2.649   2.579   0.361
13445WAT      O40576   2.888   2.029   5.440
13445WAT     H140577   2.855   1.942   5.403
13445WAT     H240578   2.861   2.104   5.379
13446WAT      O40579   7.798   3.060   4.971
13446WAT     H140580   7.828   3.131   5.035
13446WAT     H240581   7.831   3.082   4.879
13447WAT      O40582   9.029   0.788   0.862
13447WAT     H140583   9.112   0.842   0.853
13447WAT     H240584   9.050   0.701   0.908
13448WAT      O40585   9.547   0.207   5.123
13448WAT     H140586   9.561   0.197   5.025
13448WAT     H240587   9.610   0.277   5.159
13449WAT      O40588   3.494   0.063   9.341
13449WAT     H140589   3.443   0.130   9.394
13449WAT     H240590   3.478  -0.028   9.378
13450WAT      O40591   3.361   2.355   2.222
13450WAT     H140592   3.368   2.382   2.125
13450WAT     H240593   3.412   2.421   2.278
13451WAT      O40594   8.550   1.698   2.194
13451WAT     H140595   8.556   1.700   2.294
13451WAT     H240596   8.505   1.781   2.162
13452WAT      O40597   5.330   7.386   1.436
13452WAT     H140598   5.379   7.456   1.385
13452WAT     H240599   5.322   7.414   1.532
13453WAT      O40600   5.553   3.654   0.035
13453WAT     H140601   5.633   3.611  -0.006
13453WAT     H240602   5.558   3.753   0.025
13454WAT      O40603   6.788   6.887   9.489
13454WAT     H140604   6.839   6.917   9.409
13454WAT     H240605   6.849   6.834   9.549
13455WAT      O40606   4.569   3.809   0.436
13455WAT     H140607   4.667   3.790   0.441
13455WAT     H240608   4.555   3.898   0.393
13456WAT      O40609   2.302   4.020   6.816
13456WAT     H140610   2.277   3.933   6.773
13456WAT     H240611   2.223   4.057   6.865
13457WAT      O40612   4.350   2.649   5.051
13457WAT     H140613   4.267   2.604   5.082
13457WAT     H240614   4.392   2.699   5.127
13458WAT      O40615   5.438   5.577   6.284
13458WAT     H140616   5.420   5.515   6.207
13458WAT     H240617   5.536   5.576   6.305
13459WAT      O40618   3.824   7.383   6.150
13459WAT     H140619   3.822   7.306   6.213
13459WAT     H240620   3.908   7.436   6.162
13460WAT      O40621   5.628   9.321   7.536
13460WAT     H140622   5.635   9.420   7.548
13460WAT     H240623   5.531   9.295   7.530
13461WAT      O40624   7.737   7.851   0.012
13461WAT     H140625   7.658   7.899   0.051
13461WAT     H240626   7.716   7.821  -0.081
13462WAT      O40627   5.224   2.142   5.059
13462WAT     H140628   5.286   2.206   5.104
13462WAT     H240629   5.269   2.103   4.978
13463WAT      O40630   9.890   6.919   9.065
13463WAT     H140631   9.949   6.838   9.059
13463WAT     H240632   9.798   6.895   9.034
13464WAT      O40633   6.427   8.392   5.398
13464WAT     H140634   6.449   8.429   5.488
13464WAT     H240635   6.510   8.386   5.342
13465WAT      O40636   7.558   2.366   5.278
13465WAT     H140637   7.522   2.458   5.267
13465WAT     H240638   7.658   2.367   5.267
13466WAT      O40639   6.253   1.742   9.112
13466WAT     H140640   6.347   1.775   9.103
13466WAT     H240641   6.209   1.741   9.022
13467WAT      O40642   8.077   2.023   8.139
13467WAT     H140643   7.981   2.024   8.166
13467WAT     H240644   8.086   1.984   8.048
13468WAT      O40645   2.076   0.827   4.010
13468WAT     H140646   2.020   0.888   4.067
13468WAT     H240647   2.152   0.791   4.064
13469WAT      O40648   5.676   8.416   9.131
13469WAT     H140649   5.725   8.413   9.218
13469WAT     H240650   5.701   8.500   9.083
13470WAT      O40651   3.582   6.608   7.679
13470WAT     H140652   3.533   6.618   7.593
13470WAT     H240653   3.664   6.665   7.677
13471WAT      O40654   5.100   2.621   2.092
13471WAT     H140655   5.118   2.687   2.019
13471WAT     H240656   5.113   2.528   2.056
13472WAT      O40657   1.418   0.736   6.839
13472WAT     H140658   1.403   0.766   6.745
13472WAT     H240659   1.502   0.682   6.844
13473WAT      O40660   7.143   7.576   6.724
13473WAT     H140661   7.082   7.562   6.647
13473WAT     H240662   7.215   7.506   6.723
13474WAT      O40663   4.599   9.605   9.619
13474WAT     H140664   4.528   9.575   9.681
13474WAT     H240665   4.621   9.702   9.636
13475WAT      O40666   4.895   9.789   3.055
13475WAT     H140667   4.813   9.767   3.107
13475WAT     H240668   4.898   9.733   2.973
13476WAT      O40669   4.955   4.428   9.334
13476WAT     H140670   4.947   4.528   9.339
13476WAT     H240671   5.049   4.403   9.310
13477WAT      O40672   9.602   8.687   6.027
13477WAT     H140673   9.614   8.603   5.976
13477WAT     H240674   9.579   8.666   6.122
13478WAT      O40675   7.471   1.897   3.271
13478WAT     H140676   7.427   1.986   3.256
13478WAT     H240677   7.496   1.856   3.184
13479WAT      O40678   2.112   3.517   0.127
13479WAT     H140679   2.104   3.492   0.223
13479WAT     H240680   2.060   3.451   0.072
13480WAT      O40681   6.720   5.071   5.256
13480WAT     H140682   6.743   4.974   5.245
13480WAT     H240683   6.624   5.080   5.282
13481WAT      O40684   0.574   1.834   0.690
13481WAT     H140685   0.553   1.825   0.593
13481WAT     H240686   0.505   1.784   0.743
13482WAT      O40687   6.208   2.946   1.678
13482WAT     H140688   6.110   2.938   1.660
13482WAT     H240689   6.222   2.976   1.772
13483WAT      O40690   1.533   8.287   0.080
13483WAT     H140691   1.481   8.217   0.032
13483WAT     H240692   1.622   8.250   0.106
13484WAT      O40693   8.706   7.099   7.662
13484WAT     H140694   8.639   7.028   7.638
13484WAT     H240695   8.676   7.145   7.746
13485WAT      O40696   7.630   2.572   3.213
13485WAT     H140697   7.665   2.655   3.256
13485WAT     H240698   7.697   2.539   3.145
13486WAT      O40699   7.635   8.195   1.205
13486WAT     H140700   7.735   8.188   1.211
13486WAT     H240701   7.593   8.127   1.265
13487WAT      O40702   7.310   7.477   2.717
13487WAT     H140703   7.344   7.568   2.741
13487WAT     H240704   7.366   7.407   2.761
13488WAT      O40705   0.279   2.496   7.831
13488WAT     H140706   0.379   2.493   7.822
13488WAT     H240707   0.237   2.474   7.743
13489WAT      O40708   8.928   0.884   4.282
13489WAT     H140709   8.960   0.950   4.214
13489WAT     H240710   9.006   0.829   4.313
13490WAT      O40711   8.580   3.233   0.328
13490WAT     H140712   8.565   3.148   0.278
13490WAT     H240713   8.621   3.213   0.417
13491WAT      O40714   6.119   9.743   1.306
13491WAT     H140715   6.102   9.719   1.211
13491WAT     H240716   6.038   9.788   1.345
13492WAT      O40717   9.541   6.193   6.296
13492WAT     H140718   9.484   6.241   6.230
13492WAT     H240719   9.525   6.229   6.388
13493WAT      O40720   6.799   0.002   6.679
13493WAT     H140721   6.725   0.046   6.628
13493WAT     H240722   6.884   0.052   6.666
13494WAT      O40723   2.392   1.022   2.628
13494WAT     H140724   2.486   1.058   2.628
13494WAT     H240725   2.384   0.948   2.695
13495WAT      O40726   6.055   4.130   4.651
13495WAT     H140727   5.995   4.175   4.716
13495WAT     H240728   6.049   4.031   4.662
13496WAT      O40729   4.042   2.151   3.786
13496WAT     H140730   3.999   2.231   3.826
13496WAT     H240731   4.009   2.140   3.691
13497WAT      O40732   2.713   3.245   6.198
13497WAT     H140733   2.734   3.301   6.118
13497WAT     H240734   2.770   3.274   6.275
13498WAT      O40735   3.986   4.907   7.354
13498WAT     H140736   4.003   4.809   7.365
13498WAT     H240737   3.888   4.922   7.338
13499WAT      O40738   2.045   2.345   3.456
13499WAT     H140739   2.141   2.326   3.475
13499WAT     H240740   2.034   2.442   3.434
13500WAT      O40741   2.427   5.769   0.771
13500WAT     H140742   2.455   5.684   0.814
13500WAT     H240743   2.491   5.792   0.698
13501WAT      O40744   1.477   9.764   7.255
13501WAT     H140745   1.490   9.700   7.179
13501WAT     H240746   1.564   9.808   7.277
13502WAT      O40747   0.395   2.261   7.651
13502WAT     H140748   0.335   2.339   7.631
13502WAT     H240749   0.402   2.203   7.570
13503WAT      O40750   1.252   4.678   8.684
13503WAT     H140751   1.240   4.579   8.669
13503WAT     H240752   1.337   4.694   8.732
13504WAT      O40753   0.005   1.513   4.828
13504WAT     H140754   0.091   1.522   4.779
13504WAT     H240755   0.016   1.543   4.922
13505WAT      O40756   6.741   8.689   3.582
13505WAT     H140757   6.756   8.697   3.680
13505WAT     H240758   6.663   8.630   3.565
13506WAT      O40759   0.582   9.781   0.823
13506WAT     H140760   0.662   9.840   0.825
13506WAT     H240761   0.499   9.836   0.821
13507WAT      O40762   9.385   4.205   1.488
13507WAT     H140763   9.385   4.206   1.588
13507WAT     H240764   9.425   4.118   1.456
13508WAT      O40765   7.774   1.306   3.954
13508WAT     H140766   7.766   1.406   3.954
13508WAT     H240767   7.689   1.266   3.920
13509WAT      O40768   9.454   9.800   4.096
13509WAT     H140769   9.360   9.777   4.072
13509WAT     H240770   9.471   9.897   4.078
13510WAT      O40771   3.378   0.671   2.970
13510WAT     H140772   3.382   0.649   3.068
13510WAT     H240773   3.451   0.623   2.922
13511WAT      O40774   7.310   5.081   5.900
13511WAT     H140775   7.324   5.139   5.819
13511WAT     H240776   7.215   5.050   5.903
13512WAT      O40777   1.130   6.305   2.574
13512WAT     H140778   1.200   6.335   2.509
13512WAT     H240779   1.068   6.381   2.592
13513WAT      O40780   3.816   6.235   6.871
13513WAT     H140781   3.747   6.285   6.819
13513WAT     H240782   3.813   6.138   6.845
13514WAT      O40783   5.810   8.971   3.150
13514WAT     H140784   5.818   8.922   3.237
13514WAT     H240785   5.901   9.004   3.123
13515WAT      O40786   1.258   0.267   9.552
13515WAT     H140787   1.241   0.252   9.455
13515WAT     H240788   1.224   0.358   9.578
13516WAT      O40789   3.280   9.257   3.988
13516WAT     H140790   3.319   9.167   4.009
13516WAT     H240791   3.352   9.327   3.994
13517WAT      O40792   9.691   2.922   9.674
13517WAT     H140793   9.657   2.987   9.741
13517WAT     H240794   9.730   2.843   9.721
13518WAT      O40795   2.581   6.371   7.063
13518WAT     H140796   2.511   6.402   7.127
13518WAT     H240797   2.669   6.415   7.085
13519WAT      O40798   3.409   9.282   6.628
13519WAT     H140799   3.399   9.374   6.665
13519WAT     H240800   3.319   9.238   6.623
13520WAT      O40801   0.135   1.410   2.107
13520WAT     H140802   0.070   1.485   2.117
13520WAT     H240803   0.228   1.447   2.104
13521WAT      O40804   4.247   5.031   9.886
13521WAT     H140805   4.148   5.039   9.876
13521WAT     H240806   4.289   5.031   9.795
13522WAT      O40807   5.910   4.133   7.722
13522WAT     H140808   5.855   4.216   7.733
13522WAT     H240809   5.929   4.119   7.624
13523WAT      O40810   1.881   6.751   4.017
13523WAT     H140811   1.879   6.754   3.917
13523WAT     H240812   1.812   6.814   4.053
13524WAT      O40813   7.807   7.035   1.893
13524WAT     H140814   7.903   7.046   1.917
13524WAT     H240815   7.759   7.122   1.906
13525WAT      O40816   1.967   5.073   9.608
13525WAT     H140817   1.897   5.140   9.634
13525WAT     H240818   1.937   4.982   9.636
13526WAT      O40819   8.348   5.421   0.965
13526WAT     H140820   8.257   5.388   0.939
13526WAT     H240821   8.412   5.344   0.967
13527WAT      O40822   7.322   1.914   4.346
13527WAT     H140823   7.230   1.953   4.354
13527WAT     H240824   7.343   1.861   4.429
13528WAT      O40825   0.046   5.909   4.275
13528WAT     H140826  -0.029   5.893   4.339
13528WAT     H240827   0.081   5.822   4.242
13529WAT      O40828   2.996   0.454   6.560
13529WAT     H140829   3.060   0.388   6.520
13529WAT     H240830   2.998   0.446   6.660
13530WAT      O40831   0.803   5.438   6.266
13530WAT     H140832   0.761   5.348   6.279
13530WAT     H240833   0.789   5.469   6.172
13531WAT      O40834   6.048   2.454   7.390
13531WAT     H140835   6.007   2.517   7.456
13531WAT     H240836   6.124   2.499   7.344
13532WAT      O40837   3.271   0.780   6.894
13532WAT     H140838   3.187   0.827   6.870
13532WAT     H240839   3.301   0.722   6.818
13533WAT      O40840   5.450   5.431   8.948
13533WAT     H140841   5.542   5.469   8.943
13533WAT     H240842   5.390   5.478   8.884
13534WAT      O40843   1.017   8.627   0.382
13534WAT     H140844   0.965   8.615   0.297
13534WAT     H240845   1.115   8.630   0.361
13535WAT      O40846   7.575   7.298   8.443
13535WAT     H140847   7.643   7.352   8.395
13535WAT     H240848   7.483   7.329   8.419
13536WAT      O40849   5.060   0.233   0.031
13536WAT     H140850   5.143   0.284   0.055
13536WAT     H240851   5.057   0.148   0.085
13537WAT      O40852   6.330   5.547   7.796
13537WAT     H140853   6.275   5.529   7.877
13537WAT     H240854   6.360   5.642   7.795
13538WAT      O40855   7.793   4.606   9.874
13538WAT     H140856   7.793   4.599   9.973
13538WAT     H240857   7.828   4.696   9.847
13539WAT      O40858   3.775   8.990   5.117
13539WAT     H140859   3.783   9.069   5.178
13539WAT     H240860   3.795   8.906   5.168
13540WAT      O40861   9.414   0.231   2.377
13540WAT     H140862   9.373   0.320   2.357
13540WAT     H240863   9.356   0.159   2.341
13541WAT      O40864   0.653   9.542   9.678
13541WAT     H140865   0.587   9.480   9.634
13541WAT     H240866   0.662   9.625   9.623
13542WAT      O40867   7.286   0.782   7.420
13542WAT     H140868   7.310   0.745   7.330
13542WAT     H240869   7.257   0.708   7.480
13543WAT      O40870   4.086   8.250   3.273
13543WAT     H140871   4.186   8.258   3.266
13543WAT     H240872   4.057   8.272   3.366
13544WAT      O40873   8.696   4.506   7.433
13544WAT     H140874   8.732   4.545   7.349
13544WAT     H240875   8.752   4.427   7.459
13545WAT      O40876   6.971   4.548   4.843
13545WAT     H140877   7.031   4.477   4.808
13545WAT     H240878   6.963   4.622   4.776
13546WAT      O40879   9.728   6.007   2.336
13546WAT     H140880   9.815   6.029   2.292
13546WAT     H240881   9.653   6.029   2.273
13547WAT      O40882   6.537   3.220   2.031
13547WAT     H140883   6.549   3.297   2.093
13547WAT     H240884   6.568   3.136   2.076
13548WAT      O40885   0.063   0.569   7.004
13548WAT     H140886   0.060   0.627   6.922
13548WAT     H240887   0.049   0.473   6.977
13549WAT      O40888   7.932   4.426   4.246
13549WAT     H140889   7.986   4.388   4.321
13549WAT     H240890   7.986   4.421   4.161
13550WAT      O40891   7.368   9.128   0.232
13550WAT     H140892   7.405   9.106   0.142
13550WAT     H240893   7.368   9.227   0.245
13551WAT      O40894   5.673   7.455   7.570
13551WAT     H140895   5.638   7.400   7.647
13551WAT     H240896   5.703   7.393   7.497
13552WAT      O40897   7.195   3.270   2.789
13552WAT     H140898   7.155   3.281   2.698
13552WAT     H240899   7.201   3.359   2.834
13553WAT      O40900   1.784   4.766   8.941
13553WAT     H140901   1.846   4.790   9.015
13553WAT     H240902   1.824   4.792   8.853
13554WAT      O40903   5.694   0.025   5.075
13554WAT     H140904   5.708  -0.049   5.008
13554WAT     H240905   5.667  -0.015   5.163
13555WAT      O40906   7.699   2.701   5.419
13555WAT     H140907   7.737   2.625   5.471
13555WAT     H240908   7.714   2.786   5.468
13556WAT      O40909   6.617   5.974   7.812
13556WAT     H140910   6.668   5.941   7.733
13556WAT     H240911   6.662   5.943   7.896
13557WAT      O40912   7.521   0.279   9.339
13557WAT     H140913   7.504   0.218   9.417
13557WAT     H240914   7.530   0.373   9.372
13558WAT      O40915   2.493   0.808   5.481
13558WAT     H140916   2.492   0.871   5.403
13558WAT     H240917   2.491   0.714   5.448
13559WAT      O40918   1.308   3.618   5.834
13559WAT     H140919   1.212   3.591   5.842
13559WAT     H240920   1.323   3.658   5.744
13560WAT      O40921   9.861   6.960   3.325
13560WAT     H140922   9.950   6.957   3.371
13560WAT     H240923   9.829   7.054   3.320
13561WAT      O40924   0.311   4.780   7.324
13561WAT     H140925   0.309   4.684   7.297
13561WAT     H240926   0.219   4.808   7.353
13562WAT      O40927   8.070   3.455   9.014
13562WAT     H140928   8.160   3.487   8.983
13562WAT     H240929   8.059   3.479   9.111
13563WAT      O40930   3.426   4.886   7.087
13563WAT     H140931   3.492   4.887   7.012
13563WAT     H240932   3.335   4.905   7.052
13564WAT      O40933   1.034   8.597   4.882
13564WAT     H140934   1.026   8.689   4.844
13564WAT     H240935   1.102   8.597   4.956
13565WAT      O40936   4.020   0.698   1.966
13565WAT     H140937   4.033   0.786   1.919
13565WAT     H240938   4.099   0.640   1.950
13566WAT      O40939   7.610   1.774   5.032
13566WAT     H140940   7.587   1.865   4.997
13566WAT     H240941   7.534   1.739   5.087
13567WAT      O40942   1.787   7.505   0.918
13567WAT     H140943   1.790   7.525   0.820
13567WAT     H240944   1.852   7.565   0.966
13568WAT      O40945   6.602   9.114   2.205
13568WAT     H140946   6.564   9.194   2.252
13568WAT     H240947   6.548   9.033   2.227
13569WAT      O40948   3.095   3.278   3.204
13569WAT     H140949   3.048   3.213   3.143
13569WAT     H240950   3.076   3.371   3.175
13570WAT      O40951   7.645   4.534   6.674
13570WAT     H140952   7.661   4.622   6.630
13570WAT     H240953   7.695   4.462   6.626
13571WAT      O40954   0.670   8.189   6.318
13571WAT     H140955   0.667   8.222   6.412
13571WAT     H240956   0.634   8.096   6.315
13572WAT      O40957   4.926   1.256   3.555
13572WAT     H140958   4.900   1.302   3.470
13572WAT     H240959   4.845   1.211   3.594
13573WAT      O40960   3.719   4.756   5.581
13573WAT     H140961   3.699   4.661   5.558
13573WAT     H240962   3.810   4.761   5.622
13574WAT      O40963   3.703   3.633   5.180
13574WAT     H140964   3.691   3.548   5.128
13574WAT     H240965   3.644   3.704   5.142
13575WAT      O40966   0.154   6.961   1.604
13575WAT     H140967   0.243   7.001   1.582
13575WAT     H240968   0.158   6.916   1.693
13576WAT      O40969   3.931   9.358   5.497
13576WAT     H140970   3.885   9.371   5.409
13576WAT     H240971   4.023   9.397   5.493
13577WAT      O40972   3.846   1.377   1.051
13577WAT     H140973   3.799   1.387   1.138
13577WAT     H240974   3.942   1.404   1.062
13578WAT      O40975   1.834   5.683   7.006
13578WAT     H140976   1.843   5.588   7.038
13578WAT     H240977   1.860   5.745   7.080
13579WAT      O40978   0.347   9.343   7.109
13579WAT     H140979   0.332   9.436   7.076
13579WAT     H240980   0.301   9.331   7.197
13580WAT      O40981   7.188   2.535   4.123
13580WAT     H140982   7.219   2.521   4.218
13580WAT     H240983   7.200   2.450   4.072
13581WAT      O40984   5.556   0.824   0.749
13581WAT     H140985   5.459   0.807   0.762
13581WAT     H240986   5.576   0.832   0.651
13582WAT      O40987   3.220   9.081   2.173
13582WAT     H140988   3.220   9.010   2.244
13582WAT     H240989   3.148   9.147   2.193
13583WAT      O40990   6.586   4.918   7.230
13583WAT     H140991   6.499   4.891   7.189
13583WAT     H240992   6.583   4.901   7.328
13584WAT      O40993   8.890   3.245   2.075
13584WAT     H140994   8.965   3.179   2.073
13584WAT     H240995   8.814   3.212   2.019
13585WAT      O40996   3.913   7.876   1.031
13585WAT     H140997   3.829   7.845   1.075
13585WAT     H240998   3.949   7.804   0.972
13586WAT      O40999   3.241   1.547   9.485
13586WAT     H141000   3.174   1.512   9.551
13586WAT     H241001   3.306   1.475   9.462
13587WAT      O41002   6.388   3.565   2.895
13587WAT     H141003   6.420   3.471   2.885
13587WAT     H241004   6.465   3.628   2.885
13588WAT      O41005   4.597   8.159   1.128
13588WAT     H141006   4.523   8.224   1.145
13588WAT     H241007   4.650   8.146   1.212
13589WAT      O41008   3.981   8.471   2.625
13589WAT     H141009   3.962   8.521   2.709
13589WAT     H241010   3.933   8.383   2.627
13590WAT      O41011   1.548   0.533   5.994
13590WAT     H141012   1.550   0.630   6.018
13590WAT     H241013   1.553   0.523   5.895
13591WAT      O41014   6.879   2.527   7.216
13591WAT     H141015   6.864   2.600   7.283
13591WAT     H241016   6.962   2.547   7.164
13592WAT      O41017   5.604   3.935   3.447
13592WAT     H141018   5.604   3.848   3.497
13592WAT     H241019   5.541   3.999   3.491
13593WAT      O41020   2.847   4.006   1.890
13593WAT     H141021   2.853   4.092   1.839
13593WAT     H241022   2.894   4.014   1.977
13594WAT      O41023   0.538   9.358   3.017
13594WAT     H141024   0.446   9.376   2.983
13594WAT     H241025   0.594   9.317   2.945
13595WAT      O41026   3.866   3.910   8.116
13595WAT     H141027   3.875   3.971   8.037
13595WAT     H241028   3.797   3.840   8.097
13596WAT      O41029   1.462   4.177   1.787
13596WAT     H141030   1.378   4.225   1.812
13596WAT     H241031   1.466   4.165   1.688
13597WAT      O41032   9.883   6.526   0.665
13597WAT     H141033   9.912   6.542   0.571
13597WAT     H241034   9.960   6.542   0.727
13598WAT      O41035   9.180   8.157   2.518
13598WAT     H141036   9.099   8.172   2.575
13598WAT     H241037   9.219   8.068   2.540
13599WAT      O41038   0.644   5.707   2.364
13599WAT     H141039   0.683   5.706   2.456
13599WAT     H241040   0.701   5.652   2.303
13600WAT      O41041   8.423   6.306   3.166
13600WAT     H141042   8.359   6.238   3.202
13600WAT     H241043   8.476   6.345   3.242
13601WAT      O41044   1.440   4.801   4.225
13601WAT     H141045   1.427   4.810   4.323
13601WAT     H241046   1.447   4.892   4.184
13602WAT      O41047   2.715   7.670   4.574
13602WAT     H141048   2.728   7.586   4.522
13602WAT     H241049   2.781   7.674   4.649
13603WAT      O41050   8.430   9.218   9.814
13603WAT     H141051   8.333   9.227   9.837
13603WAT     H241052   8.465   9.306   9.782
13604WAT      O41053   2.119   7.814   3.846
13604WAT     H141054   2.118   7.904   3.802
13604WAT     H241055   2.213   7.787   3.865
13605WAT      O41056   6.130   7.234   5.805
13605WAT     H141057   6.146   7.297   5.881
13605WAT     H241058   6.199   7.249   5.734
13606WAT      O41059   9.630   0.992   0.948
13606WAT     H141060   9.696   0.926   0.912
13606WAT     H241061   9.674   1.049   1.017
13607WAT      O41062   7.956   8.481   9.188
13607WAT     H141063   7.917   8.396   9.223
13607WAT     H241064   7.972   8.544   9.264
13608WAT      O41065   6.572   9.510   7.292
13608WAT     H141066   6.521   9.456   7.359
13608WAT     H241067   6.517   9.518   7.208
13609WAT      O41068   0.334   3.292   0.523
13609WAT     H141069   0.270   3.231   0.569
13609WAT     H241070   0.394   3.335   0.590
13610WAT      O41071   5.005   0.709   4.636
13610WAT     H141072   5.011   0.685   4.733
13610WAT     H241073   4.950   0.792   4.626
13611WAT      O41074   1.956   2.379   7.234
13611WAT     H141075   1.994   2.379   7.326
13611WAT     H241076   1.872   2.433   7.232
13612WAT      O41077   4.939   6.916   7.768
13612WAT     H141078   4.929   7.011   7.799
13612WAT     H241079   4.976   6.861   7.843
13613WAT      O41080   6.401   3.436   7.557
13613WAT     H141081   6.304   3.426   7.580
13613WAT     H241082   6.456   3.381   7.621
13614WAT      O41083   0.818   5.654   4.204
13614WAT     H141084   0.909   5.686   4.228
13614WAT     H241085   0.809   5.648   4.105
13615WAT      O41086   3.524   7.992   5.947
13615WAT     H141087   3.560   8.079   5.981
13615WAT     H241088   3.455   7.958   6.010
13616WAT      O41089   4.217   1.884   5.415
13616WAT     H141090   4.130   1.838   5.434
13616WAT     H241091   4.208   1.981   5.435
13617WAT      O41092   7.212   2.203   1.667
13617WAT     H141093   7.289   2.141   1.683
13617WAT     H241094   7.128   2.162   1.702
13618WAT      O41095   2.952   4.308   7.542
13618WAT     H141096   2.960   4.393   7.594
13618WAT     H241097   3.037   4.290   7.493
13619WAT      O41098   9.669   7.263   6.139
13619WAT     H141099   9.690   7.166   6.149
13619WAT     H241100   9.670   7.287   6.042
13620WAT      O41101   2.045   3.854   8.898
13620WAT     H141102   2.040   3.953   8.905
13620WAT     H241103   2.104   3.828   8.822
13621WAT      O41104   9.467   4.453   9.073
13621WAT     H141105   9.429   4.367   9.106
13621WAT     H241106   9.495   4.442   8.978
13622WAT      O41107   0.484   1.793   8.768
13622WAT     H141108   0.566   1.790   8.824
13622WAT     H241109   0.403   1.785   8.826
13623WAT      O41110   5.830   8.324   9.325
13623WAT     H141111   5.910   8.353   9.377
13623WAT     H241112   5.765   8.279   9.386
13624WAT      O41113   5.433   0.549   4.191
13624WAT     H141114   5.515   0.509   4.150
13624WAT     H241115   5.362   0.479   4.200
13625WAT      O41116   4.084   0.681   9.204
13625WAT     H141117   4.048   0.698   9.112
13625WAT     H241118   4.089   0.582   9.220
13626WAT      O41119   9.019   1.268   7.627
13626WAT     H141120   9.115   1.296   7.626
13626WAT     H241121   9.013   1.168   7.630
13627WAT      O41122   2.034   7.733   4.945
13627WAT     H141123   2.103   7.773   4.885
13627WAT     H241124   1.943   7.748   4.906
13628WAT      O41125   6.985   6.962   9.330
13628WAT     H141126   7.040   6.925   9.405
13628WAT     H241127   7.042   6.974   9.249
13629WAT      O41128   6.508   7.070   1.081
13629WAT     H141129   6.454   6.988   1.102
13629WAT     H241130   6.470   7.148   1.130
13630WAT      O41131   6.138   2.810   8.330
13630WAT     H141132   6.066   2.746   8.303
13630WAT     H241133   6.182   2.777   8.413
13631WAT      O41134   5.069   5.235   3.424
13631WAT     H141135   5.116   5.156   3.385
13631WAT     H241136   5.135   5.295   3.468
13632WAT      O41137   5.732   3.436   4.378
13632WAT     H141138   5.666   3.363   4.394
13632WAT     H241139   5.748   3.486   4.464
13633WAT      O41140   3.604   4.444   5.274
13633WAT     H141141   3.688   4.458   5.327
13633WAT     H241142   3.621   4.377   5.201
13634WAT      O41143   2.257   4.799   7.272
13634WAT     H141144   2.323   4.834   7.339
13634WAT     H241145   2.250   4.700   7.280
13635WAT      O41146   1.102   7.270   9.754
13635WAT     H141147   1.098   7.365   9.724
13635WAT     H241148   1.060   7.211   9.685
13636WAT      O41149   0.733   5.771   7.854
13636WAT     H141150   0.776   5.681   7.856
13636WAT     H241151   0.751   5.814   7.766
13637WAT      O41152   2.494   5.321   0.590
13637WAT     H141153   2.589   5.318   0.560
13637WAT     H241154   2.447   5.398   0.546
13638WAT      O41155   2.563   9.072   3.853
13638WAT     H141156   2.650   9.037   3.820
13638WAT     H241157   2.503   9.092   3.775
13639WAT      O41158   6.549   1.880   6.738
13639WAT     H141159   6.617   1.933   6.790
13639WAT     H241160   6.480   1.844   6.800
13640WAT      O41161   9.538   6.222   4.755
13640WAT     H141162   9.556   6.309   4.711
13640WAT     H241163   9.439   6.209   4.764
13641WAT      O41164   9.597   2.915   2.154
13641WAT     H141165   9.588   2.823   2.192
13641WAT     H241166   9.587   2.983   2.227
13642WAT      O41167   1.358   1.183   6.109
13642WAT     H141168   1.325   1.268   6.150
13642WAT     H241169   1.308   1.165   6.024
13643WAT      O41170   0.267   9.120   6.707
13643WAT     H141171   0.200   9.185   6.671
13643WAT     H241172   0.226   9.029   6.713
13644WAT      O41173   2.215   4.625   9.708
13644WAT     H141174   2.208   4.648   9.611
13644WAT     H241175   2.125   4.634   9.751
13645WAT      O41176   5.849   4.838   8.513
13645WAT     H141177   5.886   4.820   8.604
13645WAT     H241178   5.910   4.799   8.444
13646WAT      O41179   1.362   4.502   6.929
13646WAT     H141180   1.362   4.410   6.969
13646WAT     H241181   1.428   4.559   6.977
13647WAT      O41182   2.795   1.622   2.902
13647WAT     H141183   2.796   1.650   2.807
13647WAT     H241184   2.835   1.694   2.959
13648WAT      O41185   1.135   2.424   6.889
13648WAT     H141186   1.234   2.436   6.885
13648WAT     H241187   1.098   2.414   6.797
13649WAT      O41188   4.435   9.765   4.658
13649WAT     H141189   4.421   9.864   4.648
13649WAT     H241190   4.396   9.718   4.579
13650WAT      O41191   5.187   1.406   7.304
13650WAT     H141192   5.137   1.369   7.226
13650WAT     H241193   5.173   1.347   7.384
13651WAT      O41194   4.790   5.870   3.836
13651WAT     H141195   4.857   5.860   3.763
13651WAT     H241196   4.836   5.871   3.925
13652WAT      O41197   3.994   5.208   4.730
13652WAT     H141198   3.907   5.216   4.780
13652WAT     H241199   4.070   5.223   4.793
13653WAT      O41200   7.402   6.484   4.456
13653WAT     H141201   7.376   6.511   4.549
13653WAT     H241202   7.448   6.396   4.458
13654WAT      O41203   1.344   6.754   7.063
13654WAT     H141204   1.365   6.703   7.147
13654WAT     H241205   1.425   6.756   7.004
13655WAT      O41206   6.581   5.397   8.940
13655WAT     H141207   6.560   5.459   8.864
13655WAT     H241208   6.543   5.307   8.920
13656WAT      O41209   2.838   0.544   0.870
13656WAT     H141210   2.853   0.593   0.784
13656WAT     H241211   2.816   0.610   0.942
13657WAT      O41212   4.513   2.742   0.443
13657WAT     H141213   4.551   2.720   0.353
13657WAT     H241214   4.479   2.658   0.486
13658WAT      O41215   3.830   3.517   8.301
13658WAT     H141216   3.839   3.438   8.241
13658WAT     H241217   3.903   3.516   8.369
13659WAT      O41218   7.663   8.912   7.617
13659WAT     H141219   7.588   8.868   7.666
13659WAT     H241220   7.667   9.009   7.641
13660WAT      O41221   9.605   2.324   7.651
13660WAT     H141222   9.594   2.236   7.696
13660WAT     H241223   9.670   2.380   7.703
13661WAT      O41224   3.892   5.401   1.438
13661WAT     H141225   3.895   5.302   1.453
13661WAT     H241226   3.984   5.438   1.444
13662WAT      O41227   3.379   9.242   9.458
13662WAT     H141228   3.417   9.166   9.510
13662WAT     H241229   3.424   9.247   9.369
13663WAT      O41230   5.569   8.168   2.584
13663WAT     H141231   5.619   8.205   2.506
13663WAT     H241232   5.529   8.242   2.637
13664WAT      O41233   4.378   6.167   5.598
13664WAT     H141234   4.358   6.197   5.692
13664WAT     H241235   4.342   6.234   5.534
13665WAT      O41236   0.856   0.482   3.810
13665WAT     H141237   0.862   0.555   3.742
13665WAT     H241238   0.781   0.503   3.874
13666WAT      O41239   6.923   9.007   5.809
13666WAT     H141240   6.939   8.913   5.780
13666WAT     H241241   6.918   9.012   5.908
13667WAT      O41242   6.780   7.710   1.991
13667WAT     H141243   6.867   7.663   1.989
13667WAT     H241244   6.716   7.660   2.049
13668WAT      O41245   6.230   4.347   4.359
13668WAT     H141246   6.261   4.257   4.390
13668WAT     H241247   6.130   4.350   4.361
13669WAT      O41248   6.770   1.592   1.573
13669WAT     H141249   6.721   1.595   1.486
13669WAT     H241250   6.818   1.505   1.581
13670WAT      O41251   5.718   6.546   3.813
13670WAT     H141252   5.636   6.601   3.800
13670WAT     H241253   5.702   6.454   3.775
13671WAT      O41254   4.011   4.082   8.698
13671WAT     H141255   3.940   4.150   8.714
13671WAT     H241256   4.068   4.111   8.621
13672WAT      O41257   4.376   9.387   1.041
13672WAT     H141258   4.450   9.320   1.033
13672WAT     H241259   4.401   9.471   0.993
13673WAT      O41260   5.983   4.244   4.376
13673WAT     H141261   5.933   4.171   4.328
13673WAT     H241262   6.006   4.213   4.468
13674WAT      O41263   8.023   2.337   2.947
13674WAT     H141264   8.116   2.335   2.911
13674WAT     H241265   7.969   2.263   2.906
13675WAT      O41266   1.899   1.241   4.906
13675WAT     H141267   1.906   1.326   4.959
13675WAT     H241268   1.925   1.258   4.811
13676WAT      O41269   1.813   6.430   0.346
13676WAT     H141270   1.860   6.515   0.321
13676WAT     H241271   1.845   6.355   0.288
13677WAT      O41272   1.496   7.943   6.807
13677WAT     H141273   1.516   8.040   6.821
13677WAT     H241274   1.500   7.921   6.710
13678WAT      O41275   0.288   7.372   4.073
13678WAT     H141276   0.352   7.348   4.145
13678WAT     H241277   0.333   7.365   3.984
13679WAT      O41278   5.861   8.694   9.567
13679WAT     H141279   5.932   8.760   9.594
13679WAT     H241280   5.772   8.726   9.600
13680WAT      O41281   1.891   0.097   0.485
13680WAT     H141282   1.832   0.137   0.556
13680WAT     H241283   1.874   0.144   0.398
13681WAT      O41284   8.264   2.874   6.050
13681WAT     H141285   8.358   2.878   6.016
13681WAT     H241286   8.263   2.893   6.148
13682WAT      O41287   5.215   6.534   1.336
13682WAT     H141288   5.120   6.526   1.307
13682WAT     H241289   5.245   6.629   1.328
13683WAT      O41290   1.459   8.093   8.550
13683WAT     H141291   1.529   8.057   8.488
13683WAT     H241292   1.412   8.169   8.505
13684WAT      O41293   2.769   5.769   9.481
13684WAT     H141294   2.787   5.789   9.577
13684WAT     H241295   2.698   5.699   9.475
13685WAT      O41296   6.149   7.466   4.854
13685WAT     H141297   6.229   7.418   4.891
13685WAT     H241298   6.069   7.443   4.909
13686WAT      O41299   6.594   0.191   6.787
13686WAT     H141300   6.548   0.280   6.786
13686WAT     H241301   6.566   0.140   6.868
13687WAT      O41302   6.288   3.905   6.214
13687WAT     H141303   6.287   3.972   6.140
13687WAT     H241304   6.353   3.832   6.192
13688WAT      O41305   3.348   7.476   2.657
13688WAT     H141306   3.317   7.504   2.747
13688WAT     H241307   3.433   7.424   2.665
13689WAT      O41308   3.000   4.443   1.413
13689WAT     H141309   2.940   4.519   1.389
13689WAT     H241310   3.094   4.466   1.388
13690WAT      O41311   1.349   6.248   5.408
13690WAT     H141312   1.323   6.176   5.344
13690WAT     H241313   1.267   6.281   5.456
13691WAT      O41314   1.669   8.130   4.972
13691WAT     H141315   1.673   8.031   4.986
13691WAT     H241316   1.594   8.152   4.910
13692WAT      O41317   7.341   9.374   0.723
13692WAT     H141318   7.406   9.309   0.764
13692WAT     H241319   7.378   9.467   0.731
13693WAT      O41320   4.018   9.051   1.403
13693WAT     H141321   4.079   8.975   1.382
13693WAT     H241322   4.044   9.091   1.491
13694WAT      O41323   4.786   8.101   3.429
13694WAT     H141324   4.826   8.024   3.479
13694WAT     H241325   4.855   8.173   3.418
13695WAT      O41326   2.422   4.309   3.972
13695WAT     H141327   2.491   4.307   4.044
13695WAT     H241328   2.348   4.245   3.994
13696WAT      O41329   8.203   2.318   4.600
13696WAT     H141330   8.290   2.317   4.649
13696WAT     H241331   8.169   2.225   4.590
13697WAT      O41332   1.189   2.541   0.952
13697WAT     H141333   1.133   2.541   1.035
13697WAT     H241334   1.286   2.538   0.978
13698WAT      O41335   9.807   2.116   6.912
13698WAT     H141336   9.820   2.032   6.965
13698WAT     H241337   9.736   2.172   6.955
13699WAT      O41338   1.613   5.833   6.959
13699WAT     H141339   1.558   5.836   7.043
13699WAT     H241340   1.701   5.789   6.979
13700WAT      O41341   1.460   2.874   9.618
13700WAT     H141342   1.363   2.872   9.642
13700WAT     H241343   1.487   2.967   9.594
13701WAT      O41344   5.053   7.686   3.141
13701WAT     H141345   4.984   7.614   3.141
13701WAT     H241346   5.008   7.775   3.128
13702WAT      O41347   3.302   6.553   5.064
13702WAT     H141348   3.312   6.454   5.068
13702WAT     H241349   3.392   6.597   5.074
13703WAT      O41350   6.993   0.746   8.753
13703WAT     H141351   7.052   0.790   8.686
13703WAT     H241352   7.032   0.756   8.845
13704WAT      O41353   2.746   1.178   7.766
13704WAT     H141354   2.669   1.159   7.706
13704WAT     H241355   2.721   1.250   7.831
13705WAT      O41356   8.015   8.887   6.753
13705WAT     H141357   7.968   8.868   6.667
13705WAT     H241358   8.000   8.811   6.817
13706WAT      O41359   7.764   1.417   8.667
13706WAT     H141360   7.773   1.457   8.758
13706WAT     H241361   7.738   1.321   8.676
13707WAT      O41362   5.920   1.555   2.368
13707WAT     H141363   5.987   1.496   2.414
13707WAT     H241364   5.845   1.499   2.332
13708WAT      O41365   6.112   4.230   0.736
13708WAT     H141366   6.044   4.302   0.718
13708WAT     H241367   6.098   4.154   0.672
13709WAT      O41368   9.316   8.349   4.997
13709WAT     H141369   9.242   8.414   4.983
13709WAT     H241370   9.393   8.395   5.042
13710WAT      O41371   1.961   3.138   3.465
13710WAT     H141372   1.897   3.142   3.541
13710WAT     H241373   1.952   3.049   3.419
13711WAT      O41374   4.192   9.129   0.175
13711WAT     H141375   4.273   9.108   0.119
13711WAT     H241376   4.110   9.097   0.127
13712WAT      O41377   7.694   5.469   1.898
13712WAT     H141378   7.740   5.522   1.969
13712WAT     H241379   7.718   5.372   1.908
13713WAT      O41380   8.116   7.737   0.792
13713WAT     H141381   8.179   7.713   0.718
13713WAT     H241382   8.119   7.836   0.808
13714WAT      O41383   4.056   3.759   6.466
13714WAT     H141384   4.079   3.855   6.450
13714WAT     H241385   4.137   3.710   6.498
13715WAT      O41386   9.862   2.208   4.441
13715WAT     H141387   9.780   2.167   4.401
13715WAT     H241388   9.942   2.183   4.386
13716WAT      O41389   5.810   6.146   8.663
13716WAT     H141390   5.881   6.217   8.672
13716WAT     H241391   5.720   6.189   8.664
13717WAT      O41392   4.118   7.658   1.446
13717WAT     H141393   4.168   7.705   1.374
13717WAT     H241394   4.183   7.624   1.515
13718WAT      O41395   8.995   0.577   3.250
13718WAT     H141396   8.996   0.668   3.208
13718WAT     H241397   9.074   0.567   3.311
13719WAT      O41398   4.135   8.595   7.143
13719WAT     H141399   4.040   8.563   7.143
13719WAT     H241400   4.142   8.679   7.196
13720WAT      O41401   9.149   6.993   7.990
13720WAT     H141402   9.147   7.011   8.089
13720WAT     H241403   9.063   6.951   7.962
13721WAT      O41404   8.747   4.939   1.975
13721WAT     H141405   8.692   5.019   1.953
13721WAT     H241406   8.699   4.882   2.041
13722WAT      O41407   4.720   8.654   3.459
13722WAT     H141408   4.623   8.678   3.456
13722WAT     H241409   4.768   8.697   3.383
13723WAT      O41410   7.131   9.622   5.158
13723WAT     H141411   7.089   9.663   5.077
13723WAT     H241412   7.191   9.547   5.131
13724WAT      O41413   9.836   0.727   2.919
13724WAT     H141414   9.907   0.796   2.908
13724WAT     H241415   9.832   0.698   3.015
13725WAT      O41416   9.759   5.325   2.866
13725WAT     H141417   9.754   5.425   2.874
13725WAT     H241418   9.827   5.289   2.930
13726WAT      O41419   3.351   6.278   7.387
13726WAT     H141420   3.285   6.208   7.360
13726WAT     H241421   3.336   6.303   7.483
13727WAT      O41422   5.566   4.529   6.481
13727WAT     H141423   5.602   4.447   6.526
13727WAT     H241424   5.591   4.610   6.534
13728WAT      O41425   3.434   5.275   0.484
13728WAT     H141426   3.364   5.251   0.416
13728WAT     H241427   3.394   5.333   0.554
13729WAT      O41428   8.486   2.978   0.593
13729WAT     H141429   8.555   3.044   0.622
13729WAT     H241430   8.527   2.887   0.587
13730WAT      O41431   8.658   8.245   7.024
13730WAT     H141432   8.604   8.183   7.081
13730WAT     H241433   8.640   8.227   6.928
13731WAT      O41434   0.094   4.768   8.667
13731WAT     H141435   0.051   4.678   8.672
13731WAT     H241436   0.163   4.776   8.740
13732WAT      O41437   1.944   9.816   9.379
13732WAT     H141438   1.869   9.860   9.329
13732WAT     H241439   2.026   9.872   9.372
13733WAT      O41440   3.886   8.514   6.293
13733WAT     H141441   3.926   8.593   6.339
13733WAT     H241442   3.787   8.513   6.309
13734WAT      O41443   9.887   9.379   2.913
13734WAT     H141444   9.797   9.336   2.905
13734WAT     H241445   9.894   9.454   2.848
13735WAT      O41446   8.353   0.241   2.529
13735WAT     H141447   8.443   0.257   2.569
13735WAT     H241448   8.320   0.326   2.487
13736WAT      O41449   7.019   5.981   8.096
13736WAT     H141450   7.047   5.977   8.001
13736WAT     H241451   7.014   6.076   8.126
13737WAT      O41452   8.347   9.799   8.145
13737WAT     H141453   8.264   9.769   8.192
13737WAT     H241454   8.385   9.723   8.093
13738WAT      O41455   5.288   0.230   2.089
13738WAT     H141456   5.362   0.297   2.097
13738WAT     H241457   5.208   0.274   2.049
13739WAT      O41458   8.287   8.851   4.126
13739WAT     H141459   8.355   8.887   4.063
13739WAT     H241460   8.200   8.838   4.078
13740WAT      O41461   6.328   5.663   4.734
13740WAT     H141462   6.231   5.678   4.715
13740WAT     H241463   6.345   5.564   4.739
13741WAT      O41464   9.308   7.241   3.717
13741WAT     H141465   9.335   7.177   3.789
13741WAT     H241466   9.208   7.240   3.707
13742WAT      O41467   7.890   5.296   7.644
13742WAT     H141468   7.828   5.291   7.723
13742WAT     H241469   7.952   5.218   7.645
13743WAT      O41470   4.641   1.869   1.471
13743WAT     H141471   4.634   1.844   1.374
13743WAT     H241472   4.619   1.966   1.482
13744WAT      O41473   0.656   5.487   0.292
13744WAT     H141474   0.602   5.493   0.376
13744WAT     H241475   0.744   5.446   0.313
13745WAT      O41476   9.037   9.597   2.509
13745WAT     H141477   9.124   9.549   2.492
13745WAT     H241478   9.025   9.610   2.607
13746WAT      O41479   6.943   6.510   8.033
13746WAT     H141480   7.036   6.527   8.066
13746WAT     H241481   6.945   6.440   7.961
13747WAT      O41482   5.679   1.417   6.148
13747WAT     H141483   5.665   1.357   6.227
13747WAT     H241484   5.772   1.405   6.113
13748WAT      O41485   6.854   8.171   1.453
13748WAT     H141486   6.952   8.169   1.474
13748WAT     H241487   6.814   8.253   1.494
13749WAT      O41488   7.630   0.215   0.271
13749WAT     H141489   7.707   0.269   0.307
13749WAT     H241490   7.641   0.202   0.173
13750WAT      O41491   9.400   2.543   3.366
13750WAT     H141492   9.304   2.548   3.339
13750WAT     H241493   9.406   2.536   3.465
13751WAT      O41494   8.436   4.497   0.141
13751WAT     H141495   8.357   4.538   0.095
13751WAT     H241496   8.414   4.404   0.169
13752WAT      O41497   2.590   5.389   8.872
13752WAT     H141498   2.611   5.310   8.930
13752WAT     H241499   2.504   5.373   8.823
13753WAT      O41500   4.598   1.603   7.316
13753WAT     H141501   4.697   1.597   7.335
13753WAT     H241502   4.548   1.549   7.384
13754WAT      O41503   7.699   3.930   3.669
13754WAT     H141504   7.720   3.906   3.763
13754WAT     H241505   7.704   4.029   3.658
13755WAT      O41506   4.914   7.138   1.260
13755WAT     H141507   4.985   7.205   1.239
13755WAT     H241508   4.897   7.080   1.180
13756WAT      O41509   2.165   7.876   8.135
13756WAT     H141510   2.089   7.877   8.071
13756WAT     H241511   2.227   7.952   8.114
13757WAT      O41512   3.619   4.263   3.141
13757WAT     H141513   3.709   4.226   3.161
13757WAT     H241514   3.576   4.295   3.226
13758WAT      O41515   0.306   1.638   0.124
13758WAT     H141516   0.213   1.631   0.161
13758WAT     H241517   0.303   1.687   0.037
13759WAT      O41518   4.737   4.710   1.053
13759WAT     H141519   4.658   4.686   0.997
13759WAT     H241520   4.718   4.796   1.102
13760WAT      O41521   8.704   8.287   2.692
13760WAT     H141522   8.655   8.265   2.608
13760WAT     H241523   8.668   8.234   2.768
13761WAT      O41524   3.881   8.439   8.708
13761WAT     H141525   3.895   8.517   8.769
13761WAT     H241526   3.839   8.363   8.758
13762WAT      O41527   4.098   8.955   6.023
13762WAT     H141528   4.168   9.014   5.983
13762WAT     H241529   4.040   8.917   5.951
13763WAT      O41530   0.740   7.137   7.727
13763WAT     H141531   0.747   7.128   7.827
13763WAT     H241532   0.787   7.220   7.698
13764WAT      O41533   0.955   1.583   2.237
13764WAT     H141534   0.993   1.557   2.326
13764WAT     H241535   0.875   1.526   2.218
13765WAT      O41536   2.889   7.099   6.405
13765WAT     H141537   2.983   7.131   6.403
13765WAT     H241538   2.840   7.144   6.479
13766WAT      O41539   0.337   5.875   6.824
13766WAT     H141540   0.399   5.852   6.899
13766WAT     H241541   0.265   5.936   6.858
13767WAT      O41542   9.104   7.070   9.803
13767WAT     H141543   9.171   7.114   9.743
13767WAT     H241544   9.050   7.005   9.750
13768WAT      O41545   0.261   8.950   6.986
13768WAT     H141546   0.209   8.911   6.910
13768WAT     H241547   0.357   8.957   6.961
13769WAT      O41548   4.311   3.418   8.818
13769WAT     H141549   4.227   3.422   8.872
13769WAT     H241550   4.383   3.374   8.871
13770WAT      O41551   1.560   1.590   4.411
13770WAT     H141552   1.615   1.525   4.464
13770WAT     H241553   1.466   1.590   4.446
13771WAT      O41554   5.729   0.775   4.663
13771WAT     H141555   5.656   0.840   4.644
13771WAT     H241556   5.695   0.701   4.720
13772WAT      O41557   0.140   3.374   0.361
13772WAT     H141558   0.218   3.345   0.417
13772WAT     H241559   0.088   3.294   0.332
13773WAT      O41560   0.336   1.989   4.574
13773WAT     H141561   0.423   2.000   4.527
13773WAT     H241562   0.292   2.078   4.585
13774WAT      O41563   3.674   8.221   9.657
13774WAT     H141564   3.658   8.151   9.726
13774WAT     H241565   3.748   8.281   9.687
13775WAT      O41566   6.410   0.745   1.579
13775WAT     H141567   6.354   0.781   1.504
13775WAT     H241568   6.448   0.822   1.631
13776WAT      O41569   0.642   5.627   9.278
13776WAT     H141570   0.572   5.695   9.295
13776WAT     H241571   0.607   5.557   9.216
13777WAT      O41572   5.742   0.226   6.585
13777WAT     H141573   5.665   0.201   6.644
13777WAT     H241574   5.737   0.174   6.500
13778WAT      O41575   9.836   2.518   4.840
13778WAT     H141576   9.796   2.571   4.915
13778WAT     H241577   9.900   2.575   4.789
13779WAT      O41578   0.776   4.577   5.137
13779WAT     H141579   0.720   4.652   5.102
13779WAT     H241580   0.794   4.512   5.064
13780WAT      O41581   6.296   1.579   2.023
13780WAT     H141582   6.226   1.639   2.063
13780WAT     H241583   6.358   1.634   1.967
13781WAT      O41584   5.694   1.266   9.184
13781WAT     H141585   5.652   1.280   9.274
13781WAT     H241586   5.634   1.208   9.128
13782WAT      O41587   9.564   0.901   8.936
13782WAT     H141588   9.630   0.938   8.870
13782WAT     H241589   9.608   0.831   8.991
13783WAT      O41590   2.278   8.319   4.722
13783WAT     H141591   2.249   8.224   4.706
13783WAT     H241592   2.325   8.325   4.810
13784WAT      O41593   3.034   3.773   3.136
13784WAT     H141594   3.023   3.857   3.082
13784WAT     H241595   3.115   3.782   3.194
13785WAT      O41596   0.444   0.434   2.190
13785WAT     H141597   0.351   0.419   2.156
13785WAT     H241598   0.484   0.513   2.145
13786WAT      O41599   5.969   2.892   2.352
13786WAT     H141600   5.909   2.839   2.292
13786WAT     H241601   5.978   2.985   2.317
13787WAT      O41602   2.641   7.929   1.005
13787WAT     H141603   2.542   7.921   1.017
13787WAT     H241604   2.685   7.938   1.095
13788WAT      O41605   8.778   4.732   6.846
13788WAT     H141606   8.792   4.745   6.747
13788WAT     H241607   8.681   4.742   6.867
13789WAT      O41608   6.965   8.418   2.388
13789WAT     H141609   6.944   8.354   2.315
13789WAT     H241610   7.064   8.428   2.398
13790WAT      O41611   6.017   5.935   3.789
13790WAT     H141612   5.928   5.934   3.834
13790WAT     H241613   6.034   5.847   3.745
13791WAT      O41614   3.034   8.003   4.297
13791WAT     H141615   2.999   8.086   4.342
13791WAT     H241616   2.994   7.923   4.340
13792WAT      O41617   0.172   2.735   9.557
13792WAT     H141618   0.236   2.755   9.483
13792WAT     H241619   0.158   2.636   9.564
13793WAT      O41620   2.797   5.491   0.148
13793WAT     H141621   2.774   5.588   0.135
13793WAT     H241622   2.757   5.438   0.073
13794WAT      O41623   4.651   6.950   1.798
13794WAT     H141624   4.604   6.868   1.830
13794WAT     H241625   4.653   6.950   1.698
13795WAT      O41626   1.371   9.352   6.478
13795WAT     H141627   1.462   9.361   6.519
13795WAT     H241628   1.329   9.266   6.509
13796WAT      O41629   5.720   1.157   5.582
13796WAT     H141630   5.724   1.253   5.610
13796WAT     H241631   5.627   1.123   5.593
13797WAT      O41632   3.192   8.057   2.827
13797WAT     H141633   3.198   7.962   2.796
13797WAT     H241634   3.273   8.107   2.795
13798WAT      O41635   6.573   8.855   5.910
13798WAT     H141636   6.667   8.821   5.902
13798WAT     H241637   6.571   8.929   5.977
13799WAT      O41638   1.241   5.343   3.292
13799WAT     H141639   1.182   5.341   3.372
13799WAT     H241640   1.317   5.279   3.305
13800WAT      O41641   9.284   1.397   9.767
13800WAT     H141642   9.222   1.474   9.778
13800WAT     H241643   9.241   1.328   9.708
13801WAT      O41644   6.468   0.305   0.127
13801WAT     H141645   6.410   0.224   0.137
13801WAT     H241646   6.488   0.320   0.030
13802WAT      O41647   4.377   8.191   0.135
13802WAT     H141648   4.401   8.284   0.160
13802WAT     H241649   4.456   8.131   0.146
13803WAT      O41650   2.805   6.899   2.901
13803WAT     H141651   2.803   6.878   2.999
13803WAT     H241652   2.774   6.819   2.850
13804WAT      O41653   2.627   1.206   0.967
13804WAT     H141654   2.721   1.223   0.938
13804WAT     H241655   2.585   1.291   0.996
13805WAT      O41656   6.371   2.363   4.714
13805WAT     H141657   6.459   2.406   4.734
13805WAT     H241658   6.299   2.405   4.770
13806WAT      O41659   0.890   9.384   0.336
13806WAT     H141660   0.889   9.298   0.286
13806WAT     H241661   0.891   9.365   0.434
13807WAT      O41662   4.727   1.723   0.200
13807WAT     H141663   4.660   1.656   0.171
13807WAT     H241664   4.681   1.802   0.240
13808WAT      O41665   2.670   7.050   2.163
13808WAT     H141666   2.704   6.957   2.148
13808WAT     H241667   2.745   7.115   2.150
13809WAT      O41668   2.817   0.583   9.532
13809WAT     H141669   2.807   0.497   9.483
13809WAT     H241670   2.727   0.619   9.555
13810WAT      O41671   6.440   0.031   8.595
13810WAT     H141672   6.486  -0.049   8.556
13810WAT     H241673   6.429   0.019   8.693
13811WAT      O41674   3.672   2.672   8.879
13811WAT     H141675   3.581   2.713   8.890
13811WAT     H241676   3.671   2.579   8.916
13812WAT      O41677   8.815   6.420   7.753
13812WAT     H141678   8.902   6.418   7.702
13812WAT     H241679   8.753   6.485   7.710
13813WAT      O41680   6.837   1.510   8.916
13813WAT     H141681   6.902   1.484   8.987
13813WAT     H241682   6.744   1.488   8.947
13814WAT      O41683   6.449   6.916   7.103
13814WAT     H141684   6.499   6.997   7.134
13814WAT     H241685   6.387   6.886   7.175
13815WAT      O41686   1.985   8.454   6.883
13815WAT     H141687   2.022   8.526   6.825
13815WAT     H241688   2.024   8.460   6.974
13816WAT      O41689   0.253   2.646   0.966
13816WAT     H141690   0.244   2.746   0.973
13816WAT     H241691   0.224   2.617   0.875
13817WAT      O41692   2.250   7.542   1.655
13817WAT     H141693   2.291   7.556   1.565
13817WAT     H241694   2.150   7.549   1.648
13818WAT      O41695   8.811   0.297   5.565
13818WAT     H141696   8.804   0.200   5.542
13818WAT     H241697   8.839   0.306   5.660
13819WAT      O41698   8.878   1.454   3.897
13819WAT     H141699   8.838   1.382   3.841
13819WAT     H241700   8.967   1.424   3.931
13820WAT      O41701   0.219   6.755   8.758
13820WAT     H141702   0.318   6.744   8.751
13820WAT     H241703   0.192   6.758   8.854
13821WAT      O41704   3.716   7.034   7.689
13821WAT     H141705   3.771   6.959   7.726
13821WAT     H241706   3.620   7.019   7.713
13822WAT      O41707   0.252   3.603   6.996
13822WAT     H141708   0.158   3.590   6.963
13822WAT     H241709   0.256   3.684   7.053
13823WAT      O41710   4.283   7.291   9.665
13823WAT     H141711   4.214   7.227   9.700
13823WAT     H241712   4.237   7.363   9.613
13824WAT      O41713   0.702   1.363   0.918
13824WAT     H141714   0.713   1.269   0.950
13824WAT     H241715   0.698   1.364   0.818
13825WAT      O41716   0.722   7.094   5.684
13825WAT     H141717   0.651   7.164   5.691
13825WAT     H241718   0.781   7.098   5.765
13826WAT      O41719   3.108   0.699   0.411
13826WAT     H141720   3.073   0.635   0.479
13826WAT     H241721   3.187   0.660   0.365
13827WAT      O41722   4.100   3.526   7.166
13827WAT     H141723   4.183   3.558   7.120
13827WAT     H241724   4.046   3.604   7.197
13828WAT      O41725   4.329   4.774   7.061
13828WAT     H141726   4.416   4.725   7.068
13828WAT     H241727   4.277   4.763   7.146
13829WAT      O41728   8.979   7.806   8.745
13829WAT     H141729   9.059   7.776   8.796
13829WAT     H241730   8.900   7.749   8.769
13830WAT      O41731   0.154   9.081   0.191
13830WAT     H141732   0.123   9.175   0.200
13830WAT     H241733   0.109   9.038   0.113
13831WAT      O41734   9.493   2.133   4.132
13831WAT     H141735   9.395   2.149   4.120
13831WAT     H241736   9.514   2.037   4.113
13832WAT      O41737   9.493   4.278   6.095
13832WAT     H141738   9.521   4.202   6.154
13832WAT     H241739   9.412   4.250   6.042
13833WAT      O41740   5.088   8.166   5.684
13833WAT     H141741   5.076   8.078   5.730
13833WAT     H241742   5.015   8.179   5.616
13834WAT      O41743   7.951   0.681   1.417
13834WAT     H141744   7.995   0.769   1.402
13834WAT     H241745   7.877   0.669   1.351
13835WAT      O41746   6.366   5.366   1.789
13835WAT     H141747   6.381   5.330   1.697
13835WAT     H241748   6.363   5.291   1.855
13836WAT      O41749   2.945   8.261   1.633
13836WAT     H141750   2.880   8.263   1.709
13836WAT     H241751   3.031   8.221   1.663
13837WAT      O41752   4.062   4.835   9.230
13837WAT     H141753   3.975   4.793   9.254
13837WAT     H241754   4.084   4.907   9.296
13838WAT      O41755   3.666   7.422   6.700
13838WAT     H141756   3.675   7.333   6.656
13838WAT     H241757   3.710   7.421   6.790
13839WAT      O41758   2.057   2.182   1.107
13839WAT     H141759   2.140   2.150   1.152
13839WAT     H241760   2.082   2.240   1.029
13840WAT      O41761   4.811   1.380   7.119
13840WAT     H141762   4.829   1.423   7.207
13840WAT     H241763   4.748   1.303   7.131
13841WAT      O41764   4.116   5.481   8.963
13841WAT     H141765   4.061   5.512   9.041
13841WAT     H241766   4.063   5.415   8.909
13842WAT      O41767   6.768   6.561   0.133
13842WAT     H141768   6.849   6.590   0.184
13842WAT     H241769   6.734   6.638   0.079
13843WAT      O41770   4.155   3.394   9.030
13843WAT     H141771   4.100   3.415   9.110
13843WAT     H241772   4.225   3.327   9.054
13844WAT      O41773   7.295   0.496   7.599
13844WAT     H141774   7.366   0.487   7.529
13844WAT     H241775   7.251   0.408   7.614
13845WAT      O41776   9.063   4.201   0.633
13845WAT     H141777   9.012   4.285   0.654
13845WAT     H241778   9.139   4.222   0.573
13846WAT      O41779   7.235   4.675   9.862
13846WAT     H141780   7.180   4.759   9.860
13846WAT     H241781   7.191   4.606   9.804
13847WAT      O41782   0.152   9.034   8.998
13847WAT     H141783   0.172   9.028   9.096
13847WAT     H241784   0.063   9.077   8.985
13848WAT      O41785   8.462   6.330   6.337
13848WAT     H141786   8.396   6.367   6.272
13848WAT     H241787   8.463   6.386   6.419
13849WAT      O41788   5.116   3.553   2.047
13849WAT     H141789   5.067   3.466   2.054
13849WAT     H241790   5.083   3.604   1.967
13850WAT      O41791   5.094   9.354   7.766
13850WAT     H141792   5.127   9.264   7.738
13850WAT     H241793   5.171   9.418   7.771
13851WAT      O41794   1.922   9.013   6.040
13851WAT     H141795   1.876   9.102   6.048
13851WAT     H241796   1.874   8.956   5.974
13852WAT      O41797   1.685   9.290   8.318
13852WAT     H141798   1.705   9.339   8.402
13852WAT     H241799   1.689   9.353   8.240
13853WAT      O41800   4.784   0.816   6.687
13853WAT     H141801   4.830   0.775   6.766
13853WAT     H241802   4.788   0.752   6.610
13854WAT      O41803   3.707   4.637   8.231
13854WAT     H141804   3.709   4.547   8.189
13854WAT     H241805   3.667   4.703   8.168
13855WAT      O41806   5.578   5.920   1.085
13855WAT     H141807   5.561   5.943   1.181
13855WAT     H241808   5.658   5.971   1.053
13856WAT      O41809   5.098   6.304   1.909
13856WAT     H141810   5.088   6.210   1.940
13856WAT     H241811   5.173   6.309   1.843
13857WAT      O41812   0.601   6.354   3.893
13857WAT     H141813   0.689   6.319   3.926
13857WAT     H241814   0.617   6.436   3.838
13858WAT      O41815   4.982   1.675   8.930
13858WAT     H141816   5.064   1.692   8.876
13858WAT     H241817   4.934   1.761   8.945
13859WAT      O41818   3.301   4.428   7.042
13859WAT     H141819   3.259   4.424   6.951
13859WAT     H241820   3.399   4.445   7.032
13860WAT      O41821   7.325   7.057   2.160
13860WAT     H141822   7.410   7.104   2.184
13860WAT     H241823   7.343   6.991   2.086
13861WAT      O41824   7.697   2.278   0.912
13861WAT     H141825   7.739   2.334   0.841
13861WAT     H241826   7.624   2.330   0.956
13862WAT      O41827   4.860   5.753   4.146
13862WAT     H141828   4.850   5.853   4.139
13862WAT     H241829   4.801   5.718   4.218
13863WAT      O41830   6.191   5.479   0.231
13863WAT     H141831   6.224   5.562   0.276
13863WAT     H241832   6.092   5.487   0.214
13864WAT      O41833   9.601   9.197   1.263
13864WAT     H141834   9.559   9.261   1.199
13864WAT     H241835   9.548   9.112   1.263
13865WAT      O41836   6.871   3.838   7.806
13865WAT     H141837   6.916   3.915   7.763
13865WAT     H241838   6.864   3.762   7.740
13866WAT      O41839   5.751   2.000   1.864
13866WAT     H141840   5.687   2.038   1.798
13866WAT     H241841   5.747   1.900   1.861
13867WAT      O41842   4.822   4.489   5.129
13867WAT     H141843   4.760   4.507   5.053
13867WAT     H241844   4.897   4.555   5.127
13868WAT      O41845   1.566   1.546   5.026
13868WAT     H141846   1.499   1.618   5.043
13868WAT     H241847   1.546   1.468   5.086
13869WAT      O41848   7.982   6.180   3.681
13869WAT     H141849   8.010   6.118   3.608
13869WAT     H241850   7.892   6.154   3.714
13870WAT      O41851   9.340   9.752   1.376
13870WAT     H141852   9.307   9.657   1.371
13870WAT     H241853   9.396   9.764   1.459
13871WAT      O41854   7.793   8.118   6.300
13871WAT     H141855   7.866   8.110   6.232
13871WAT     H241856   7.732   8.194   6.276
13872WAT      O41857   0.711   5.509   7.128
13872WAT     H141858   0.694   5.419   7.088
13872WAT     H241859   0.632   5.568   7.111
13873WAT      O41860   4.782   1.675   0.633
13873WAT     H141861   4.876   1.644   0.649
13873WAT     H241862   4.721   1.596   0.631
13874WAT      O41863   8.979   1.695   2.904
13874WAT     H141864   8.991   1.774   2.843
13874WAT     H241865   8.953   1.615   2.849
13875WAT      O41866   5.489   1.667   9.180
13875WAT     H141867   5.547   1.613   9.119
13875WAT     H241868   5.442   1.606   9.244
13876WAT      O41869   6.725   0.613   1.763
13876WAT     H141870   6.767   0.523   1.753
13876WAT     H241871   6.696   0.647   1.673
13877WAT      O41872   1.832   6.221   8.923
13877WAT     H141873   1.752   6.162   8.938
13877WAT     H241874   1.914   6.175   8.957
13878WAT      O41875   8.110   1.600   1.873
13878WAT     H141876   8.012   1.604   1.890
13878WAT     H241877   8.149   1.692   1.878
13879WAT      O41878   5.772   5.353   1.590
13879WAT     H141879   5.801   5.314   1.678
13879WAT     H241880   5.672   5.354   1.587
13880WAT      O41881   8.792   1.263   3.690
13880WAT     H141882   8.841   1.322   3.626
13880WAT     H241883   8.846   1.180   3.707
13881WAT      O41884   4.741   4.362   8.581
13881WAT     H141885   4.805   4.293   8.615
13881WAT     H241886   4.649   4.324   8.578
13882WAT      O41887   3.305   6.146   1.208
13882WAT     H141888   3.300   6.062   1.155
13882WAT     H241889   3.222   6.200   1.194
13883WAT      O41890   8.587   3.823   8.145
13883WAT     H141891   8.578   3.834   8.046
13883WAT     H241892   8.682   3.802   8.168
13884WAT      O41893   6.686   2.571   2.729
13884WAT     H141894   6.600   2.546   2.684
13884WAT     H241895   6.746   2.491   2.734
13885WAT      O41896   5.259   1.722   4.910
13885WAT     H141897   5.208   1.774   4.979
13885WAT     H241898   5.346   1.691   4.949
13886WAT      O41899   3.331   9.689   6.678
13886WAT     H141900   3.272   9.701   6.758
13886WAT     H241901   3.394   9.613   6.693
13887WAT      O41902   8.261   7.616   8.043
13887WAT     H141903   8.313   7.563   8.110
13887WAT     H241904   8.166   7.584   8.042
13888WAT      O41905   1.163   5.508   3.095
13888WAT     H141906   1.172   5.447   3.017
13888WAT     H241907   1.195   5.461   3.178
13889WAT      O41908   6.963   8.036   4.733
13889WAT     H141909   7.001   8.005   4.820
13889WAT     H241910   7.008   7.989   4.658
13890WAT      O41911   7.282   0.683   2.726
13890WAT     H141912   7.339   0.601   2.728
13890WAT     H241913   7.301   0.735   2.643
13891WAT      O41914   6.774   7.124   7.845
13891WAT     H141915   6.853   7.180   7.869
13891WAT     H241916   6.801   7.054   7.779
13892WAT      O41917   9.575   2.949   7.278
13892WAT     H141918   9.488   2.970   7.234
13892WAT     H241919   9.646   2.936   7.208
13893WAT      O41920   5.172   6.021   4.225
13893WAT     H141921   5.122   6.051   4.306
13893WAT     H241922   5.108   5.992   4.154
13894WAT      O41923   4.412   1.764   5.556
13894WAT     H141924   4.340   1.806   5.500
13894WAT     H241925   4.413   1.807   5.647
13895WAT      O41926   1.671   5.996   6.765
13895WAT     H141927   1.593   6.051   6.736
13895WAT     H241928   1.645   5.940   6.843
13896WAT      O41929   8.782   7.983   5.280
13896WAT     H141930   8.856   7.974   5.214
13896WAT     H241931   8.757   7.893   5.315
13897WAT      O41932   1.545   8.682   7.508
13897WAT     H141933   1.561   8.781   7.508
13897WAT     H241934   1.448   8.664   7.520
13898WAT      O41935   3.135   5.422   4.241
13898WAT     H141936   3.044   5.451   4.213
13898WAT     H241937   3.166   5.347   4.183
13899WAT      O41938   8.048   4.634   7.452
13899WAT     H141939   8.035   4.725   7.493
13899WAT     H241940   7.963   4.606   7.407
13900WAT      O41941   3.141   7.039   8.965
13900WAT     H141942   3.059   7.005   9.011
13900WAT     H241943   3.215   6.973   8.976
13901WAT      O41944   4.433   8.060   4.555
13901WAT     H141945   4.497   7.993   4.517
13901WAT     H241946   4.447   8.148   4.510
13902WAT      O41947   3.539   4.925   8.727
13902WAT     H141948   3.611   4.994   8.724
13902WAT     H241949   3.517   4.897   8.634
13903WAT      O41950   8.873   6.232   4.224
13903WAT     H141951   8.915   6.149   4.187
13903WAT     H241952   8.833   6.212   4.313
13904WAT      O41953   9.476   7.947   3.384
13904WAT     H141954   9.496   7.849   3.377
13904WAT     H241955   9.552   7.994   3.428
13905WAT      O41956   6.090   0.997   2.498
13905WAT     H141957   6.156   0.925   2.520
13905WAT     H241958   6.101   1.022   2.401
13906WAT      O41959   6.035   9.313   7.322
13906WAT     H141960   6.050   9.289   7.418
13906WAT     H241961   6.121   9.344   7.282
13907WAT      O41962   6.524   6.960   1.591
13907WAT     H141963   6.466   7.035   1.559
13907WAT     H241964   6.620   6.989   1.588
13908WAT      O41965   7.261   7.906   9.267
13908WAT     H141966   7.247   7.811   9.239
13908WAT     H241967   7.252   7.966   9.188
13909WAT      O41968   6.299   1.052   9.571
13909WAT     H141969   6.327   1.075   9.665
13909WAT     H241970   6.214   1.000   9.574
13910WAT      O41971   7.381   4.061   5.753
13910WAT     H141972   7.300   4.073   5.696
13910WAT     H241973   7.354   4.039   5.846
13911WAT      O41974   8.376   1.984   6.060
13911WAT     H141975   8.412   2.069   6.022
13911WAT     H241976   8.390   1.909   5.995
13912WAT      O41977   8.533   2.905   5.995
13912WAT     H141978   8.613   2.845   6.002
13912WAT     H241979   8.559   2.991   5.952
13913WAT      O41980   4.082   9.614   1.770
13913WAT     H141981   3.984   9.597   1.760
13913WAT     H241982   4.104   9.703   1.732
13914WAT      O41983   0.395   7.222   1.753
13914WAT     H141984   0.385   7.185   1.845
13914WAT     H241985   0.450   7.306   1.757
13915WAT      O41986   3.665   4.262   5.081
13915WAT     H141987   3.585   4.218   5.123
13915WAT     H241988   3.723   4.193   5.039
13916WAT      O41989   5.801   3.852   1.512
13916WAT     H141990   5.881   3.894   1.469
13916WAT     H241991   5.743   3.811   1.441
13917WAT      O41992   1.191   1.248   5.141
13917WAT     H141993   1.220   1.344   5.143
13917WAT     H241994   1.105   1.238   5.190
13918WAT      O41995   3.487   7.104   9.583
13918WAT     H141996   3.415   7.163   9.547
13918WAT     H241997   3.535   7.151   9.657
13919WAT      O41998   5.369   1.223   4.504
13919WAT     H141999   5.346   1.128   4.527
13919WAT     H242000   5.330   1.246   4.415
13920WAT      O42001   7.574   7.599   2.699
13920WAT     H142002   7.638   7.655   2.752
13920WAT     H242003   7.536   7.654   2.624
13921WAT      O42004   3.192   5.428   5.471
13921WAT     H142005   3.225   5.436   5.377
13921WAT     H242006   3.106   5.477   5.481
13922WAT      O42007   0.870   6.458   9.480
13922WAT     H142008   0.878   6.448   9.579
13922WAT     H242009   0.913   6.379   9.435
13923WAT      O42010   0.657   2.044   6.222
13923WAT     H142011   0.748   2.085   6.230
13923WAT     H242012   0.601   2.070   6.300
13924WAT      O42013   4.642   5.895   7.578
13924WAT     H142014   4.662   5.873   7.674
13924WAT     H242015   4.592   5.819   7.536
13925WAT      O42016   1.580   6.503   4.698
13925WAT     H142017   1.655   6.527   4.760
13925WAT     H242018   1.606   6.527   4.604
13926WAT      O42019   3.014   1.143   5.489
13926WAT     H142020   2.930   1.188   5.458
13926WAT     H242021   3.082   1.212   5.515
13927WAT      O42022   7.465   3.266   2.794
13927WAT     H142023   7.367   3.250   2.804
13927WAT     H242024   7.497   3.228   2.707
13928WAT      O42025   1.062   0.645   1.701
13928WAT     H142026   1.103   0.573   1.646
13928WAT     H242027   1.054   0.615   1.796
13929WAT      O42028   1.111   8.002   2.042
13929WAT     H142029   1.144   8.092   2.070
13929WAT     H242030   1.096   8.002   1.943
13930WAT      O42031   3.521   2.634   4.796
13930WAT     H142032   3.465   2.577   4.736
13930WAT     H242033   3.551   2.580   4.875
13931WAT      O42034   0.314   0.045   0.048
13931WAT     H142035   0.295  -0.050   0.073
13931WAT     H242036   0.375   0.086   0.116
13932WAT      O42037   8.614   6.748   2.608
13932WAT     H142038   8.674   6.730   2.686
13932WAT     H242039   8.520   6.759   2.640
13933WAT      O42040   5.729   3.182   8.157
13933WAT     H142041   5.727   3.119   8.079
13933WAT     H242042   5.757   3.272   8.125
13934WAT      O42043   7.944   4.453   5.624
13934WAT     H142044   8.013   4.384   5.643
13934WAT     H242045   7.922   4.453   5.527
13935WAT      O42046   1.399   2.126   8.836
13935WAT     H142047   1.485   2.124   8.888
13935WAT     H242048   1.387   2.038   8.790
13936WAT      O42049   6.032   0.596   7.675
13936WAT     H142050   6.044   0.554   7.765
13936WAT     H242051   5.987   0.684   7.684
13937WAT      O42052   4.567   6.759   5.235
13937WAT     H142053   4.562   6.756   5.334
13937WAT     H242054   4.495   6.818   5.199
13938WAT      O42055   4.816   2.562   9.767
13938WAT     H142056   4.741   2.583   9.705
13938WAT     H242057   4.891   2.625   9.751
13939WAT      O42058   4.632   7.682   8.127
13939WAT     H142059   4.713   7.654   8.179
13939WAT     H242060   4.554   7.692   8.190
13940WAT      O42061   7.283   4.778   6.023
13940WAT     H142062   7.318   4.871   6.036
13940WAT     H242063   7.349   4.713   6.059
13941WAT      O42064   9.088   9.724   6.928
13941WAT     H142065   9.051   9.635   6.901
13941WAT     H242066   9.147   9.713   7.007
13942WAT      O42067   4.500   1.235   4.656
13942WAT     H142068   4.586   1.182   4.657
13942WAT     H242069   4.437   1.196   4.723
13943WAT      O42070   0.174   2.416   7.602
13943WAT     H142071   0.156   2.489   7.536
13943WAT     H242072   0.138   2.330   7.567
13944WAT      O42073   7.228   0.653   9.294
13944WAT     H142074   7.168   0.696   9.226
13944WAT     H242075   7.274   0.574   9.254
13945WAT      O42076   8.241   6.612   0.669
13945WAT     H142077   8.247   6.586   0.765
13945WAT     H242078   8.266   6.709   0.659
13946WAT      O42079   4.450   4.365   4.836
13946WAT     H142080   4.544   4.382   4.807
13946WAT     H242081   4.389   4.371   4.757
13947WAT      O42082   4.513   6.990   1.295
13947WAT     H142083   4.416   6.967   1.306
13947WAT     H242084   4.568   6.907   1.301
13948WAT      O42085   6.939   3.148   9.870
13948WAT     H142086   6.911   3.243   9.884
13948WAT     H242087   6.985   3.114   9.952
13949WAT      O42088   5.695   5.568   2.166
13949WAT     H142089   5.726   5.661   2.148
13949WAT     H242090   5.756   5.503   2.121
13950WAT      O42091   9.481   2.315   4.346
13950WAT     H142092   9.444   2.265   4.424
13950WAT     H242093   9.505   2.251   4.273
13951WAT      O42094   5.127   9.267   8.527
13951WAT     H142095   5.159   9.174   8.505
13951WAT     H242096   5.144   9.285   8.624
13952WAT      O42097   6.374   6.739   8.480
13952WAT     H142098   6.353   6.677   8.404
13952WAT     H242099   6.311   6.721   8.555
13953WAT      O42100   8.120   1.152   9.496
13953WAT     H142101   8.060   1.072   9.488
13953WAT     H242102   8.202   1.138   9.442
13954WAT      O42103   1.216   7.707   7.817
13954WAT     H142104   1.254   7.750   7.735
13954WAT     H242105   1.202   7.609   7.799
13955WAT      O42106   5.796   0.231   0.943
13955WAT     H142107   5.742   0.148   0.956
13955WAT     H242108   5.766   0.301   1.008
13956WAT      O42109   7.331   5.649   2.259
13956WAT     H142110   7.241   5.623   2.295
13956WAT     H242111   7.338   5.621   2.163
13957WAT      O42112   5.621   7.026   5.286
13957WAT     H142113   5.531   7.053   5.320
13957WAT     H242114   5.644   6.935   5.320
13958WAT      O42115   7.756   0.523   8.975
13958WAT     H142116   7.735   0.427   8.961
13958WAT     H242117   7.763   0.569   8.886
13959WAT      O42118   6.206   4.169   5.521
13959WAT     H142119   6.219   4.190   5.424
13959WAT     H242120   6.164   4.247   5.567
13960WAT      O42121   6.066   0.638   8.579
13960WAT     H142122   5.983   0.637   8.635
13960WAT     H242123   6.134   0.576   8.619
13961WAT      O42124   9.802   0.265   1.597
13961WAT     H142125   9.814   0.219   1.509
13961WAT     H242126   9.710   0.247   1.632
13962WAT      O42127   2.136   0.981   4.498
13962WAT     H142128   2.175   0.896   4.465
13962WAT     H242129   2.075   0.962   4.575
13963WAT      O42130   4.781   6.275   6.765
13963WAT     H142131   4.803   6.314   6.675
13963WAT     H242132   4.796   6.176   6.762
13964WAT      O42133   0.634   1.918   9.760
13964WAT     H142134   0.703   1.968   9.708
13964WAT     H242135   0.557   1.978   9.779
13965WAT      O42136   1.988   6.964   0.874
13965WAT     H142137   1.978   6.996   0.968
13965WAT     H242138   2.002   6.864   0.874
13966WAT      O42139   3.489   8.524   8.060
13966WAT     H142140   3.426   8.596   8.032
13966WAT     H242141   3.561   8.562   8.118
13967WAT      O42142   5.595   4.207   2.316
13967WAT     H142143   5.515   4.248   2.271
13967WAT     H242144   5.618   4.262   2.396
13968WAT      O42145   4.648   9.514   0.039
13968WAT     H142146   4.569   9.554   0.084
13968WAT     H242147   4.705   9.586   0.000
13969WAT      O42148   8.500   0.616   7.917
13969WAT     H142149   8.573   0.627   7.850
13969WAT     H242150   8.533   0.645   8.007
13970WAT      O42151   0.200   1.733   1.799
13970WAT     H142152   0.219   1.635   1.800
13970WAT     H242153   0.175   1.763   1.891
13971WAT      O42154   3.330   6.737   1.196
13971WAT     H142155   3.386   6.787   1.129
13971WAT     H242156   3.330   6.787   1.283
13972WAT      O42157   2.192   4.752   6.772
13972WAT     H142158   2.279   4.702   6.768
13972WAT     H242159   2.140   4.735   6.689
13973WAT      O42160   1.247   9.583   4.621
13973WAT     H142161   1.225   9.672   4.661
13973WAT     H242162   1.345   9.575   4.608
13974WAT      O42163   3.482   6.642   7.416
13974WAT     H142164   3.475   6.565   7.353
13974WAT     H242165   3.400   6.698   7.409
13975WAT      O42166   4.691   6.025   0.170
13975WAT     H142167   4.772   6.039   0.227
13975WAT     H242168   4.636   6.109   0.168
13976WAT      O42169   4.512   1.879   0.301
13976WAT     H142170   4.480   1.908   0.211
13976WAT     H242171   4.443   1.819   0.343
13977WAT      O42172   8.035   0.135   4.885
13977WAT     H142173   8.081   0.202   4.943
13977WAT     H242174   7.941   0.122   4.917
13978WAT      O42175   8.363   0.218   5.630
13978WAT     H142176   8.336   0.314   5.633
13978WAT     H242177   8.415   0.195   5.712
13979WAT      O42178   4.462   1.601   8.882
13979WAT     H142179   4.467   1.673   8.951
13979WAT     H242180   4.538   1.611   8.818
13980WAT      O42181   4.784   5.714   3.374
13980WAT     H142182   4.688   5.687   3.385
13980WAT     H242183   4.802   5.735   3.279
13981WAT      O42184   9.158   3.961   5.926
13981WAT     H142185   9.109   3.932   5.844
13981WAT     H242186   9.131   3.904   6.003
13982WAT      O42187   2.580   0.855   9.507
13982WAT     H142188   2.501   0.853   9.446
13982WAT     H242189   2.562   0.796   9.586
13983WAT      O42190   4.365   2.349   8.829
13983WAT     H142191   4.356   2.252   8.809
13983WAT     H242192   4.405   2.361   8.920
13984WAT      O42193   3.119   8.352   4.485
13984WAT     H142194   3.171   8.268   4.469
13984WAT     H242195   3.121   8.376   4.582
13985WAT      O42196   4.350   6.499   7.162
13985WAT     H142197   4.252   6.492   7.184
13985WAT     H242198   4.400   6.428   7.212
13986WAT      O42199   7.414   8.321   1.987
13986WAT     H142200   7.378   8.414   1.994
13986WAT     H242201   7.354   8.258   2.035
13987WAT      O42202   8.348   7.858   9.008
13987WAT     H142203   8.396   7.864   8.921
13987WAT     H242204   8.277   7.789   9.002
13988WAT      O42205   5.705   4.752   5.643
13988WAT     H142206   5.607   4.739   5.663
13988WAT     H242207   5.757   4.743   5.728
13989WAT      O42208   6.033   4.643   8.314
13989WAT     H142209   6.070   4.727   8.355
13989WAT     H242210   6.004   4.581   8.387
13990WAT      O42211   0.159   5.395   4.781
13990WAT     H142212   0.092   5.391   4.855
13990WAT     H242213   0.240   5.444   4.813
13991WAT      O42214   3.233   0.650   5.584
13991WAT     H142215   3.223   0.745   5.615
13991WAT     H242216   3.302   0.604   5.641
13992WAT      O42217   1.592   5.184   6.594
13992WAT     H142218   1.516   5.172   6.657
13992WAT     H242219   1.657   5.108   6.606
13993WAT      O42220   0.713   6.900   5.930
13993WAT     H142221   0.619   6.915   5.900
13993WAT     H242222   0.772   6.973   5.894
13994WAT      O42223   5.846   6.735   2.008
13994WAT     H142224   5.922   6.707   2.067
13994WAT     H242225   5.790   6.803   2.055
13995WAT      O42226   2.156   3.993   5.816
13995WAT     H142227   2.242   4.008   5.767
13995WAT     H242228   2.163   4.030   5.909
13996WAT      O42229   8.330   7.282   3.561
13996WAT     H142230   8.258   7.285   3.631
13996WAT     H242231   8.404   7.343   3.587
13997WAT      O42232   9.145   4.661   3.561
13997WAT     H142233   9.183   4.753   3.570
13997WAT     H242234   9.053   4.666   3.522
13998WAT      O42235   3.680   9.790   3.384
13998WAT     H142236   3.657   9.846   3.304
13998WAT     H242237   3.779   9.788   3.396
13999WAT      O42238   6.231   6.083   6.522
13999WAT     H142239   6.251   5.986   6.513
13999WAT     H242240   6.177   6.099   6.605
14000WAT      O42241   7.980   6.382   6.277
14000WAT     H142242   7.910   6.450   6.257
14000WAT     H242243   7.936   6.299   6.313
14001WAT      O42244   0.462   6.616   1.883
14001WAT     H142245   0.397   6.690   1.865
14001WAT     H242246   0.550   6.656   1.909
14002WAT      O42247   2.464   4.759   4.624
14002WAT     H142248   2.523   4.730   4.549
14002WAT     H242249   2.516   4.760   4.709
14003WAT      O42250   6.969   4.119   0.086
14003WAT     H142251   7.066   4.142   0.079
14003WAT     H242252   6.943   4.062   0.009
14004WAT      O42253   0.088   1.818   6.363
14004WAT     H142254   0.087   1.787   6.268
14004WAT     H242255   0.024   1.763   6.417
14005WAT      O42256   8.710   3.400   6.230
14005WAT     H142257   8.775   3.326   6.214
14005WAT     H242258   8.626   3.362   6.268
14006WAT      O42259   3.843   0.754   6.812
14006WAT     H142260   3.777   0.738   6.885
14006WAT     H242261   3.929   0.707   6.834
14007WAT      O42262   6.363   6.540   2.362
14007WAT     H142263   6.329   6.547   2.456
14007WAT     H242264   6.331   6.453   2.323
14008WAT      O42265   1.911   9.307   0.815
14008WAT     H142266   1.909   9.213   0.780
14008WAT     H242267   1.829   9.355   0.785
14009WAT      O42268   0.685   1.519   8.136
14009WAT     H142269   0.603   1.463   8.126
14009WAT     H242270   0.673   1.583   8.212
14010WAT      O42271   0.280   1.944   5.745
14010WAT     H142272   0.361   2.003   5.749
14010WAT     H242273   0.203   1.989   5.789
14011WAT      O42274   7.258   0.397   1.928
14011WAT     H142275   7.233   0.333   1.854
14011WAT     H242276   7.348   0.374   1.962
14012WAT      O42277   6.950   7.043   6.052
14012WAT     H142278   6.961   7.115   6.121
14012WAT     H242279   6.861   7.052   6.008
14013WAT      O42280   6.882   3.732   2.900
14013WAT     H142281   6.938   3.769   2.975
14013WAT     H242282   6.941   3.709   2.823
14014WAT      O42283   0.431   1.353   5.842
14014WAT     H142284   0.337   1.373   5.814
14014WAT     H242285   0.442   1.369   5.940
14015WAT      O42286   7.946   2.903   8.984
14015WAT     H142287   8.021   2.841   8.962
14015WAT     H242288   7.914   2.949   8.901
14016WAT      O42289   0.532   7.289   5.741
14016WAT     H142290   0.459   7.232   5.776
14016WAT     H242291   0.500   7.340   5.661
14017WAT      O42292   9.438   6.466   4.210
14017WAT     H142293   9.410   6.456   4.305
14017WAT     H242294   9.533   6.496   4.206
14018WAT      O42295   4.569   3.592   5.888
14018WAT     H142296   4.598   3.684   5.914
14018WAT     H242297   4.556   3.537   5.970
14019WAT      O42298   8.479   4.131   5.814
14019WAT     H142299   8.403   4.108   5.753
14019WAT     H242300   8.554   4.068   5.799
14020WAT      O42301   6.049   1.260   4.395
14020WAT     H142302   5.953   1.256   4.422
14020WAT     H242303   6.067   1.347   4.349
14021WAT      O42304   0.316   0.811   9.767
14021WAT     H142305   0.338   0.888   9.708
14021WAT     H242306   0.359   0.728   9.731
14022WAT      O42307   2.725   4.089   9.625
14022WAT     H142308   2.642   4.145   9.626
14022WAT     H242309   2.778   4.107   9.708
14023WAT      O42310   1.357   4.871   5.754
14023WAT     H142311   1.383   4.842   5.661
14023WAT     H242312   1.422   4.834   5.820
14024WAT      O42313   6.706   8.595   0.381
14024WAT     H142314   6.648   8.519   0.408
14024WAT     H242315   6.727   8.588   0.283
14025WAT      O42316   7.034   4.524   9.336
14025WAT     H142317   6.973   4.569   9.271
14025WAT     H242318   7.008   4.548   9.429
14026WAT      O42319   7.040   5.250   9.383
14026WAT     H142320   6.994   5.328   9.425
14026WAT     H242321   7.103   5.209   9.449
14027WAT      O42322   0.502   7.611   5.953
14027WAT     H142323   0.506   7.641   5.858
14027WAT     H242324   0.566   7.536   5.967
14028WAT      O42325   2.561   4.251   3.343
14028WAT     H142326   2.626   4.267   3.417
14028WAT     H242327   2.610   4.253   3.255
14029WAT      O42328   4.448   7.417   6.241
14029WAT     H142329   4.488   7.381   6.325
14029WAT     H242330   4.371   7.477   6.264
14030WAT      O42331   8.681   5.788   5.345
14030WAT     H142332   8.744   5.847   5.294
14030WAT     H242333   8.633   5.842   5.414
14031WAT      O42334   1.901   8.483   8.952
14031WAT     H142335   1.920   8.502   8.855
14031WAT     H242336   1.868   8.389   8.962
14032WAT      O42337   0.605   1.353   9.873
14032WAT     H142338   0.513   1.384   9.899
14032WAT     H242339   0.647   1.306   9.950
14033WAT      O42340   7.357   4.743   8.411
14033WAT     H142341   7.335   4.803   8.334
14033WAT     H242342   7.284   4.750   8.480
14034WAT      O42343   2.460   0.227   0.220
14034WAT     H142344   2.379   0.252   0.166
14034WAT     H242345   2.470   0.128   0.219
14035WAT      O42346   9.807   2.926   7.705
14035WAT     H142347   9.844   2.836   7.730
14035WAT     H242348   9.838   2.951   7.613
14036WAT      O42349   1.309   2.344   1.501
14036WAT     H142350   1.236   2.305   1.444
14036WAT     H242351   1.299   2.311   1.595
14037WAT      O42352   7.368   1.903   7.563
14037WAT     H142353   7.339   1.982   7.508
14037WAT     H242354   7.298   1.832   7.558
14038WAT      O42355   7.075   9.722   5.950
14038WAT     H142356   7.096   9.672   6.034
14038WAT     H242357   7.040   9.658   5.882
14039WAT      O42358   6.923   7.715   8.104
14039WAT     H142359   6.879   7.683   8.020
14039WAT     H242360   6.868   7.789   8.144
14040WAT      O42361   4.991   9.262   4.923
14040WAT     H142362   5.053   9.302   4.989
14040WAT     H242363   5.008   9.300   4.832
14041WAT      O42364   2.761   7.240   0.396
14041WAT     H142365   2.754   7.141   0.382
14041WAT     H242366   2.849   7.272   0.362
14042WAT      O42367   7.734   1.521   8.916
14042WAT     H142368   7.774   1.578   8.987
14042WAT     H242369   7.637   1.508   8.935
14043WAT      O42370   2.328   1.458   2.532
14043WAT     H142371   2.280   1.376   2.561
14043WAT     H242372   2.280   1.539   2.566
14044WAT      O42373   7.653   9.634   2.230
14044WAT     H142374   7.681   9.596   2.318
14044WAT     H242375   7.644   9.561   2.163
14045WAT      O42376   8.921   3.792   1.180
14045WAT     H142377   8.832   3.748   1.168
14045WAT     H242378   8.993   3.731   1.149
14046WAT      O42379   5.694   0.687   6.914
14046WAT     H142380   5.597   0.700   6.898
14046WAT     H242381   5.708   0.629   6.995
14047WAT      O42382   8.721   1.293   0.594
14047WAT     H142383   8.776   1.366   0.635
14047WAT     H242384   8.704   1.314   0.498
14048WAT      O42385   4.703   2.046   3.459
14048WAT     H142386   4.728   2.086   3.547
14048WAT     H242387   4.766   1.971   3.436
14049WAT      O42388   7.154   9.663   3.932
14049WAT     H142389   7.148   9.732   4.005
14049WAT     H242390   7.063   9.628   3.912
14050WAT      O42391   4.391   3.099   3.131
14050WAT     H142392   4.464   3.077   3.066
14050WAT     H242393   4.304   3.067   3.095
14051WAT      O42394   3.687   4.387   8.097
14051WAT     H142395   3.756   4.369   8.027
14051WAT     H242396   3.693   4.315   8.167
14052WAT      O42397   0.748   6.762   3.217
14052WAT     H142398   0.749   6.679   3.162
14052WAT     H242399   0.837   6.807   3.213
14053WAT      O42400   4.714   3.681   7.040
14053WAT     H142401   4.752   3.676   6.948
14053WAT     H242402   4.619   3.713   7.035
14054WAT      O42403   6.643   1.325   0.495
14054WAT     H142404   6.737   1.337   0.464
14054WAT     H242405   6.644   1.291   0.590
14055WAT      O42406   5.357   3.060   0.352
14055WAT     H142407   5.371   3.048   0.450
14055WAT     H242408   5.273   3.112   0.336
14056WAT      O42409   5.360   3.585   0.212
14056WAT     H142410   5.438   3.605   0.153
14056WAT     H242411   5.304   3.668   0.223
14057WAT      O42412   6.969   0.451   1.201
14057WAT     H142413   7.005   0.364   1.166
14057WAT     H242414   7.035   0.491   1.264
14058WAT      O42415   3.902   5.020   6.286
14058WAT     H142416   3.955   5.099   6.255
14058WAT     H242417   3.841   5.049   6.359
14059WAT      O42418   8.417   3.234   7.750
14059WAT     H142419   8.325   3.268   7.730
14059WAT     H242420   8.419   3.134   7.739
14060WAT      O42421   4.072   1.744   8.228
14060WAT     H142422   4.004   1.685   8.271
14060WAT     H242423   4.032   1.785   8.146
14061WAT      O42424   3.232   2.634   0.970
14061WAT     H142425   3.146   2.627   0.919
14061WAT     H242426   3.215   2.612   1.066
14062WAT      O42427   0.048   1.202   9.519
14062WAT     H142428  -0.004   1.263   9.579
14062WAT     H242429  -0.016   1.149   9.463
14063WAT      O42430   4.483   4.650   7.436
14063WAT     H142431   4.557   4.605   7.387
14063WAT     H242432   4.433   4.582   7.491
14064WAT      O42433   8.190   2.212   6.222
14064WAT     H142434   8.224   2.306   6.212
14064WAT     H242435   8.262   2.148   6.197
14065WAT      O42436   1.564   9.605   6.358
14065WAT     H142437   1.574   9.690   6.305
14065WAT     H242438   1.505   9.542   6.308
14066WAT      O42439   3.848   0.725   3.372
14066WAT     H142440   3.775   0.740   3.439
14066WAT     H242441   3.809   0.729   3.280
14067WAT      O42442   3.546   4.501   0.873
14067WAT     H142443   3.473   4.486   0.807
14067WAT     H242444   3.508   4.508   0.965
14068WAT      O42445   2.567   9.806   4.265
14068WAT     H142446   2.502   9.735   4.291
14068WAT     H242447   2.570   9.813   4.165
14069WAT      O42448   8.516   2.811   8.775
14069WAT     H142449   8.462   2.894   8.781
14069WAT     H242450   8.561   2.807   8.686
14070WAT      O42451   4.255   3.761   9.516
14070WAT     H142452   4.186   3.793   9.580
14070WAT     H242453   4.268   3.829   9.444
14071WAT      O42454   4.494   3.370   9.514
14071WAT     H142455   4.459   3.372   9.420
14071WAT     H242456   4.457   3.447   9.566
14072WAT      O42457   6.095   4.475   0.480
14072WAT     H142458   6.155   4.544   0.518
14072WAT     H242459   6.026   4.450   0.548
14073WAT      O42460   2.866   8.193   4.419
14073WAT     H142461   2.809   8.144   4.353
14073WAT     H242462   2.922   8.261   4.371
14074WAT      O42463   4.327   7.845   3.731
14074WAT     H142464   4.247   7.900   3.710
14074WAT     H242465   4.314   7.752   3.696
14075WAT      O42466   0.563   1.853   7.299
14075WAT     H142467   0.529   1.908   7.223
14075WAT     H242468   0.661   1.836   7.287
14076WAT      O42469   3.436   5.131   1.007
14076WAT     H142470   3.374   5.108   0.932
14076WAT     H242471   3.529   5.142   0.971
14077WAT      O42472   2.481   2.934   3.598
14077WAT     H142473   2.454   2.855   3.653
14077WAT     H242474   2.400   2.988   3.575
14078WAT      O42475   5.567   7.654   0.424
14078WAT     H142476   5.665   7.671   0.415
14078WAT     H242477   5.520   7.740   0.445
14079WAT      O42478   8.859   8.098   1.045
14079WAT     H142479   8.811   8.040   0.978
14079WAT     H242480   8.882   8.185   1.003
14080WAT      O42481   8.701   7.820   1.861
14080WAT     H142482   8.738   7.768   1.938
14080WAT     H242483   8.603   7.800   1.851
14081WAT      O42484   3.807   3.995   5.554
14081WAT     H142485   3.854   3.990   5.642
14081WAT     H242486   3.715   3.957   5.563
14082WAT      O42487   5.845   8.050   2.384
14082WAT     H142488   5.792   8.002   2.455
14082WAT     H242489   5.935   8.074   2.421
14083WAT      O42490   1.483   2.906   6.314
14083WAT     H142491   1.489   2.823   6.259
14083WAT     H242492   1.574   2.932   6.346
14084WAT      O42493   6.720   1.393   4.716
14084WAT     H142494   6.631   1.352   4.735
14084WAT     H242495   6.790   1.347   4.769
14085WAT      O42496   7.651   9.628   8.591
14085WAT     H142497   7.595   9.588   8.663
14085WAT     H242498   7.745   9.641   8.624
14086WAT      O42499   3.233   1.986   0.479
14086WAT     H142500   3.133   1.982   0.485
14086WAT     H242501   3.260   2.011   0.386
14087WAT      O42502   1.137   2.384   4.006
14087WAT     H142503   1.136   2.388   4.106
14087WAT     H242504   1.128   2.477   3.969
14088WAT      O42505   4.807   7.313   0.856
14088WAT     H142506   4.738   7.312   0.927
14088WAT     H242507   4.897   7.293   0.895
14089WAT      O42508   8.661   1.674   0.549
14089WAT     H142509   8.572   1.640   0.519
14089WAT     H242510   8.724   1.597   0.558
14090WAT      O42511   1.435   2.034   2.534
14090WAT     H142512   1.389   2.056   2.621
14090WAT     H242513   1.518   1.982   2.553
14091WAT      O42514   0.619   3.940   9.838
14091WAT     H142515   0.649   3.884   9.914
14091WAT     H242516   0.689   4.010   9.819
14092WAT      O42517   3.428   4.013   8.200
14092WAT     H142518   3.360   3.947   8.232
14092WAT     H242519   3.391   4.105   8.209
14093WAT      O42520   7.042   4.783   5.007
14093WAT     H142521   7.023   4.704   4.949
14093WAT     H242522   6.975   4.789   5.081
14094WAT      O42523   9.013   7.788   0.828
14094WAT     H142524   9.075   7.756   0.900
14094WAT     H242525   9.036   7.742   0.742
14095WAT      O42526   1.831   4.937   1.962
14095WAT     H142527   1.842   5.037   1.956
14095WAT     H242528   1.845   4.897   1.871
14096WAT      O42529   2.714   3.588   6.302
14096WAT     H142530   2.623   3.603   6.265
14096WAT     H242531   2.765   3.673   6.302
14097WAT      O42532   6.138   0.474   7.892
14097WAT     H142533   6.144   0.442   7.987
14097WAT     H242534   6.193   0.557   7.881
14098WAT      O42535   7.202   4.443   6.758
14098WAT     H142536   7.130   4.484   6.815
14098WAT     H242537   7.182   4.460   6.662
14099WAT      O42538   3.779   6.616   3.552
14099WAT     H142539   3.737   6.541   3.603
14099WAT     H242540   3.854   6.655   3.605
14100WAT      O42541   4.274   0.969   6.756
14100WAT     H142542   4.371   0.967   6.778
14100WAT     H242543   4.227   1.033   6.817
14101WAT      O42544   2.319   4.194   8.822
14101WAT     H142545   2.220   4.181   8.835
14101WAT     H242546   2.352   4.260   8.888
14102WAT      O42547   6.685   3.853   8.740
14102WAT     H142548   6.706   3.907   8.659
14102WAT     H242549   6.692   3.910   8.822
14103WAT      O42550   3.149   0.683   3.625
14103WAT     H142551   3.247   0.687   3.609
14103WAT     H242552   3.126   0.596   3.670
14104WAT      O42553   1.342   6.780   2.375
14104WAT     H142554   1.292   6.773   2.289
14104WAT     H242555   1.379   6.873   2.384
14105WAT      O42556   6.994   3.339   5.924
14105WAT     H142557   7.084   3.345   5.968
14105WAT     H242558   6.932   3.286   5.982
14106WAT      O42559   2.989   5.739   4.644
14106WAT     H142560   3.037   5.819   4.608
14106WAT     H242561   2.916   5.712   4.582
14107WAT      O42562   3.390   2.361   9.196
14107WAT     H142563   3.431   2.298   9.129
14107WAT     H242564   3.448   2.365   9.277
14108WAT      O42565   8.421   8.894   5.097
14108WAT     H142566   8.351   8.964   5.090
14108WAT     H242567   8.437   8.854   5.007
14109WAT      O42568   3.328   7.230   6.051
14109WAT     H142569   3.358   7.246   6.145
14109WAT     H242570   3.388   7.280   5.988
14110WAT      O42571   7.295   6.378   9.068
14110WAT     H142572   7.359   6.304   9.089
14110WAT     H242573   7.206   6.340   9.046
14111WAT      O42574   0.138   0.390   0.434
14111WAT     H142575   0.095   0.480   0.425
14111WAT     H242576   0.086   0.322   0.381
14112WAT      O42577   0.660   7.579   4.657
14112WAT     H142578   0.597   7.501   4.661
14112WAT     H242579   0.702   7.583   4.566
14113WAT      O42580   6.593   0.131   0.439
14113WAT     H142581   6.540   0.067   0.383
14113WAT     H242582   6.546   0.219   0.442
14114WAT      O42583   6.999   8.232   2.741
14114WAT     H142584   7.028   8.156   2.684
14114WAT     H242585   7.078   8.290   2.762
14115WAT      O42586   1.978   1.989   2.847
14115WAT     H142587   2.078   1.982   2.846
14115WAT     H242588   1.952   2.085   2.859
14116WAT      O42589   5.310   3.519   5.681
14116WAT     H142590   5.366   3.602   5.678
14116WAT     H242591   5.246   3.525   5.757
14117WAT      O42592   4.018   0.560   3.619
14117WAT     H142593   3.955   0.518   3.554
14117WAT     H242594   4.106   0.514   3.616
14118WAT      O42595   8.131   4.380   0.416
14118WAT     H142596   8.135   4.449   0.345
14118WAT     H242597   8.134   4.289   0.374
14119WAT      O42598   2.302   2.361   8.248
14119WAT     H142599   2.284   2.304   8.329
14119WAT     H242600   2.218   2.409   8.222
14120WAT      O42601   1.446   5.471   4.493
14120WAT     H142602   1.473   5.563   4.466
14120WAT     H242603   1.354   5.473   4.532
14121WAT      O42604   6.481   1.247   4.727
14121WAT     H142605   6.416   1.257   4.652
14121WAT     H242606   6.445   1.292   4.809
14122WAT      O42607   7.290   9.413   1.738
14122WAT     H142608   7.230   9.485   1.703
14122WAT     H242609   7.323   9.357   1.663
14123WAT      O42610   7.426   7.186   7.855
14123WAT     H142611   7.422   7.086   7.858
14123WAT     H242612   7.343   7.221   7.813
14124WAT      O42613   7.405   2.269   4.128
14124WAT     H142614   7.318   2.241   4.089
14124WAT     H242615   7.433   2.204   4.198
14125WAT      O42616   1.391   0.626   3.075
14125WAT     H142617   1.400   0.718   3.112
14125WAT     H242618   1.474   0.574   3.095
14126WAT      O42619   7.317   1.307   8.029
14126WAT     H142620   7.305   1.402   8.057
14126WAT     H242621   7.405   1.273   8.061
14127WAT      O42622   2.336   8.315   8.478
14127WAT     H142623   2.321   8.218   8.495
14127WAT     H242624   2.291   8.342   8.392
14128WAT      O42625   4.892   0.702   5.558
14128WAT     H142626   4.920   0.608   5.582
14128WAT     H242627   4.957   0.739   5.492
14129WAT      O42628   2.336   5.574   3.141
14129WAT     H142629   2.256   5.633   3.129
14129WAT     H242630   2.332   5.530   3.231
14130WAT      O42631   0.350   3.462   3.337
14130WAT     H142632   0.298   3.546   3.322
14130WAT     H242633   0.374   3.421   3.249
14131WAT      O42634   3.489   0.190   4.510
14131WAT     H142635   3.524   0.218   4.600
14131WAT     H242636   3.495   0.268   4.447
14132WAT      O42637   4.531   3.899   9.873
14132WAT     H142638   4.448   3.943   9.840
14132WAT     H242639   4.507   3.833   9.944
14133WAT      O42640   0.919   2.294   8.882
14133WAT     H142641   0.983   2.217   8.892
14133WAT     H242642   0.933   2.359   8.957
14134WAT      O42643   5.050   6.146   9.092
14134WAT     H142644   5.041   6.244   9.074
14134WAT     H242645   5.139   6.114   9.059
14135WAT      O42646   6.520   9.387   2.952
14135WAT     H142647   6.503   9.474   2.999
14135WAT     H242648   6.602   9.395   2.895
14136WAT      O42649   6.363   0.384   4.618
14136WAT     H142650   6.346   0.426   4.529
14136WAT     H242651   6.319   0.294   4.622
14137WAT      O42652   1.386   2.529   9.882
14137WAT     H142653   1.468   2.528   9.825
14137WAT     H242654   1.353   2.623   9.890
14138WAT      O42655   2.624   3.178   3.502
14138WAT     H142656   2.649   3.129   3.419
14138WAT     H242657   2.585   3.267   3.478
14139WAT      O42658   0.206   5.282   2.685
14139WAT     H142659   0.184   5.282   2.783
14139WAT     H242660   0.126   5.312   2.633
14140WAT      O42661   6.027   2.804   6.378
14140WAT     H142662   6.054   2.837   6.288
14140WAT     H242663   6.030   2.879   6.444
14141WAT      O42664   0.449   6.233   5.956
14141WAT     H142665   0.363   6.234   6.006
14141WAT     H242666   0.525   6.222   6.020
14142WAT      O42667   7.337   9.560   4.480
14142WAT     H142668   7.294   9.486   4.427
14142WAT     H242669   7.266   9.622   4.513
14143WAT      O42670   3.788   1.277   9.517
14143WAT     H142671   3.860   1.337   9.481
14143WAT     H242672   3.721   1.260   9.445
14144WAT      O42673   1.929   2.707   6.919
14144WAT     H142674   1.870   2.637   6.879
14144WAT     H242675   1.955   2.772   6.848
14145WAT      O42676   8.969   7.336   3.088
14145WAT     H142677   9.038   7.399   3.124
14145WAT     H242678   8.884   7.347   3.139
14146WAT      O42679   3.493   2.203   7.883
14146WAT     H142680   3.437   2.284   7.900
14146WAT     H242681   3.584   2.231   7.852
14147WAT      O42682   0.056   8.077   5.931
14147WAT     H142683   0.055   8.130   5.846
14147WAT     H242684   0.009   8.129   6.002
14148WAT      O42685   3.851   9.325   2.289
14148WAT     H142686   3.766   9.361   2.251
14148WAT     H242687   3.872   9.373   2.375
14149WAT      O42688   8.555   7.120   1.515
14149WAT     H142689   8.521   7.108   1.422
14149WAT     H242690   8.601   7.036   1.545
14150WAT      O42691   2.919   5.945   3.441
14150WAT     H142692   2.910   5.865   3.381
14150WAT     H242693   2.828   5.973   3.473
14151WAT      O42694   6.023   8.649   3.340
14151WAT     H142695   6.109   8.611   3.373
14151WAT     H242696   5.947   8.590   3.369
14152WAT      O42697   5.768   5.955   3.894
14152WAT     H142698   5.719   5.877   3.854
14152WAT     H242699   5.726   5.977   3.983
14153WAT      O42700   4.840   4.290   5.737
14153WAT     H142701   4.819   4.273   5.833
14153WAT     H242702   4.938   4.302   5.726
14154WAT      O42703   8.954   2.764   2.047
14154WAT     H142704   9.046   2.766   2.085
14154WAT     H242705   8.887   2.773   2.120
14155WAT      O42706   8.277   2.667   1.516
14155WAT     H142707   8.225   2.724   1.452
14155WAT     H242708   8.375   2.686   1.505
14156WAT      O42709   7.315   5.732   2.867
14156WAT     H142710   7.300   5.643   2.910
14156WAT     H242711   7.401   5.770   2.899
14157WAT      O42712   7.258   0.354   2.914
14157WAT     H142713   7.292   0.292   2.984
14157WAT     H242714   7.186   0.412   2.953
14158WAT      O42715   9.618   2.565   4.315
14158WAT     H142716   9.558   2.485   4.315
14158WAT     H242717   9.639   2.590   4.409
14159WAT      O42718   2.771   9.332   4.771
14159WAT     H142719   2.687   9.377   4.743
14159WAT     H242720   2.757   9.233   4.774
14160WAT      O42721   4.578   5.607   9.829
14160WAT     H142722   4.517   5.528   9.839
14160WAT     H242723   4.561   5.670   9.905
14161WAT      O42724   4.813   5.317   1.213
14161WAT     H142725   4.719   5.346   1.195
14161WAT     H242726   4.814   5.258   1.294
14162WAT      O42727   6.754   9.008   5.490
14162WAT     H142728   6.842   8.962   5.479
14162WAT     H242729   6.724   9.046   5.403
14163WAT      O42730   1.522   4.684   3.536
14163WAT     H142731   1.489   4.633   3.457
14163WAT     H242732   1.600   4.740   3.509
14164WAT      O42733   0.245   6.329   5.539
14164WAT     H142734   0.203   6.289   5.620
14164WAT     H242735   0.333   6.370   5.563
14165WAT      O42736   0.206   6.163   3.672
14165WAT     H142737   0.255   6.241   3.711
14165WAT     H242738   0.251   6.078   3.698
14166WAT      O42739   0.876   8.742   6.377
14166WAT     H142740   0.891   8.667   6.442
14166WAT     H242741   0.959   8.759   6.325
14167WAT      O42742   5.009   1.426   9.109
14167WAT     H142743   4.942   1.438   9.182
14167WAT     H242744   4.993   1.493   9.037
14168WAT      O42745   6.037   7.335   3.344
14168WAT     H142746   6.125   7.305   3.307
14168WAT     H242747   6.052   7.404   3.415
14169WAT      O42748   8.830   4.280   6.655
14169WAT     H142749   8.839   4.357   6.717
14169WAT     H242750   8.768   4.212   6.696
14170WAT      O42751   3.455   0.117   7.353
14170WAT     H142752   3.471   0.018   7.351
14170WAT     H242753   3.413   0.145   7.266
14171WAT      O42754   0.699   3.312   4.234
14171WAT     H142755   0.720   3.329   4.138
14171WAT     H242756   0.751   3.376   4.291
14172WAT      O42757   3.944   1.830   1.088
14172WAT     H142758   3.910   1.913   1.045
14172WAT     H242759   3.998   1.855   1.169
14173WAT      O42760   1.448   9.234   7.312
14173WAT     H142761   1.400   9.312   7.352
14173WAT     H242762   1.516   9.268   7.246
14174WAT      O42763   5.609   6.528   7.683
14174WAT     H142764   5.546   6.568   7.616
14174WAT     H242765   5.699   6.570   7.673
14175WAT      O42766   0.189   9.730   4.901
14175WAT     H142767   0.267   9.668   4.910
14175WAT     H242768   0.127   9.695   4.830
14176WAT      O42769   6.779   2.594   5.765
14176WAT     H142770   6.742   2.578   5.673
14176WAT     H242771   6.737   2.530   5.829
14177WAT      O42772   0.927   5.473   5.092
14177WAT     H142773   0.910   5.406   5.164
14177WAT     H242774   0.858   5.546   5.096
14178WAT      O42775   5.800   8.769   5.055
14178WAT     H142776   5.802   8.835   4.980
14178WAT     H242777   5.709   8.728   5.060
14179WAT      O42778   8.229   9.539   3.051
14179WAT     H142779   8.165   9.588   3.111
14179WAT     H242780   8.183   9.460   3.011
14180WAT      O42781   3.567   5.866   8.769
14180WAT     H142782   3.549   5.828   8.860
14180WAT     H242783   3.665   5.881   8.758
14181WAT      O42784   5.244   6.081   0.815
14181WAT     H142785   5.270   6.177   0.820
14181WAT     H242786   5.260   6.037   0.903
14182WAT      O42787   9.433   0.514   2.055
14182WAT     H142788   9.398   0.420   2.061
14182WAT     H242789   9.433   0.555   2.147
14183WAT      O42790   0.331   3.925   3.085
14183WAT     H142791   0.314   3.828   3.101
14183WAT     H242792   0.406   3.935   3.020
14184WAT      O42793   8.513   0.722   0.361
14184WAT     H142794   8.527   0.660   0.439
14184WAT     H242795   8.428   0.698   0.315
14185WAT      O42796   9.347   3.110   7.096
14185WAT     H142797   9.309   3.017   7.104
14185WAT     H242798   9.274   3.177   7.109
14186WAT      O42799   4.202   1.142   3.500
14186WAT     H142800   4.246   1.054   3.518
14186WAT     H242801   4.113   1.145   3.545
14187WAT      O42802   1.021   7.822   6.126
14187WAT     H142803   1.065   7.792   6.042
14187WAT     H242804   1.087   7.869   6.185
14188WAT      O42805   2.122   3.072   5.281
14188WAT     H142806   2.220   3.050   5.275
14188WAT     H242807   2.108   3.168   5.257
14189WAT      O42808   9.829   2.225   6.243
14189WAT     H142809   9.847   2.309   6.295
14189WAT     H242810   9.889   2.222   6.163
14190WAT      O42811   8.229   3.792   0.551
14190WAT     H142812   8.156   3.831   0.495
14190WAT     H242813   8.222   3.693   0.552
14191WAT      O42814   1.288   8.260   9.148
14191WAT     H142815   1.296   8.343   9.203
14191WAT     H242816   1.376   8.214   9.145
14192WAT      O42817   9.199   5.504   1.033
14192WAT     H142818   9.182   5.539   1.125
14192WAT     H242819   9.124   5.444   1.005
14193WAT      O42820   3.758   6.624   5.888
14193WAT     H142821   3.852   6.642   5.918
14193WAT     H242822   3.722   6.704   5.841
14194WAT      O42823   8.225   6.931   3.903
14194WAT     H142824   8.264   6.872   3.973
14194WAT     H242825   8.239   7.027   3.928
14195WAT      O42826   2.471   1.474   7.514
14195WAT     H142827   2.527   1.429   7.445
14195WAT     H242828   2.399   1.411   7.544
14196WAT      O42829   2.342   9.381   7.272
14196WAT     H142830   2.267   9.433   7.313
14196WAT     H242831   2.430   9.418   7.303
14197WAT      O42832   7.568   4.304   7.096
14197WAT     H142833   7.611   4.243   7.163
14197WAT     H242834   7.525   4.381   7.143
14198WAT      O42835   8.057   7.889   5.801
14198WAT     H142836   8.094   7.821   5.865
14198WAT     H242837   8.067   7.856   5.707
14199WAT      O42838   7.601   1.598   1.572
14199WAT     H142839   7.505   1.620   1.589
14199WAT     H242840   7.655   1.622   1.652
14200WAT      O42841   8.415   4.796   6.652
14200WAT     H142842   8.433   4.760   6.561
14200WAT     H242843   8.327   4.761   6.685
14201WAT      O42844   4.139   1.378   1.991
14201WAT     H142845   4.093   1.463   2.015
14201WAT     H242846   4.078   1.324   1.932
14202WAT      O42847   4.194   0.010   1.907
14202WAT     H142848   4.109   0.016   1.959
14202WAT     H242849   4.174   0.025   1.810
14203WAT      O42850   4.436   0.737   5.611
14203WAT     H142851   4.441   0.829   5.648
14203WAT     H242852   4.497   0.676   5.662
14204WAT      O42853   2.312   5.939   5.209
14204WAT     H142854   2.331   6.003   5.284
14204WAT     H242855   2.264   5.986   5.136
14205WAT      O42856   0.882   2.142   4.122
14205WAT     H142857   0.957   2.133   4.057
14205WAT     H242858   0.918   2.135   4.215
14206WAT      O42859   5.536   7.724   7.492
14206WAT     H142860   5.585   7.637   7.503
14206WAT     H242861   5.569   7.770   7.410
14207WAT      O42862   3.803   5.601   4.273
14207WAT     H142863   3.863   5.524   4.253
14207WAT     H242864   3.845   5.685   4.240
14208WAT      O42865   7.075   4.932   4.198
14208WAT     H142866   6.991   4.983   4.216
14208WAT     H242867   7.081   4.912   4.100
14209WAT      O42868   0.187   1.614   7.150
14209WAT     H142869   0.162   1.692   7.207
14209WAT     H242870   0.175   1.637   7.054
14210WAT      O42871   6.721   0.579   3.875
14210WAT     H142872   6.633   0.537   3.899
14210WAT     H242873   6.747   0.551   3.783
14211WAT      O42874   1.150   4.476   6.382
14211WAT     H142875   1.126   4.379   6.388
14211WAT     H242876   1.078   4.524   6.332
14212WAT      O42877   9.329   7.366   9.577
14212WAT     H142878   9.236   7.397   9.599
14212WAT     H242879   9.380   7.441   9.535
14213WAT      O42880   0.060   4.487   0.114
14213WAT     H142881   0.142   4.438   0.085
14213WAT     H242882   0.087   4.572   0.160
14214WAT      O42883   7.753   6.611   8.111
14214WAT     H142884   7.828   6.673   8.134
14214WAT     H242885   7.791   6.525   8.077
14215WAT      O42886   4.935   3.893   8.042
14215WAT     H142887   4.986   3.977   8.024
14215WAT     H242888   4.963   3.855   8.130
14216WAT      O42889   9.050   2.695   5.307
14216WAT     H142890   9.113   2.726   5.235
14216WAT     H242891   9.095   2.704   5.396
14217WAT      O42892   5.409   0.226   0.246
14217WAT     H142893   5.353   0.287   0.189
14217WAT     H242894   5.350   0.165   0.298
14218WAT      O42895   5.378   7.871   2.628
14218WAT     H142896   5.365   7.867   2.529
14218WAT     H242897   5.423   7.958   2.652
14219WAT      O42898   4.965   6.429   0.454
14219WAT     H142899   5.056   6.390   0.444
14219WAT     H242900   4.901   6.358   0.484
14220WAT      O42901   1.027   6.454   0.207
14220WAT     H142902   0.985   6.493   0.125
14220WAT     H242903   1.118   6.493   0.220
14221WAT      O42904   0.918   3.152   5.335
14221WAT     H142905   1.018   3.148   5.328
14221WAT     H242906   0.879   3.156   5.243
14222WAT      O42907   9.400   8.832   8.263
14222WAT     H142908   9.461   8.754   8.250
14222WAT     H242909   9.345   8.818   8.345
14223WAT      O42910   5.486   3.326   3.334
14223WAT     H142911   5.556   3.270   3.377
14223WAT     H242912   5.523   3.417   3.315
14224WAT      O42913   3.485   2.242   7.212
14224WAT     H142914   3.569   2.191   7.232
14224WAT     H242915   3.470   2.309   7.284
14225WAT      O42916   8.115   4.501   6.309
14225WAT     H142917   8.152   4.453   6.389
14225WAT     H242918   8.144   4.455   6.225
14226WAT      O42919   7.624   3.616   3.320
14226WAT     H142920   7.701   3.583   3.266
14226WAT     H242921   7.545   3.557   3.304
14227WAT      O42922   8.308   1.493   3.566
14227WAT     H142923   8.400   1.504   3.604
14227WAT     H242924   8.240   1.517   3.634
14228WAT      O42925   4.528   7.150   5.151
14228WAT     H142926   4.470   7.171   5.230
14228WAT     H242927   4.563   7.235   5.112
14229WAT      O42928   8.592   3.796   2.060
14229WAT     H142929   8.634   3.877   2.019
14229WAT     H242930   8.657   3.720   2.056
14230WAT      O42931   5.966   7.845   9.353
14230WAT     H142932   5.990   7.832   9.449
14230WAT     H242933   6.015   7.924   9.317
14231WAT      O42934   3.270   2.973   2.127
14231WAT     H142935   3.317   2.955   2.040
14231WAT     H242936   3.317   3.046   2.175
14232WAT      O42937   5.701   6.240   9.275
14232WAT     H142938   5.719   6.153   9.320
14232WAT     H242939   5.675   6.225   9.180
14233WAT      O42940   5.773   2.235   1.235
14233WAT     H142941   5.743   2.305   1.300
14233WAT     H242942   5.776   2.146   1.281
14234WAT      O42943   0.688   1.745   3.893
14234WAT     H142944   0.593   1.755   3.866
14234WAT     H242945   0.741   1.822   3.857
14235WAT      O42946   6.445   3.944   6.437
14235WAT     H142947   6.366   3.932   6.376
14235WAT     H242948   6.414   3.943   6.532
14236WAT      O42949   5.476   0.058   3.626
14236WAT     H142950   5.442   0.018   3.711
14236WAT     H242951   5.576   0.062   3.628
14237WAT      O42952   2.504   4.624   9.385
14237WAT     H142953   2.531   4.531   9.359
14237WAT     H242954   2.584   4.684   9.381
14238WAT      O42955   1.042   8.282   6.645
14238WAT     H142956   1.122   8.303   6.702
14238WAT     H242957   1.068   8.218   6.574
14239WAT      O42958   7.063   8.045   0.949
14239WAT     H142959   6.999   7.974   0.980
14239WAT     H242960   7.091   8.100   1.027
14240WAT      O42961   3.495   6.911   0.554
14240WAT     H142962   3.542   6.825   0.577
14240WAT     H242963   3.436   6.897   0.475
14241WAT      O42964   0.304   7.526   3.829
14241WAT     H142965   0.231   7.464   3.800
14241WAT     H242966   0.270   7.620   3.827
14242WAT      O42967   4.928   9.209   3.078
14242WAT     H142968   4.883   9.154   3.008
14242WAT     H242969   4.968   9.291   3.035
14243WAT      O42970   9.754   4.478   4.874
14243WAT     H142971   9.834   4.473   4.813
14243WAT     H242972   9.715   4.570   4.868
14244WAT      O42973   8.447   2.219   5.937
14244WAT     H142974   8.533   2.188   5.898
14244WAT     H242975   8.465   2.295   6.000
14245WAT      O42976   7.909   6.734   7.653
14245WAT     H142977   7.989   6.757   7.598
14245WAT     H242978   7.915   6.639   7.682
14246WAT      O42979   0.423   8.723   6.208
14246WAT     H142980   0.522   8.725   6.198
14246WAT     H242981   0.394   8.787   6.279
14247WAT      O42982   8.225   0.330   9.085
14247WAT     H142983   8.311   0.352   9.132
14247WAT     H242984   8.202   0.404   9.021
14248WAT      O42985   2.076   9.239   1.897
14248WAT     H142986   1.995   9.180   1.909
14248WAT     H242987   2.147   9.211   1.962
14249WAT      O42988   4.471   3.266   7.413
14249WAT     H142989   4.493   3.352   7.459
14249WAT     H242990   4.383   3.275   7.367
14250WAT      O42991   8.066   7.567   0.126
14250WAT     H142992   7.972   7.574   0.160
14250WAT     H242993   8.079   7.479   0.082
14251WAT      O42994   2.556   4.535   1.306
14251WAT     H142995   2.500   4.506   1.228
14251WAT     H242996   2.563   4.459   1.372
14252WAT      O42997   6.920   0.985   5.733
14252WAT     H142998   6.961   1.059   5.787
14252WAT     H242999   6.992   0.928   5.696
14253WAT      O43000   5.962   7.117   8.166
14253WAT     H143001   5.961   7.023   8.198
14253WAT     H243002   6.050   7.159   8.188
14254WAT      O43003   1.144   9.232   6.658
14254WAT     H143004   1.212   9.186   6.715
14254WAT     H243005   1.057   9.236   6.707
14255WAT      O43006   3.012   7.118   7.834
14255WAT     H143007   3.091   7.139   7.777
14255WAT     H243008   2.928   7.121   7.779
14256WAT      O43009   9.772   5.018   0.580
14256WAT     H143010   9.840   5.025   0.507
14256WAT     H243011   9.699   4.956   0.552
14257WAT      O43012   9.742   5.231   3.363
14257WAT     H143013   9.809   5.158   3.354
14257WAT     H243014   9.782   5.307   3.414
14258WAT      O43015   6.042   6.363   0.834
14258WAT     H143016   6.025   6.352   0.736
14258WAT     H243017   6.139   6.352   0.852
14259WAT      O43018   8.554   3.862   2.312
14259WAT     H143019   8.606   3.947   2.307
14259WAT     H243020   8.545   3.823   2.221
14260WAT      O43021   8.923   8.467   1.583
14260WAT     H143022   8.824   8.479   1.570
14260WAT     H243023   8.951   8.380   1.543
14261WAT      O43024   0.545   0.152   7.736
14261WAT     H143025   0.521   0.057   7.758
14261WAT     H243026   0.604   0.153   7.655
14262WAT      O43027   0.503   6.316   6.418
14262WAT     H143028   0.435   6.243   6.428
14262WAT     H243029   0.458   6.404   6.430
14263WAT      O43030   5.022   9.764   7.373
14263WAT     H143031   5.110   9.801   7.404
14263WAT     H243032   5.036   9.676   7.328
14264WAT      O43033   9.376   0.526   5.481
14264WAT     H143034   9.310   0.595   5.509
14264WAT     H243035   9.335   0.436   5.486
14265WAT      O43036   9.487   9.324   1.051
14265WAT     H143037   9.527   9.275   0.973
14265WAT     H243038   9.475   9.420   1.027
14266WAT      O43039   1.314   5.750   6.536
14266WAT     H143040   1.269   5.668   6.499
14266WAT     H243041   1.248   5.801   6.591
14267WAT      O43042   3.591   4.592   8.480
14267WAT     H143043   3.631   4.627   8.396
14267WAT     H243044   3.664   4.568   8.544
14268WAT      O43045   2.275   8.704   2.912
14268WAT     H143046   2.310   8.625   2.962
14268WAT     H243047   2.349   8.769   2.895
14269WAT      O43048   2.436   0.387   7.811
14269WAT     H143049   2.411   0.483   7.800
14269WAT     H243050   2.416   0.338   7.726
14270WAT      O43051   7.430   8.678   0.119
14270WAT     H143052   7.389   8.658   0.030
14270WAT     H243053   7.464   8.594   0.160
14271WAT      O43054   4.852   1.102   7.738
14271WAT     H143055   4.771   1.124   7.684
14271WAT     H243056   4.893   1.017   7.704
14272WAT      O43057   4.549   7.188   4.143
14272WAT     H143058   4.558   7.198   4.044
14272WAT     H243059   4.491   7.261   4.180
14273WAT      O43060   2.369   4.389   4.703
14273WAT     H143061   2.317   4.305   4.717
14273WAT     H243062   2.313   4.467   4.728
14274WAT      O43063   0.619   7.889   3.786
14274WAT     H143064   0.520   7.887   3.772
14274WAT     H243065   0.650   7.802   3.824
14275WAT      O43066   3.329   2.140   1.910
14275WAT     H143067   3.260   2.142   1.983
14275WAT     H243068   3.402   2.205   1.931
14276WAT      O43069   2.457   7.406   0.787
14276WAT     H143070   2.418   7.472   0.852
14276WAT     H243071   2.487   7.453   0.705
14277WAT      O43072   2.062   8.302   7.778
14277WAT     H143073   2.052   8.395   7.740
14277WAT     H243074   2.154   8.268   7.758
14278WAT      O43075   2.913   9.557   8.593
14278WAT     H143076   3.000   9.523   8.557
14278WAT     H243077   2.853   9.481   8.615
14279WAT      O43078   4.204   0.156   6.741
14279WAT     H143079   4.226   0.091   6.669
14279WAT     H243080   4.155   0.234   6.702
14280WAT      O43081   0.840   4.928   8.814
14280WAT     H143082   0.773   4.919   8.887
14280WAT     H243083   0.903   4.851   8.817
14281WAT      O43084   6.025   0.927   1.734
14281WAT     H143085   6.073   0.984   1.801
14281WAT     H243086   5.937   0.967   1.712
14282WAT      O43087   5.972   0.439   3.594
14282WAT     H143088   5.912   0.511   3.558
14282WAT     H243089   6.055   0.433   3.538
14283WAT      O43090   5.802   8.396   7.762
14283WAT     H143091   5.758   8.404   7.851
14283WAT     H243092   5.868   8.471   7.750
14284WAT      O43093   7.718   1.744   5.716
14284WAT     H143094   7.708   1.757   5.617
14284WAT     H243095   7.722   1.646   5.736
14285WAT      O43096   4.802   1.616   5.441
14285WAT     H143097   4.722   1.624   5.501
14285WAT     H243098   4.821   1.520   5.422
14286WAT      O43099   8.742   9.660   7.369
14286WAT     H143100   8.739   9.756   7.340
14286WAT     H243101   8.705   9.652   7.462
14287WAT      O43102   8.537   0.956   9.793
14287WAT     H143103   8.478   0.902   9.853
14287WAT     H243104   8.554   0.905   9.709
14288WAT      O43105   4.591   1.742   2.859
14288WAT     H143106   4.556   1.821   2.909
14288WAT     H243107   4.516   1.681   2.835
14289WAT      O43108   7.422   7.593   2.252
14289WAT     H143109   7.365   7.596   2.334
14289WAT     H243110   7.511   7.555   2.274
14290WAT      O43111   2.872   5.226   8.016
14290WAT     H143112   2.852   5.309   8.068
14290WAT     H243113   2.970   5.220   7.999
14291WAT      O43114   8.087   5.617   8.838
14291WAT     H143115   8.050   5.636   8.929
14291WAT     H243116   8.036   5.541   8.797
14292WAT      O43117   3.131   8.909   7.476
14292WAT     H143118   3.099   8.979   7.540
14292WAT     H243119   3.220   8.875   7.505
14293WAT      O43120   2.646   0.834   1.337
14293WAT     H143121   2.558   0.866   1.302
14293WAT     H243122   2.718   0.855   1.271
14294WAT      O43123   1.474   0.721   4.660
14294WAT     H143124   1.560   0.683   4.694
14294WAT     H243125   1.464   0.698   4.563
14295WAT      O43126   1.965   2.872   5.271
14295WAT     H143127   1.996   2.799   5.211
14295WAT     H243128   2.029   2.949   5.265
14296WAT      O43129   6.256   3.469   2.034
14296WAT     H143130   6.180   3.529   2.060
14296WAT     H243131   6.325   3.468   2.106
14297WAT      O43132   3.505   4.230   2.295
14297WAT     H143133   3.442   4.193   2.227
14297WAT     H243134   3.507   4.330   2.287
14298WAT      O43135   5.704   0.356   6.852
14298WAT     H143136   5.635   0.291   6.886
14298WAT     H243137   5.737   0.325   6.762
14299WAT      O43138   7.394   7.918   7.369
14299WAT     H143139   7.405   8.013   7.399
14299WAT     H243140   7.311   7.910   7.314
14300WAT      O43141   5.209   1.156   5.107
14300WAT     H143142   5.182   1.069   5.066
14300WAT     H243143   5.130   1.197   5.153
14301WAT      O43144   5.636   2.454   4.120
14301WAT     H143145   5.636   2.387   4.194
14301WAT     H243146   5.565   2.523   4.138
14302WAT      O43147   7.855   7.615   2.572
14302WAT     H143148   7.876   7.712   2.560
14302WAT     H243149   7.868   7.590   2.668
14303WAT      O43150   4.958   9.626   1.524
14303WAT     H143151   4.986   9.530   1.527
14303WAT     H243152   5.039   9.684   1.520
14304WAT      O43153   4.931   4.747   6.339
14304WAT     H143154   5.020   4.750   6.295
14304WAT     H243155   4.893   4.655   6.334
14305WAT      O43156   2.137   1.887   8.473
14305WAT     H143157   2.046   1.905   8.435
14305WAT     H243158   2.132   1.811   8.537
14306WAT      O43159   6.640   1.899   9.456
14306WAT     H143160   6.579   1.925   9.532
14306WAT     H243161   6.588   1.898   9.371
14307WAT      O43162   0.129   0.521   0.855
14307WAT     H143163   0.205   0.568   0.901
14307WAT     H243164   0.044   0.541   0.904
14308WAT      O43165   9.718   9.737   7.735
14308WAT     H143166   9.748   9.832   7.722
14308WAT     H243167   9.664   9.731   7.819
14309WAT      O43168   7.304   5.678   1.001
14309WAT     H143169   7.206   5.692   0.987
14309WAT     H243170   7.355   5.753   0.959
14310WAT      O43171   3.632   7.556   3.982
14310WAT     H143172   3.536   7.538   3.963
14310WAT     H243173   3.646   7.654   3.995
14311WAT      O43174   7.879   1.773   9.350
14311WAT     H143175   7.967   1.764   9.303
14311WAT     H243176   7.862   1.869   9.372
14312WAT      O43177   1.782   2.264   8.817
14312WAT     H143178   1.729   2.285   8.899
14312WAT     H243179   1.725   2.278   8.736
14313WAT      O43180   9.590   1.973   7.131
14313WAT     H143181   9.690   1.971   7.133
14313WAT     H243182   9.560   2.061   7.093
14314WAT      O43183   0.753   1.543   1.718
14314WAT     H143184   0.793   1.465   1.767
14314WAT     H243185   0.661   1.520   1.689
14315WAT      O43186   7.706   8.607   1.904
14315WAT     H143187   7.681   8.696   1.866
14315WAT     H243188   7.751   8.552   1.834
14316WAT      O43189   3.468   1.985   1.300
14316WAT     H143190   3.504   2.076   1.283
14316WAT     H243191   3.477   1.930   1.216
14317WAT      O43192   6.644   7.978   3.684
14317WAT     H143193   6.644   8.078   3.684
14317WAT     H243194   6.551   7.944   3.698
14318WAT      O43195   9.715   7.011   4.780
14318WAT     H143196   9.793   7.060   4.819
14318WAT     H243197   9.670   6.957   4.851
14319WAT      O43198   5.274   0.442   6.075
14319WAT     H143199   5.216   0.503   6.021
14319WAT     H243200   5.370   0.466   6.061
14320WAT      O43201   7.618   7.678   7.517
14320WAT     H143202   7.632   7.708   7.423
14320WAT     H243203   7.703   7.689   7.569
14321WAT      O43204   9.241   7.834   3.328
14321WAT     H143205   9.289   7.914   3.364
14321WAT     H243206   9.299   7.753   3.335
14322WAT      O43207   9.602   7.034   3.922
14322WAT     H143208   9.522   6.975   3.937
14322WAT     H243209   9.645   7.054   4.010
14323WAT      O43210   0.632   2.838   8.251
14323WAT     H143211   0.570   2.909   8.218
14323WAT     H243212   0.726   2.863   8.227
14324WAT      O43213   8.026   8.637   9.389
14324WAT     H143214   8.011   8.581   9.470
14324WAT     H243215   8.122   8.663   9.383
14325WAT      O43216   0.262   8.824   7.862
14325WAT     H143217   0.325   8.857   7.933
14325WAT     H243218   0.171   8.814   7.901
14326WAT      O43219   4.484   2.406   9.075
14326WAT     H143220   4.496   2.505   9.079
14326WAT     H243221   4.574   2.362   9.071
14327WAT      O43222   2.168   7.331   8.711
14327WAT     H143223   2.126   7.260   8.655
14327WAT     H243224   2.147   7.314   8.807
14328WAT      O43225   2.193   8.562   8.627
14328WAT     H143226   2.234   8.631   8.568
14328WAT     H243227   2.255   8.485   8.638
14329WAT      O43228   5.241   6.787   3.438
14329WAT     H143229   5.211   6.712   3.379
14329WAT     H243230   5.339   6.803   3.424
14330WAT      O43231   3.974   4.010   2.222
14330WAT     H143232   4.059   3.966   2.249
14330WAT     H243233   3.986   4.054   2.133
14331WAT      O43234   5.013   4.216   8.590
14331WAT     H143235   4.993   4.130   8.543
14331WAT     H243236   4.999   4.204   8.688
14332WAT      O43237   9.398   7.349   0.709
14332WAT     H143238   9.426   7.433   0.755
14332WAT     H243239   9.450   7.272   0.747
14333WAT      O43240   1.302   9.783   2.061
14333WAT     H143241   1.238   9.860   2.063
14333WAT     H243242   1.337   9.772   1.968
14334WAT      O43243   7.473   5.747   6.480
14334WAT     H143244   7.510   5.803   6.407
14334WAT     H243245   7.428   5.805   6.548
14335WAT      O43246   7.696   1.462   2.512
14335WAT     H143247   7.602   1.444   2.540
14335WAT     H243248   7.725   1.393   2.446
14336WAT      O43249   1.999   8.289   2.097
14336WAT     H143250   1.919   8.286   2.157
14336WAT     H243251   2.052   8.205   2.107
14337WAT      O43252   9.828   0.151   1.343
14337WAT     H143253   9.799   0.194   1.258
14337WAT     H243254   9.926   0.132   1.339
14338WAT      O43255   7.659   8.617   4.156
14338WAT     H143256   7.717   8.561   4.096
14338WAT     H243257   7.681   8.597   4.252
14339WAT      O43258   9.536   7.472   4.025
14339WAT     H143259   9.585   7.419   4.095
14339WAT     H243260   9.552   7.431   3.935
14340WAT      O43261   1.925   6.761   7.888
14340WAT     H143262   2.002   6.787   7.947
14340WAT     H243263   1.847   6.736   7.945
14341WAT      O43264   4.079   0.088   6.053
14341WAT     H143265   4.102   0.038   5.970
14341WAT     H243266   4.083   0.186   6.035
14342WAT      O43267   7.379   7.009   3.837
14342WAT     H143268   7.432   7.049   3.763
14342WAT     H243269   7.334   7.082   3.889
14343WAT      O43270   4.894   5.276   2.979
14343WAT     H143271   4.840   5.202   3.018
14343WAT     H243272   4.899   5.266   2.880
14344WAT      O43273   0.900   8.261   9.887
14344WAT     H143274   0.868   8.337   9.831
14344WAT     H243275   0.830   8.189   9.888
14345WAT      O43276   0.282   1.469   1.818
14345WAT     H143277   0.251   1.383   1.858
14345WAT     H243278   0.371   1.455   1.774
14346WAT      O43279   8.338   5.468   6.889
14346WAT     H143280   8.341   5.368   6.892
14346WAT     H243281   8.357   5.499   6.795
14347WAT      O43282   7.544   0.609   0.271
14347WAT     H143283   7.530   0.605   0.370
14347WAT     H243284   7.524   0.702   0.239
14348WAT      O43285   0.532   6.239   2.267
14348WAT     H143286   0.614   6.290   2.292
14348WAT     H243287   0.466   6.242   2.342
14349WAT      O43288   6.770   6.754   6.246
14349WAT     H143289   6.713   6.830   6.276
14349WAT     H243290   6.712   6.678   6.217
14350WAT      O43291   3.042   6.258   5.920
14350WAT     H143292   3.133   6.292   5.897
14350WAT     H243293   2.977   6.287   5.850
14351WAT      O43294   8.180   4.948   0.328
14351WAT     H143295   8.180   4.861   0.377
14351WAT     H243296   8.130   5.016   0.381
14352WAT      O43297   2.628   6.076   0.519
14352WAT     H143298   2.530   6.091   0.504
14352WAT     H243299   2.644   5.980   0.542
14353WAT      O43300   2.794   2.564   6.740
14353WAT     H143301   2.817   2.472   6.707
14353WAT     H243302   2.695   2.572   6.751
14354WAT      O43303   8.945   5.605   1.571
14354WAT     H143304   8.905   5.692   1.598
14354WAT     H243305   9.044   5.608   1.583
14355WAT      O43306   5.272   2.286   3.472
14355WAT     H143307   5.175   2.273   3.488
14355WAT     H243308   5.299   2.242   3.387
14356WAT      O43309   6.951   7.018   7.504
14356WAT     H143310   7.049   6.999   7.502
14356WAT     H243311   6.936   7.115   7.489
14357WAT      O43312   4.927   2.885   0.884
14357WAT     H143313   4.852   2.831   0.845
14357WAT     H243314   4.955   2.954   0.818
14358WAT      O43315   7.445   2.948   5.176
14358WAT     H143316   7.543   2.931   5.168
14358WAT     H243317   7.421   2.966   5.272
14359WAT      O43318   4.725   8.232   7.319
14359WAT     H143319   4.729   8.155   7.383
14359WAT     H243320   4.636   8.234   7.274
14360WAT      O43321   8.842   6.146   0.542
14360WAT     H143322   8.850   6.215   0.471
14360WAT     H243323   8.843   6.190   0.632
14361WAT      O43324   8.566   1.448   8.104
14361WAT     H143325   8.523   1.399   8.028
14361WAT     H243326   8.516   1.532   8.123
14362WAT      O43327   6.173   0.415   8.137
14362WAT     H143328   6.266   0.394   8.168
14362WAT     H243329   6.124   0.464   8.210
14363WAT      O43330   6.447   8.366   4.066
14363WAT     H143331   6.496   8.304   4.005
14363WAT     H243332   6.380   8.313   4.119
14364WAT      O43333   6.327   4.855   2.670
14364WAT     H143334   6.368   4.945   2.687
14364WAT     H243335   6.378   4.785   2.721
14365WAT      O43336   4.077   1.725   9.435
14365WAT     H143337   4.010   1.668   9.482
14365WAT     H243338   4.050   1.736   9.339
14366WAT      O43339   8.891   6.656   9.423
14366WAT     H143340   8.977   6.633   9.469
14366WAT     H243341   8.823   6.683   9.491
14367WAT      O43342   4.946   5.538   0.770
14367WAT     H143343   4.867   5.476   0.760
14367WAT     H243344   5.030   5.488   0.747
14368WAT      O43345   4.494   7.930   9.497
14368WAT     H143346   4.422   7.952   9.562
14368WAT     H243347   4.454   7.914   9.407
14369WAT      O43348   8.169   6.502   1.315
14369WAT     H143349   8.082   6.452   1.312
14369WAT     H243350   8.216   6.481   1.400
14370WAT      O43351   2.496   8.293   6.322
14370WAT     H143352   2.578   8.286   6.379
14370WAT     H243353   2.516   8.259   6.230
14371WAT      O43354   3.537   2.189   8.982
14371WAT     H143355   3.464   2.235   8.930
14371WAT     H243356   3.585   2.124   8.923
14372WAT      O43357   2.053   1.523   7.595
14372WAT     H143358   1.972   1.582   7.608
14372WAT     H243359   2.134   1.580   7.584
14373WAT      O43360   3.281   0.183   9.509
14373WAT     H143361   3.216   0.239   9.458
14373WAT     H243362   3.336   0.241   9.569
14374WAT      O43363   4.345   0.294   2.965
14374WAT     H143364   4.308   0.362   3.028
14374WAT     H243365   4.290   0.210   2.971
14375WAT      O43366   1.354   5.586   1.523
14375WAT     H143367   1.436   5.543   1.486
14375WAT     H243368   1.303   5.520   1.578
14376WAT      O43369   3.559   8.803   9.070
14376WAT     H143370   3.630   8.733   9.075
14376WAT     H243371   3.582   8.868   8.997
14377WAT      O43372   8.780   9.327   1.188
14377WAT     H143373   8.726   9.253   1.229
14377WAT     H243374   8.752   9.414   1.228
14378WAT      O43375   2.951   2.322   9.239
14378WAT     H143376   2.895   2.377   9.176
14378WAT     H243377   3.044   2.359   9.241
14379WAT      O43378   0.878   6.093   4.551
14379WAT     H143379   0.917   6.000   4.547
14379WAT     H243380   0.946   6.158   4.518
14380WAT      O43381   5.473   4.696   5.441
14380WAT     H143382   5.472   4.708   5.541
14380WAT     H243383   5.383   4.666   5.411
14381WAT      O43384   0.148   0.886   5.064
14381WAT     H143385   0.228   0.843   5.024
14381WAT     H243386   0.141   0.981   5.032
14382WAT      O43387   2.155   8.869   8.660
14382WAT     H143388   2.112   8.838   8.744
14382WAT     H243389   2.085   8.894   8.593
14383WAT      O43390   2.325   1.214   4.683
14383WAT     H143391   2.300   1.160   4.602
14383WAT     H243392   2.352   1.152   4.757
14384WAT      O43393   6.205   1.517   9.521
14384WAT     H143394   6.285   1.539   9.576
14384WAT     H243395   6.233   1.461   9.443
14385WAT      O43396   7.928   3.244   5.177
14385WAT     H143397   7.942   3.328   5.125
14385WAT     H243398   8.017   3.205   5.203
14386WAT      O43399   4.375   5.561   6.659
14386WAT     H143400   4.398   5.629   6.728
14386WAT     H243401   4.276   5.560   6.645
14387WAT      O43402   0.638   1.940   6.681
14387WAT     H143403   0.679   1.934   6.772
14387WAT     H243404   0.544   1.972   6.689
14388WAT      O43405   9.228   5.432   6.867
14388WAT     H143406   9.286   5.394   6.940
14388WAT     H243407   9.134   5.438   6.899
14389WAT      O43408   0.437   3.155   1.981
14389WAT     H143409   0.419   3.253   1.995
14389WAT     H243410   0.514   3.128   2.039
14390WAT      O43411   3.629   6.975   8.037
14390WAT     H143412   3.727   6.968   8.017
14390WAT     H243413   3.585   6.887   8.019
14391WAT      O43414   1.564   6.925   0.712
14391WAT     H143415   1.626   7.003   0.718
14391WAT     H243416   1.484   6.949   0.657
14392WAT      O43417   1.445   1.814   0.264
14392WAT     H143418   1.464   1.912   0.266
14392WAT     H243419   1.528   1.765   0.237
14393WAT      O43420   5.280   1.661   4.641
14393WAT     H143421   5.307   1.744   4.591
14393WAT     H243422   5.302   1.673   4.738
14394WAT      O43423   0.825   9.718   2.905
14394WAT     H143424   0.763   9.764   2.841
14394WAT     H243425   0.871   9.643   2.858
14395WAT      O43426   5.523   5.549   7.660
14395WAT     H143427   5.588   5.517   7.591
14395WAT     H243428   5.464   5.619   7.619
14396WAT      O43429   9.699   2.594   4.573
14396WAT     H143430   9.691   2.685   4.614
14396WAT     H243431   9.790   2.584   4.533
14397WAT      O43432   4.695   5.180   9.835
14397WAT     H143433   4.690   5.081   9.829
14397WAT     H243434   4.716   5.207   9.929
14398WAT      O43435   5.345   4.981   8.583
14398WAT     H143436   5.322   5.040   8.661
14398WAT     H243437   5.290   5.009   8.503
14399WAT      O43438   9.486   4.531   0.419
14399WAT     H143439   9.469   4.534   0.320
14399WAT     H243440   9.459   4.619   0.460
14400WAT      O43441   3.146   5.621   7.940
14400WAT     H143442   3.181   5.711   7.966
14400WAT     H243443   3.196   5.588   7.860
14401WAT      O43444   9.502   1.038   9.164
14401WAT     H143445   9.489   1.130   9.127
14401WAT     H243446   9.518   0.974   9.089
14402WAT      O43447   7.331   6.625   9.742
14402WAT     H143448   7.366   6.621   9.836
14402WAT     H243449   7.231   6.632   9.745
14403WAT      O43450   1.821   2.700   9.027
14403WAT     H143451   1.843   2.724   9.122
14403WAT     H243452   1.772   2.613   9.026
14404WAT      O43453   2.197   5.446   5.212
14404WAT     H143454   2.211   5.543   5.197
14404WAT     H243455   2.282   5.397   5.195
14405WAT      O43456   0.125   8.000   5.161
14405WAT     H143457   0.026   8.000   5.142
14405WAT     H243458   0.144   8.066   5.233
14406WAT      O43459   9.390   8.087   4.180
14406WAT     H143460   9.336   8.017   4.134
14406WAT     H243461   9.380   8.078   4.279
14407WAT      O43462   6.442   3.224   9.014
14407WAT     H143463   6.459   3.159   8.939
14407WAT     H243464   6.349   3.260   9.006
14408WAT      O43465   4.868   4.788   8.749
14408WAT     H143466   4.872   4.871   8.804
14408WAT     H243467   4.773   4.758   8.741
14409WAT      O43468   6.779   3.551   3.215
14409WAT     H143469   6.737   3.640   3.195
14409WAT     H243470   6.774   3.493   3.133
14410WAT      O43471   0.379   3.361   6.507
14410WAT     H143472   0.424   3.374   6.419
14410WAT     H243473   0.390   3.443   6.563
14411WAT      O43474   1.651   9.501   2.927
14411WAT     H143475   1.718   9.430   2.950
14411WAT     H243476   1.693   9.568   2.867
14412WAT      O43477   2.101   7.258   7.412
14412WAT     H143478   2.038   7.188   7.381
14412WAT     H243479   2.194   7.237   7.381
14413WAT      O43480   8.389   5.836   6.618
14413WAT     H143481   8.365   5.884   6.534
14413WAT     H243482   8.306   5.797   6.658
14414WAT      O43483   5.668   3.111   4.078
14414WAT     H143484   5.750   3.118   4.134
14414WAT     H243485   5.686   3.054   3.998
14415WAT      O43486   1.419   1.873   9.034
14415WAT     H143487   1.320   1.858   9.040
14415WAT     H243488   1.451   1.850   8.942
14416WAT      O43489   9.366   4.675   5.410
14416WAT     H143490   9.422   4.596   5.385
14416WAT     H243491   9.425   4.745   5.450
14417WAT      O43492   2.403   9.575   5.831
14417WAT     H143493   2.474   9.558   5.762
14417WAT     H243494   2.435   9.543   5.920
14418WAT      O43495   1.227   6.140   0.966
14418WAT     H143496   1.230   6.076   1.043
14418WAT     H243497   1.155   6.207   0.982
14419WAT      O43498   8.678   6.994   4.749
14419WAT     H143499   8.691   6.985   4.651
14419WAT     H243500   8.600   7.054   4.768
14420WAT      O43501   1.468   7.338   8.180
14420WAT     H143502   1.531   7.333   8.103
14420WAT     H243503   1.398   7.406   8.161
14421WAT      O43504   9.363   9.815   3.112
14421WAT     H143505   9.360   9.898   3.056
14421WAT     H243506   9.282   9.811   3.170
14422WAT      O43507   8.891   8.959   6.983
14422WAT     H143508   8.988   8.958   6.959
14422WAT     H243509   8.837   8.924   6.907
14423WAT      O43510   1.408   2.518   8.382
14423WAT     H143511   1.473   2.558   8.317
14423WAT     H243512   1.450   2.514   8.472
14424WAT      O43513   0.972   9.068   8.740
14424WAT     H143514   0.944   8.989   8.794
14424WAT     H243515   1.050   9.113   8.785
14425WAT      O43516   7.485   3.748   8.786
14425WAT     H143517   7.420   3.700   8.727
14425WAT     H243518   7.457   3.736   8.882
14426WAT      O43519   2.864   4.281   2.133
14426WAT     H143520   2.868   4.323   2.223
14426WAT     H243521   2.920   4.332   2.069
14427WAT      O43522   6.253   7.687   8.084
14427WAT     H143523   6.278   7.777   8.118
14427WAT     H243524   6.313   7.618   8.124
14428WAT      O43525   1.240   0.191   2.870
14428WAT     H143526   1.175   0.137   2.816
14428WAT     H243527   1.287   0.256   2.809
14429WAT      O43528   4.386   5.850   4.977
14429WAT     H143529   4.486   5.848   4.983
14429WAT     H243530   4.355   5.779   4.914
14430WAT      O43531   5.090   5.290   1.207
14430WAT     H143532   4.994   5.319   1.212
14430WAT     H243533   5.132   5.330   1.125
14431WAT      O43534   4.872   4.244   2.728
14431WAT     H143535   4.939   4.253   2.802
14431WAT     H243536   4.841   4.335   2.700
14432WAT      O43537   3.308   1.082   7.177
14432WAT     H143538   3.265   1.163   7.138
14432WAT     H243539   3.373   1.111   7.248
14433WAT      O43540   8.377   1.299   2.022
14433WAT     H143541   8.289   1.260   2.046
14433WAT     H243542   8.373   1.338   1.930
14434WAT      O43543   5.695   6.971   6.933
14434WAT     H143544   5.628   7.012   6.871
14434WAT     H243545   5.785   6.970   6.889
14435WAT      O43546   5.481   5.203   9.090
14435WAT     H143547   5.465   5.295   9.052
14435WAT     H243548   5.393   5.156   9.100
14436WAT      O43549   5.143   7.638   4.761
14436WAT     H143550   5.242   7.638   4.778
14436WAT     H243551   5.110   7.544   4.759
14437WAT      O43552   5.630   6.138   5.788
14437WAT     H143553   5.616   6.217   5.848
14437WAT     H243554   5.657   6.169   5.698
14438WAT      O43555   0.622   9.140   1.895
14438WAT     H143556   0.628   9.149   1.994
14438WAT     H243557   0.623   9.231   1.853
14439WAT      O43558   8.707   5.339   5.905
14439WAT     H143559   8.738   5.392   5.983
14439WAT     H243560   8.622   5.291   5.929
14440WAT      O43561   3.426   3.759   5.683
14440WAT     H143562   3.480   3.794   5.759
14440WAT     H243563   3.334   3.736   5.715
14441WAT      O43564   7.950   4.163   0.712
14441WAT     H143565   7.931   4.261   0.701
14441WAT     H243566   7.881   4.123   0.773
14442WAT      O43567   8.308   6.921   1.829
14442WAT     H143568   8.231   6.870   1.789
14442WAT     H243569   8.374   6.856   1.866
14443WAT      O43570   6.673   1.325   6.437
14443WAT     H143571   6.735   1.255   6.402
14443WAT     H243572   6.583   1.284   6.453
14444WAT      O43573   4.181   2.172   3.439
14444WAT     H143574   4.266   2.145   3.484
14444WAT     H243575   4.103   2.127   3.484
14445WAT      O43576   0.448   1.860   1.718
14445WAT     H143577   0.381   1.786   1.726
14445WAT     H243578   0.459   1.885   1.622
14446WAT      O43579   2.435   3.152   8.663
14446WAT     H143580   2.478   3.080   8.718
14446WAT     H243581   2.496   3.178   8.588
14447WAT      O43582   3.401   7.865   1.681
14447WAT     H143583   3.478   7.807   1.706
14447WAT     H243584   3.349   7.822   1.608
14448WAT      O43585   7.331   5.463   2.961
14448WAT     H143586   7.267   5.430   3.030
14448WAT     H243587   7.425   5.443   2.990
14449WAT      O43588   6.463   2.200   5.089
14449WAT     H143589   6.389   2.164   5.146
14449WAT     H243590   6.477   2.138   5.012
14450WAT      O43591   4.677   5.750   4.994
14450WAT     H143592   4.756   5.805   5.022
14450WAT     H243593   4.703   5.691   4.918
14451WAT      O43594   7.029   3.523   1.095
14451WAT     H143595   7.040   3.578   1.011
14451WAT     H243596   6.962   3.567   1.155
14452WAT      O43597   8.722   5.676   6.507
14452WAT     H143598   8.710   5.718   6.597
14452WAT     H243599   8.638   5.628   6.481
14453WAT      O43600   1.244   3.236   7.755
14453WAT     H143601   1.220   3.259   7.661
14453WAT     H243602   1.182   3.166   7.790
14454WAT      O43603   1.136   9.152   3.192
14454WAT     H143604   1.171   9.059   3.202
14454WAT     H243605   1.075   9.173   3.269
14455WAT      O43606   5.673   7.576   5.237
14455WAT     H143607   5.731   7.596   5.157
14455WAT     H243608   5.585   7.622   5.226
14456WAT      O43609   4.729   3.847   5.917
14456WAT     H143610   4.682   3.907   5.982
14456WAT     H243611   4.772   3.902   5.846
14457WAT      O43612   6.613   3.104   4.495
14457WAT     H143613   6.575   3.154   4.572
14457WAT     H243614   6.610   3.162   4.413
14458WAT      O43615   5.119   2.665   9.065
14458WAT     H143616   5.022   2.652   9.042
14458WAT     H243617   5.175   2.613   9.000
14459WAT      O43618   0.661   6.146   3.403
14459WAT     H143619   0.610   6.202   3.467
14459WAT     H243620   0.601   6.116   3.329
14460WAT      O43621   8.777   1.523   3.341
14460WAT     H143622   8.848   1.542   3.273
14460WAT     H243623   8.701   1.474   3.298
14461WAT      O43624   9.672   3.639   9.482
14461WAT     H143625   9.663   3.727   9.435
14461WAT     H243626   9.635   3.566   9.424
14462WAT      O43627   8.767   6.489   8.250
14462WAT     H143628   8.800   6.468   8.158
14462WAT     H243629   8.676   6.450   8.263
14463WAT      O43630   5.260   0.262   6.738
14463WAT     H143631   5.196   0.339   6.747
14463WAT     H243632   5.214   0.186   6.691
14464WAT      O43633   6.082   1.887   3.333
14464WAT     H143634   5.990   1.860   3.360
14464WAT     H243635   6.138   1.805   3.318
14465WAT      O43636   8.539   8.647   6.499
14465WAT     H143637   8.565   8.586   6.573
14465WAT     H243638   8.448   8.624   6.466
14466WAT      O43639   8.597   0.164   3.466
14466WAT     H143640   8.684   0.186   3.509
14466WAT     H243641   8.555   0.086   3.512
14467WAT      O43642   1.129   9.435   7.227
14467WAT     H143643   1.043   9.485   7.220
14467WAT     H243644   1.153   9.397   7.138
14468WAT      O43645   7.041   9.348   1.334
14468WAT     H143646   6.949   9.354   1.373
14468WAT     H243647   7.044   9.400   1.248
14469WAT      O43648   6.888   8.281   2.969
14469WAT     H143649   6.956   8.264   3.041
14469WAT     H243650   6.929   8.265   2.880
14470WAT      O43651   6.494   5.824   0.008
14470WAT     H143652   6.569   5.831   0.074
14470WAT     H243653   6.532   5.813  -0.084
14471WAT      O43654   9.755   6.785   5.173
14471WAT     H143655   9.736   6.767   5.077
14471WAT     H243656   9.669   6.802   5.221
14472WAT      O43657   9.239   3.046   6.021
14472WAT     H143658   9.260   3.091   6.108
14472WAT     H243659   9.163   3.093   5.976
14473WAT      O43660   7.058   3.037   9.091
14473WAT     H143661   7.137   3.098   9.093
14473WAT     H243662   7.079   2.953   9.142
14474WAT      O43663   4.129   0.858   2.286
14474WAT     H143664   4.208   0.863   2.347
14474WAT     H243665   4.147   0.791   2.214
14475WAT      O43666   5.284   4.013   5.512
14475WAT     H143667   5.326   4.008   5.603
14475WAT     H243668   5.294   4.105   5.476
14476WAT      O43669   3.117   2.172   4.749
14476WAT     H143670   3.118   2.122   4.662
14476WAT     H243671   3.047   2.132   4.809
14477WAT      O43672   1.333   7.640   2.320
14477WAT     H143673   1.340   7.733   2.285
14477WAT     H243674   1.395   7.580   2.269
14478WAT      O43675   4.648   0.025   4.166
14478WAT     H143676   4.713   0.048   4.094
14478WAT     H243677   4.563   0.076   4.151
14479WAT      O43678   7.683   0.915   9.867
14479WAT     H143679   7.638   0.885   9.783
14479WAT     H243680   7.769   0.865   9.878
14480WAT      O43681   9.125   9.553   4.318
14480WAT     H143682   9.131   9.596   4.408
14480WAT     H243683   9.172   9.609   4.251
14481WAT      O43684   8.527   5.676   4.177
14481WAT     H143685   8.583   5.759   4.185
14481WAT     H243686   8.481   5.676   4.088
14482WAT      O43687   7.181   6.689   4.980
14482WAT     H143688   7.249   6.616   4.984
14482WAT     H243689   7.157   6.707   4.884
14483WAT      O43690   6.315   3.804   0.554
14483WAT     H143691   6.351   3.853   0.475
14483WAT     H243692   6.390   3.776   0.614
14484WAT      O43693   7.345   8.418   9.622
14484WAT     H143694   7.249   8.430   9.596
14484WAT     H243695   7.392   8.365   9.552
14485WAT      O43696   2.218   3.228   5.009
14485WAT     H143697   2.227   3.206   4.911
14485WAT     H243698   2.216   3.143   5.062
14486WAT      O43699   7.146   4.438   5.552
14486WAT     H143700   7.167   4.472   5.460
14486WAT     H243701   7.137   4.515   5.615
14487WAT      O43702   5.270   1.141   6.805
14487WAT     H143703   5.302   1.227   6.765
14487WAT     H243704   5.170   1.139   6.805
14488WAT      O43705   7.019   3.912   0.401
14488WAT     H143706   6.950   3.917   0.474
14488WAT     H243707   7.106   3.948   0.435
14489WAT      O43708   4.443   4.267   6.749
14489WAT     H143709   4.498   4.336   6.798
14489WAT     H243710   4.404   4.203   6.815
14490WAT      O43711   9.504   6.194   2.608
14490WAT     H143712   9.591   6.204   2.559
14490WAT     H243713   9.508   6.113   2.667
14491WAT      O43714   8.861   0.246   7.586
14491WAT     H143715   8.793   0.190   7.632
14491WAT     H243716   8.821   0.287   7.504
14492WAT      O43717   2.317   4.570   6.338
14492WAT     H143718   2.326   4.479   6.295
14492WAT     H243719   2.302   4.638   6.267
14493WAT      O43720   5.539   6.009   7.532
14493WAT     H143721   5.581   5.968   7.450
14493WAT     H243722   5.570   6.104   7.540
14494WAT      O43723   7.907   5.201   5.713
14494WAT     H143724   7.968   5.229   5.786
14494WAT     H243725   7.930   5.251   5.629
14495WAT      O43726   6.849   9.810   9.814
14495WAT     H143727   6.830   9.836   9.719
14495WAT     H243728   6.782   9.854   9.874
14496WAT      O43729   4.973   2.570   6.129
14496WAT     H143730   5.008   2.476   6.133
14496WAT     H243731   4.977   2.603   6.035
14497WAT      O43732   4.558   3.985   1.613
14497WAT     H143733   4.608   3.941   1.688
14497WAT     H243734   4.619   3.997   1.535
14498WAT      O43735   5.035   3.246   2.492
14498WAT     H143736   4.947   3.219   2.454
14498WAT     H243737   5.081   3.308   2.429
14499WAT      O43738   9.786   1.136   0.741
14499WAT     H143739   9.788   1.133   0.841
14499WAT     H243740   9.696   1.167   0.711
14500WAT      O43741   9.050   5.966   1.712
14500WAT     H143742   9.025   6.060   1.690
14500WAT     H243743   9.109   5.966   1.793
14501WAT      O43744   4.437   0.518   6.071
14501WAT     H143745   4.516   0.547   6.126
14501WAT     H243746   4.433   0.419   6.067
14502WAT      O43747   6.940   6.620   8.390
14502WAT     H143748   6.912   6.715   8.385
14502WAT     H243749   6.908   6.572   8.308
14503WAT      O43750   5.956   6.541   1.037
14503WAT     H143751   5.887   6.607   1.009
14503WAT     H243752   5.976   6.479   0.961
14504WAT      O43753   2.457   3.187   6.072
14504WAT     H143754   2.524   3.233   6.131
14504WAT     H243755   2.470   3.089   6.077
14505WAT      O43756   5.004   6.387   8.311
14505WAT     H143757   4.983   6.337   8.395
14505WAT     H243758   5.095   6.362   8.279
14506WAT      O43759   1.578   8.701   2.555
14506WAT     H143760   1.637   8.625   2.530
14506WAT     H243761   1.550   8.750   2.472
14507WAT      O43762   0.183   2.803   3.171
14507WAT     H143763   0.093   2.796   3.128
14507WAT     H243764   0.253   2.778   3.104
14508WAT      O43765   7.949   8.894   0.154
14508WAT     H143766   8.003   8.814   0.181
14508WAT     H243767   8.007   8.976   0.161
14509WAT      O43768   9.810   3.141   4.989
14509WAT     H143769   9.750   3.221   4.990
14509WAT     H243770   9.770   3.070   4.931
14510WAT      O43771   7.927   0.750   7.326
14510WAT     H143772   7.971   0.682   7.384
14510WAT     H243773   7.965   0.744   7.233
14511WAT      O43774   9.749   4.928   5.894
14511WAT     H143775   9.690   4.869   5.839
14511WAT     H243776   9.785   4.876   5.972
14512WAT      O43777   8.368   7.399   2.069
14512WAT     H143778   8.442   7.461   2.093
14512WAT     H243779   8.323   7.431   1.985
14513WAT      O43780   6.141   2.049   8.542
14513WAT     H143781   6.073   2.037   8.614
14513WAT     H243782   6.108   2.008   8.457
14514WAT      O43783   9.543   5.614   5.585
14514WAT     H143784   9.551   5.531   5.529
14514WAT     H243785   9.502   5.592   5.673
14515WAT      O43786   6.196   7.707   5.972
14515WAT     H143787   6.246   7.774   5.917
14515WAT     H243788   6.212   7.725   6.069
14516WAT      O43789   4.227   0.808   5.381
14516WAT     H143790   4.190   0.878   5.442
14516WAT     H243791   4.326   0.802   5.393
14517WAT      O43792   0.762   7.908   9.776
14517WAT     H143793   0.715   7.971   9.837
14517WAT     H243794   0.859   7.903   9.801
14518WAT      O43795   8.340   1.198   3.549
14518WAT     H143796   8.355   1.255   3.468
14518WAT     H243797   8.244   1.170   3.552
14519WAT      O43798   0.264   9.237   8.317
14519WAT     H143799   0.209   9.215   8.236
14519WAT     H243800   0.228   9.187   8.396
14520WAT      O43801   8.868   2.951   3.752
14520WAT     H143802   8.944   2.999   3.794
14520WAT     H243803   8.798   3.017   3.723
14521WAT      O43804   6.756   6.277   6.922
14521WAT     H143805   6.756   6.262   7.021
14521WAT     H243806   6.846   6.307   6.892
14522WAT      O43807   0.419   3.653   2.432
14522WAT     H143808   0.342   3.704   2.392
14522WAT     H243809   0.503   3.675   2.382
14523WAT      O43810   7.160   5.413   7.020
14523WAT     H143811   7.064   5.440   7.026
14523WAT     H243812   7.166   5.322   6.978
14524WAT      O43813   0.968   3.299   8.207
14524WAT     H143814   1.038   3.287   8.138
14524WAT     H243815   1.009   3.288   8.298
14525WAT      O43816   3.499   5.341   2.127
14525WAT     H143817   3.486   5.426   2.075
14525WAT     H243818   3.424   5.278   2.106
14526WAT      O43819   0.690   0.608   4.473
14526WAT     H143820   0.599   0.612   4.431
14526WAT     H243821   0.759   0.598   4.402
14527WAT      O43822   7.287   1.092   9.796
14527WAT     H143823   7.379   1.084   9.760
14527WAT     H243824   7.249   1.181   9.772
14528WAT      O43825   8.005   0.135   1.067
14528WAT     H143826   8.082   0.106   1.010
14528WAT     H243827   7.922   0.086   1.039
14529WAT      O43828   0.063   8.924   3.726
14529WAT     H143829   0.073   8.824   3.732
14529WAT     H243830  -0.028   8.946   3.690
14530WAT      O43831   7.115   7.534   9.573
14530WAT     H143832   7.049   7.552   9.646
14530WAT     H243833   7.095   7.592   9.494
14531WAT      O43834   2.286   9.072   8.158
14531WAT     H143835   2.351   9.117   8.097
14531WAT     H243836   2.199   9.121   8.156
14532WAT      O43837   5.712   6.390   2.701
14532WAT     H143838   5.614   6.378   2.686
14532WAT     H243839   5.750   6.448   2.629
14533WAT      O43840   9.690   0.332   3.206
14533WAT     H143841   9.696   0.365   3.301
14533WAT     H243842   9.655   0.239   3.205
14534WAT      O43843   7.244   0.893   4.760
14534WAT     H143844   7.247   0.986   4.725
14534WAT     H243845   7.189   0.836   4.698
14535WAT      O43846   1.502   4.876   1.159
14535WAT     H143847   1.483   4.779   1.178
14535WAT     H243848   1.549   4.884   1.071
14536WAT      O43849   1.033   9.814   1.714
14536WAT     H143850   1.126   9.849   1.727
14536WAT     H243851   1.036   9.715   1.706
14537WAT      O43852   2.266   5.601   4.236
14537WAT     H143853   2.290   5.513   4.276
14537WAT     H243854   2.222   5.658   4.306
14538WAT      O43855   9.016   0.949   1.139
14538WAT     H143856   9.025   1.045   1.164
14538WAT     H243857   9.013   0.940   1.040
14539WAT      O43858   1.197   4.475   5.275
14539WAT     H143859   1.213   4.407   5.347
14539WAT     H243860   1.131   4.542   5.308
14540WAT      O43861   1.347   7.744   6.893
14540WAT     H143862   1.262   7.781   6.928
14540WAT     H243863   1.406   7.818   6.861
14541WAT      O43864   5.267   9.763   9.740
14541WAT     H143865   5.357   9.731   9.711
14541WAT     H243866   5.273   9.797   9.834
14542WAT      O43867   6.260   2.511   7.003
14542WAT     H143868   6.298   2.565   6.928
14542WAT     H243869   6.221   2.427   6.967
14543WAT      O43870   0.643   8.924   7.477
14543WAT     H143871   0.722   8.985   7.484
14543WAT     H243872   0.602   8.912   7.567
14544WAT      O43873   5.527   7.760   5.027
14544WAT     H143874   5.461   7.829   4.996
14544WAT     H243875   5.585   7.799   5.098
14545WAT      O43876   5.671   1.111   9.705
14545WAT     H143877   5.730   1.189   9.681
14545WAT     H243878   5.635   1.070   9.621
14546WAT      O43879   2.879   8.408   4.249
14546WAT     H143880   2.796   8.401   4.193
14546WAT     H243881   2.956   8.436   4.192
14547WAT      O43882   9.361   9.074   5.558
14547WAT     H143883   9.274   9.121   5.576
14547WAT     H243884   9.388   9.089   5.463
14548WAT      O43885   6.583   4.389   7.872
14548WAT     H143886   6.504   4.382   7.811
14548WAT     H243887   6.628   4.478   7.859
14549WAT      O43888   8.025   8.929   4.933
14549WAT     H143889   8.065   8.982   5.008
14549WAT     H243890   8.098   8.894   4.874
14550WAT      O43891   5.569   7.228   1.438
14550WAT     H143892   5.609   7.202   1.350
14550WAT     H243893   5.476   7.262   1.423
14551WAT      O43894   1.482   9.627   7.016
14551WAT     H143895   1.575   9.661   7.005
14551WAT     H243896   1.472   9.538   6.973
14552WAT      O43897   2.527   9.831   7.346
14552WAT     H143898   2.456   9.796   7.285
14552WAT     H243899   2.608   9.772   7.341
14553WAT      O43900   8.508   9.705   8.588
14553WAT     H143901   8.468   9.786   8.630
14553WAT     H243902   8.476   9.696   8.494
14554WAT      O43903   5.339   0.486   2.968
14554WAT     H143904   5.331   0.584   2.951
14554WAT     H243905   5.272   0.459   3.037
14555WAT      O43906   7.631   2.031   0.787
14555WAT     H143907   7.655   2.116   0.833
14555WAT     H243908   7.569   2.049   0.712
14556WAT      O43909   1.720   2.035   1.569
14556WAT     H143910   1.680   2.104   1.509
14556WAT     H243911   1.803   1.999   1.527
14557WAT      O43912   4.699   0.634   2.990
14557WAT     H143913   4.673   0.538   2.992
14557WAT     H243914   4.794   0.642   2.959
14558WAT      O43915   1.476   4.373   8.936
14558WAT     H143916   1.465   4.314   9.016
14558WAT     H243917   1.386   4.400   8.902
14559WAT      O43918   1.066   4.804   3.224
14559WAT     H143919   0.986   4.780   3.169
14559WAT     H243920   1.036   4.845   3.310
14560WAT      O43921   6.914   4.057   8.355
14560WAT     H143922   6.877   4.040   8.446
14560WAT     H243923   6.848   4.026   8.286
14561WAT      O43924   7.092   6.576   3.851
14561WAT     H143925   7.001   6.575   3.892
14561WAT     H243926   7.161   6.581   3.923
14562WAT      O43927   1.697   6.125   8.107
14562WAT     H143928   1.671   6.196   8.173
14562WAT     H243929   1.760   6.163   8.039
14563WAT      O43930   0.014   3.930   8.049
14563WAT     H143931   0.053   3.839   8.033
14563WAT     H243932   0.019   3.952   8.146
14564WAT      O43933   2.898   8.168   5.285
14564WAT     H143934   2.953   8.238   5.331
14564WAT     H243935   2.904   8.181   5.186
14565WAT      O43936   3.459   6.668   5.994
14565WAT     H143937   3.547   6.643   5.954
14565WAT     H243938   3.436   6.762   5.969
14566WAT      O43939   1.837   3.390   7.145
14566WAT     H143940   1.911   3.421   7.086
14566WAT     H243941   1.760   3.452   7.138
14567WAT      O43942   2.524   5.905   8.420
14567WAT     H143943   2.550   5.992   8.377
14567WAT     H243944   2.509   5.836   8.349
14568WAT      O43945   9.425   8.694   7.626
14568WAT     H143946   9.352   8.647   7.674
14568WAT     H243947   9.492   8.628   7.593
14569WAT      O43948   0.031   9.566   4.728
14569WAT     H143949   0.061   9.579   4.634
14569WAT     H243950   0.090   9.498   4.773
14570WAT      O43951   3.723   6.189   8.311
14570WAT     H143952   3.732   6.234   8.222
14570WAT     H243953   3.813   6.157   8.342
14571WAT      O43954   0.872   5.368   8.931
14571WAT     H143955   0.846   5.455   8.890
14571WAT     H243956   0.793   5.329   8.979
14572WAT      O43957   9.807   1.587   2.662
14572WAT     H143958   9.812   1.565   2.760
14572WAT     H243959   9.885   1.547   2.615
14573WAT      O43960   5.862   8.027   4.197
14573WAT     H143961   5.937   8.027   4.263
14573WAT     H243962   5.780   7.986   4.239
14574WAT      O43963   8.921   6.625   1.502
14574WAT     H143964   8.937   6.720   1.474
14574WAT     H243965   9.008   6.584   1.528
14575WAT      O43966   8.275   8.626   4.322
14575WAT     H143967   8.241   8.682   4.398
14575WAT     H243968   8.282   8.683   4.239
14576WAT      O43969   2.594   3.091   1.726
14576WAT     H143970   2.686   3.107   1.690
14576WAT     H243971   2.597   3.095   1.826
14577WAT      O43972   2.452   7.903   9.620
14577WAT     H143973   2.433   7.850   9.703
14577WAT     H243974   2.549   7.923   9.615
14578WAT      O43975   8.444   2.933   1.552
14578WAT     H143976   8.432   2.899   1.645
14578WAT     H243977   8.489   2.864   1.496
14579WAT      O43978   8.796   5.857   8.605
14579WAT     H143979   8.781   5.792   8.680
14579WAT     H243980   8.804   5.950   8.642
14580WAT      O43981   5.934   2.860   1.619
14580WAT     H143982   5.846   2.827   1.654
14580WAT     H243983   5.923   2.952   1.581
14581WAT      O43984   0.481   0.481   3.823
14581WAT     H143985   0.520   0.418   3.756
14581WAT     H243986   0.491   0.442   3.915
14582WAT      O43987   6.139   7.722   3.251
14582WAT     H143988   6.170   7.643   3.198
14582WAT     H243989   6.153   7.806   3.198
14583WAT      O43990   8.730   6.179   2.731
14583WAT     H143991   8.765   6.085   2.733
14583WAT     H243992   8.681   6.197   2.817
14584WAT      O43993   0.175   0.176   2.265
14584WAT     H143994   0.120   0.094   2.274
14584WAT     H243995   0.223   0.194   2.351
14585WAT      O43996   0.323   8.924   2.414
14585WAT     H143997   0.279   8.980   2.484
14585WAT     H243998   0.272   8.838   2.403
14586WAT      O43999   4.839   4.553   4.505
14586WAT     H144000   4.842   4.653   4.509
14586WAT     H244001   4.927   4.517   4.475
14587WAT      O44002   3.709   0.500   0.734
14587WAT     H144003   3.674   0.426   0.791
14587WAT     H244004   3.737   0.462   0.645
14588WAT      O44005   8.946   1.919   5.075
14588WAT     H144006   8.943   2.004   5.022
14588WAT     H244007   9.032   1.916   5.127
14589WAT      O44008   5.919   1.773   1.378
14589WAT     H144009   6.014   1.743   1.378
14589WAT     H244010   5.900   1.827   1.459
14590WAT      O44011   0.427   6.632   5.963
14590WAT     H144012   0.364   6.573   6.014
14590WAT     H244013   0.478   6.577   5.896
14591WAT      O44014   2.635   0.866   5.690
14591WAT     H144015   2.575   0.814   5.750
14591WAT     H244016   2.600   0.863   5.596
14592WAT      O44017   7.315   9.553   2.522
14592WAT     H144018   7.281   9.603   2.603
14592WAT     H244019   7.316   9.614   2.443
14593WAT      O44020   9.680   4.079   5.924
14593WAT     H144021   9.588   4.042   5.939
14593WAT     H244022   9.741   4.006   5.893
14594WAT      O44023   1.344   5.789   1.753
14594WAT     H144024   1.300   5.859   1.698
14594WAT     H244025   1.359   5.707   1.697
14595WAT      O44026   8.300   2.835   5.473
14595WAT     H144027   8.300   2.808   5.377
14595WAT     H244028   8.338   2.927   5.482
14596WAT      O44029   6.576   9.699   3.292
14596WAT     H144030   6.666   9.739   3.276
14596WAT     H244031   6.519   9.764   3.342
14597WAT      O44032   5.898   0.882   6.105
14597WAT     H144033   5.890   0.814   6.178
14597WAT     H244034   5.995   0.903   6.090
14598WAT      O44035   8.700   1.672   9.650
14598WAT     H144036   8.601   1.669   9.662
14598WAT     H244037   8.721   1.701   9.556
14599WAT      O44038   2.303   3.517   2.674
14599WAT     H144039   2.321   3.536   2.770
14599WAT     H244040   2.315   3.600   2.620
14600WAT      O44041   0.084   1.649   2.384
14600WAT     H144042   0.101   1.571   2.445
14600WAT     H244043  -0.001   1.633   2.334
14601WAT      O44044   7.564   8.556   7.814
14601WAT     H144045   7.506   8.636   7.801
14601WAT     H244046   7.604   8.559   7.906
14602WAT      O44047   6.472   1.136   1.007
14602WAT     H144048   6.394   1.119   1.068
14602WAT     H244049   6.555   1.099   1.047
14603WAT      O44050   5.587   1.884   0.498
14603WAT     H144051   5.545   1.898   0.408
14603WAT     H244052   5.639   1.966   0.524
14604WAT      O44053   0.072   9.535   5.695
14604WAT     H144054   0.093   9.438   5.678
14604WAT     H244055   0.117   9.592   5.627
14605WAT      O44056   8.634   1.364   6.513
14605WAT     H144057   8.616   1.433   6.443
14605WAT     H244058   8.568   1.374   6.587
14606WAT      O44059   2.210   7.878   2.717
14606WAT     H144060   2.288   7.939   2.700
14606WAT     H244061   2.211   7.803   2.651
14607WAT      O44062   1.053   2.162   7.031
14607WAT     H144063   0.987   2.154   7.106
14607WAT     H244064   1.144   2.138   7.064
14608WAT      O44065   4.499   4.660   9.113
14608WAT     H144066   4.526   4.728   9.181
14608WAT     H244067   4.577   4.637   9.055
14609WAT      O44068   7.843   3.065   1.704
14609WAT     H144069   7.866   3.162   1.698
14609WAT     H244070   7.777   3.051   1.777
14610WAT      O44071   2.829   0.062   2.114
14610WAT     H144072   2.757   0.085   2.180
14610WAT     H244073   2.860   0.146   2.068
14611WAT      O44074   3.371   7.934   0.148
14611WAT     H144075   3.314   7.852   0.147
14611WAT     H244076   3.446   7.922   0.213
14612WAT      O44077   8.154   9.682   8.617
14612WAT     H144078   8.244   9.723   8.603
14612WAT     H244079   8.158   9.585   8.591
14613WAT      O44080   6.562   1.884   7.559
14613WAT     H144081   6.487   1.917   7.616
14613WAT     H244082   6.598   1.799   7.598
14614WAT      O44083   7.441   3.154   8.332
14614WAT     H144084   7.364   3.136   8.394
14614WAT     H244085   7.525   3.161   8.386
14615WAT      O44086   3.003   1.459   0.174
14615WAT     H144087   2.972   1.487   0.083
14615WAT     H244088   2.936   1.398   0.215
14616WAT      O44089   3.490   3.871   7.520
14616WAT     H144090   3.571   3.930   7.518
14616WAT     H244091   3.447   3.871   7.430
14617WAT      O44092   1.740   6.388   3.512
14617WAT     H144093   1.761   6.360   3.418
14617WAT     H244094   1.691   6.475   3.510
14618WAT      O44095   9.134   1.459   1.042
14618WAT     H144096   9.114   1.443   0.945
14618WAT     H244097   9.232   1.468   1.055
14619WAT      O44098   8.183   1.668   8.971
14619WAT     H144099   8.122   1.633   8.900
14619WAT     H244100   8.275   1.631   8.957
14620WAT      O44101   7.805   4.120   1.838
14620WAT     H144102   7.818   4.212   1.877
14620WAT     H244103   7.707   4.102   1.828
14621WAT      O44104   4.408   2.672   9.679
14621WAT     H144105   4.474   2.725   9.732
14621WAT     H244106   4.393   2.717   9.591
14622WAT      O44107   6.929   2.851   3.239
14622WAT     H144108   6.914   2.916   3.164
14622WAT     H244109   7.022   2.861   3.273
14623WAT      O44110   3.346   8.002   6.160
14623WAT     H144111   3.258   7.984   6.204
14623WAT     H244112   3.370   8.099   6.170
14624WAT      O44113   2.058   2.153   8.138
14624WAT     H144114   2.098   2.077   8.086
14624WAT     H244115   1.990   2.199   8.081
14625WAT      O44116   3.482   5.122   8.383
14625WAT     H144117   3.428   5.164   8.310
14625WAT     H244118   3.456   5.026   8.392
14626WAT      O44119   8.678   6.888   1.577
14626WAT     H144120   8.727   6.856   1.659
14626WAT     H244121   8.740   6.889   1.499
14627WAT      O44122   5.946   4.589   3.818
14627WAT     H144123   5.926   4.505   3.768
14627WAT     H244124   5.915   4.579   3.913
14628WAT      O44125   1.004   2.194   8.544
14628WAT     H144126   0.992   2.214   8.447
14628WAT     H244127   1.071   2.256   8.584
14629WAT      O44128   4.967   2.095   9.509
14629WAT     H144129   4.887   2.121   9.564
14629WAT     H244130   5.050   2.122   9.556
14630WAT      O44131   1.099   6.715   2.938
14630WAT     H144132   1.092   6.757   3.028
14630WAT     H244133   1.191   6.678   2.926
14631WAT      O44134   9.116   2.851   0.423
14631WAT     H144135   9.200   2.904   0.426
14631WAT     H244136   9.117   2.790   0.344
14632WAT      O44137   4.174   1.026   5.567
14632WAT     H144138   4.106   1.059   5.502
14632WAT     H244139   4.217   1.103   5.613
14633WAT      O44140   1.164   7.637   3.253
14633WAT     H144141   1.116   7.641   3.341
14633WAT     H244142   1.234   7.708   3.250
14634WAT      O44143   8.833   0.964   0.874
14634WAT     H144144   8.887   0.880   0.871
14634WAT     H244145   8.781   0.973   0.788
14635WAT      O44146   4.807   9.252   7.147
14635WAT     H144147   4.828   9.269   7.243
14635WAT     H244148   4.880   9.288   7.090
14636WAT      O44149   6.587   7.586   2.373
14636WAT     H144150   6.672   7.543   2.403
14636WAT     H244151   6.569   7.667   2.429
14637WAT      O44152   2.439   1.894   5.983
14637WAT     H144153   2.436   1.840   5.899
14637WAT     H244154   2.379   1.974   5.974
14638WAT      O44155   7.355   3.703   7.136
14638WAT     H144156   7.444   3.659   7.150
14638WAT     H244157   7.282   3.640   7.163
14639WAT      O44158   6.155   0.756   4.344
14639WAT     H144159   6.235   0.795   4.300
14639WAT     H244160   6.113   0.824   4.404
14640WAT      O44161   1.708   3.415   9.731
14640WAT     H144162   1.625   3.456   9.769
14640WAT     H244163   1.688   3.321   9.702
14641WAT      O44164   5.033   4.115   5.502
14641WAT     H144165   4.951   4.061   5.483
14641WAT     H244166   5.110   4.054   5.519
14642WAT      O44167   1.814   5.990   0.460
14642WAT     H144168   1.743   5.928   0.492
14642WAT     H244169   1.839   5.966   0.367
14643WAT      O44170   5.254   8.491   4.861
14643WAT     H144171   5.348   8.459   4.849
14643WAT     H244172   5.199   8.464   4.782
14644WAT      O44173   3.931   9.809   3.867
14644WAT     H144174   3.971   9.790   3.957
14644WAT     H244175   3.836   9.838   3.878
14645WAT      O44176   4.510   1.870   1.201
14645WAT     H144177   4.456   1.927   1.263
14645WAT     H244178   4.448   1.815   1.145
14646WAT      O44179   2.924   4.341   6.421
14646WAT     H144180   2.907   4.432   6.459
14646WAT     H244181   3.017   4.337   6.384
14647WAT      O44182   8.325   0.905   9.409
14647WAT     H144183   8.371   0.991   9.384
14647WAT     H244184   8.365   0.830   9.357
14648WAT      O44185   2.366   8.113   2.396
14648WAT     H144186   2.338   8.207   2.414
14648WAT     H244187   2.305   8.050   2.443
14649WAT      O44188   2.547   5.417   4.303
14649WAT     H144189   2.585   5.486   4.241
14649WAT     H244190   2.541   5.456   4.395
14650WAT      O44191   2.419   0.901   8.404
14650WAT     H144192   2.341   0.880   8.462
14650WAT     H244193   2.503   0.873   8.451
14651WAT      O44194   8.700   4.159   6.228
14651WAT     H144195   8.693   4.229   6.299
14651WAT     H244196   8.662   4.195   6.142
14652WAT      O44197   0.224   7.946   8.018
14652WAT     H144198   0.286   7.907   8.086
14652WAT     H244199   0.147   7.884   8.003
14653WAT      O44200   2.351   7.928   8.738
14653WAT     H144201   2.332   7.956   8.832
14653WAT     H244202   2.276   7.955   8.678
14654WAT      O44203   3.895   7.595   1.180
14654WAT     H144204   3.825   7.525   1.162
14654WAT     H244205   3.935   7.580   1.270
14655WAT      O44206   5.267   8.436   6.917
14655WAT     H144207   5.248   8.490   6.999
14655WAT     H244208   5.185   8.433   6.860
14656WAT      O44209   5.386   6.801   8.571
14656WAT     H144210   5.350   6.778   8.662
14656WAT     H244211   5.483   6.824   8.578
14657WAT      O44212   3.935   4.099   9.591
14657WAT     H144213   3.968   4.181   9.638
14657WAT     H244214   3.839   4.083   9.615
14658WAT      O44215   5.610   6.207   9.660
14658WAT     H144216   5.547   6.277   9.627
14658WAT     H244217   5.591   6.120   9.614
14659WAT      O44218   4.008   3.367   0.475
14659WAT     H144219   3.992   3.404   0.567
14659WAT     H244220   4.103   3.337   0.467
14660WAT      O44221   5.535   6.158   2.547
14660WAT     H144222   5.573   6.097   2.617
14660WAT     H244223   5.609   6.193   2.489
14661WAT      O44224   6.039   4.288   3.932
14661WAT     H144225   6.111   4.249   3.989
14661WAT     H244226   6.045   4.249   3.840
14662WAT      O44227   5.888   8.609   8.209
14662WAT     H144228   5.977   8.643   8.239
14662WAT     H244229   5.848   8.675   8.145
14663WAT      O44230   9.774   8.545   9.794
14663WAT     H144231   9.854   8.603   9.807
14663WAT     H244232   9.769   8.514   9.699
14664WAT      O44233   4.610   3.976   6.129
14664WAT     H144234   4.556   4.023   6.059
14664WAT     H244235   4.576   4.002   6.219
14665WAT      O44236   0.713   5.832   3.382
14665WAT     H144237   0.698   5.900   3.310
14665WAT     H244238   0.644   5.843   3.453
14666WAT      O44239   2.620   2.741   6.313
14666WAT     H144240   2.693   2.674   6.326
14666WAT     H244241   2.648   2.829   6.350
14667WAT      O44242   1.494   8.232   7.152
14667WAT     H144243   1.460   8.273   7.236
14667WAT     H244244   1.459   8.283   7.073
14668WAT      O44245   6.965   0.488   3.987
14668WAT     H144246   6.879   0.534   3.962
14668WAT     H244247   6.948   0.423   4.061
14669WAT      O44248   4.639   8.197   3.698
14669WAT     H144249   4.706   8.257   3.653
14669WAT     H244250   4.572   8.165   3.631
14670WAT      O44251   3.712   9.352   5.652
14670WAT     H144252   3.647   9.284   5.619
14670WAT     H244253   3.796   9.346   5.598
14671WAT      O44254   2.712   5.311   8.287
14671WAT     H144255   2.811   5.317   8.291
14671WAT     H244256   2.673   5.403   8.294
14672WAT      O44257   9.283   4.154   2.486
14672WAT     H144258   9.232   4.091   2.545
14672WAT     H244259   9.347   4.207   2.542
14673WAT      O44260   7.003   0.771   0.967
14673WAT     H144261   6.979   0.677   0.946
14673WAT     H244262   7.019   0.780   1.065
14674WAT      O44263   9.053   2.992   4.885
14674WAT     H144264   9.001   3.077   4.885
14674WAT     H244265   8.991   2.915   4.893
14675WAT      O44266   4.028   3.629   2.292
14675WAT     H144267   3.936   3.608   2.325
14675WAT     H244268   4.027   3.715   2.241
14676WAT      O44269   2.711   9.040   8.085
14676WAT     H144270   2.741   9.113   8.146
14676WAT     H244271   2.621   9.062   8.047
14677WAT      O44272   4.510   5.500   1.935
14677WAT     H144273   4.420   5.485   1.895
14677WAT     H244274   4.547   5.587   1.903
14678WAT      O44275   4.662   0.767   6.212
14678WAT     H144276   4.574   0.757   6.258
14678WAT     H244277   4.648   0.799   6.118
14679WAT      O44278   2.802   5.449   0.556
14679WAT     H144279   2.860   5.378   0.517
14679WAT     H244280   2.810   5.532   0.501
14680WAT      O44281   3.950   5.497   0.020
14680WAT     H144282   4.008   5.578   0.016
14680WAT     H244283   3.868   5.512  -0.037
14681WAT      O44284   5.502   8.377   3.587
14681WAT     H144285   5.524   8.463   3.541
14681WAT     H244286   5.565   8.306   3.557
14682WAT      O44287   9.110   2.310   4.051
14682WAT     H144288   9.048   2.274   3.981
14682WAT     H244289   9.133   2.238   4.116
14683WAT      O44290   4.557   8.417   9.097
14683WAT     H144291   4.485   8.366   9.050
14683WAT     H244292   4.536   8.421   9.195
14684WAT      O44293   0.112   5.455   7.494
14684WAT     H144294   0.183   5.478   7.427
14684WAT     H244295   0.035   5.518   7.483
14685WAT      O44296   1.505   6.570   5.590
14685WAT     H144297   1.562   6.613   5.660
14685WAT     H244298   1.558   6.499   5.542
14686WAT      O44299   4.967   4.851   9.815
14686WAT     H144300   5.032   4.839   9.740
14686WAT     H244301   5.003   4.917   9.880
14687WAT      O44302   2.951   2.985   4.011
14687WAT     H144303   2.983   2.905   3.961
14687WAT     H244304   3.025   3.052   4.017
14688WAT      O44305   7.361   2.394   3.378
14688WAT     H144306   7.303   2.464   3.336
14688WAT     H244307   7.310   2.349   3.452
14689WAT      O44308   0.984   4.413   8.740
14689WAT     H144309   1.036   4.409   8.654
14689WAT     H244310   0.967   4.320   8.773
14690WAT      O44311   8.582   8.179   4.210
14690WAT     H144312   8.680   8.198   4.214
14690WAT     H244313   8.533   8.263   4.190
14691WAT      O44314   3.670   1.007   6.419
14691WAT     H144315   3.681   1.106   6.404
14691WAT     H244316   3.756   0.970   6.454
14692WAT      O44317   3.838   1.815   3.485
14692WAT     H144318   3.886   1.728   3.471
14692WAT     H244319   3.764   1.824   3.418
14693WAT      O44320   2.077   3.703   3.941
14693WAT     H144321   1.985   3.716   3.904
14693WAT     H244322   2.079   3.620   3.997
14694WAT      O44323   2.402   5.204   3.947
14694WAT     H144324   2.425   5.195   3.850
14694WAT     H244325   2.342   5.283   3.960
14695WAT      O44326   2.946   2.032   2.421
14695WAT     H144327   2.973   2.011   2.515
14695WAT     H244328   2.986   1.965   2.359
14696WAT      O44329   1.761   5.024   7.327
14696WAT     H144330   1.859   5.019   7.304
14696WAT     H244331   1.715   5.086   7.263
14697WAT      O44332   3.688   2.699   2.951
14697WAT     H144333   3.730   2.609   2.960
14697WAT     H244334   3.708   2.754   3.031
14698WAT      O44335   6.389   2.815   2.976
14698WAT     H144336   6.327   2.765   2.916
14698WAT     H244337   6.482   2.785   2.961
14699WAT      O44338   1.217   4.279   2.377
14699WAT     H144339   1.170   4.248   2.294
14699WAT     H244340   1.230   4.378   2.373
14700WAT      O44341   8.562   2.951   7.324
14700WAT     H144342   8.625   2.913   7.391
14700WAT     H244343   8.559   2.892   7.243
14701WAT      O44344   6.972   0.763   6.465
14701WAT     H144345   7.000   0.719   6.380
14701WAT     H244346   7.013   0.855   6.469
14702WAT      O44347   9.067   4.145   9.135
14702WAT     H144348   9.049   4.178   9.228
14702WAT     H244349   9.016   4.060   9.120
14703WAT      O44350   7.802   2.666   6.796
14703WAT     H144351   7.762   2.587   6.842
14703WAT     H244352   7.844   2.726   6.864
14704WAT      O44353   0.686   0.619   1.069
14704WAT     H144354   0.747   0.540   1.063
14704WAT     H244355   0.729   0.691   1.122
14705WAT      O44356   5.852   5.143   8.086
14705WAT     H144357   5.833   5.168   8.181
14705WAT     H244358   5.889   5.223   8.038
14706WAT      O44359   2.946   6.109   4.082
14706WAT     H144360   2.982   6.108   4.175
14706WAT     H244361   2.867   6.047   4.075
14707WAT      O44362   1.641   5.210   2.132
14707WAT     H144363   1.734   5.212   2.169
14707WAT     H244364   1.623   5.296   2.085
14708WAT      O44365   9.485   6.761   4.181
14708WAT     H144366   9.468   6.663   4.170
14708WAT     H244367   9.505   6.780   4.277
14709WAT      O44368   7.665   8.968   2.387
14709WAT     H144369   7.611   8.907   2.328
14709WAT     H244370   7.760   8.967   2.357
14710WAT      O44371   4.644   6.365   9.264
14710WAT     H144372   4.689   6.382   9.177
14710WAT     H244373   4.675   6.277   9.302
14711WAT      O44374   3.320   7.010   8.382
14711WAT     H144375   3.272   7.050   8.305
14711WAT     H244376   3.408   6.972   8.351
14712WAT      O44377   9.276   1.508   0.141
14712WAT     H144378   9.320   1.541   0.224
14712WAT     H244379   9.345   1.481   0.074
14713WAT      O44380   1.224   2.493   5.082
14713WAT     H144381   1.257   2.416   5.136
14713WAT     H244382   1.268   2.577   5.114
14714WAT      O44383   1.942   3.201   6.637
14714WAT     H144384   2.031   3.168   6.668
14714WAT     H244385   1.953   3.248   6.549
14715WAT      O44386   9.368   1.315   8.770
14715WAT     H144387   9.391   1.397   8.718
14715WAT     H244388   9.269   1.300   8.766
14716WAT      O44389   1.303   0.274   7.860
14716WAT     H144390   1.305   0.220   7.944
14716WAT     H244391   1.279   0.215   7.783
14717WAT      O44392   5.083   4.845   2.311
14717WAT     H144393   5.159   4.859   2.376
14717WAT     H244394   5.094   4.906   2.233
14718WAT      O44395   6.147   2.173   1.429
14718WAT     H144396   6.177   2.080   1.410
14718WAT     H244397   6.158   2.229   1.347
14719WAT      O44398   9.051   7.714   7.312
14719WAT     H144399   8.975   7.728   7.375
14719WAT     H244400   9.026   7.746   7.221
14720WAT      O44401   5.953   9.829   7.195
14720WAT     H144402   5.886   9.878   7.251
14720WAT     H244403   6.004   9.894   7.139
14721WAT      O44404   5.808   4.455   4.400
14721WAT     H144405   5.715   4.420   4.393
14721WAT     H244406   5.873   4.381   4.385
14722WAT      O44407   7.685   3.117   8.162
14722WAT     H144408   7.728   3.112   8.072
14722WAT     H244409   7.696   3.029   8.209
14723WAT      O44410   4.569   0.809   9.554
14723WAT     H144411   4.631   0.861   9.496
14723WAT     H244412   4.537   0.728   9.504
14724WAT      O44413   1.354   8.016   7.921
14724WAT     H144414   1.294   7.958   7.975
14724WAT     H244415   1.370   8.103   7.969
14725WAT      O44416   4.179   3.999   7.879
14725WAT     H144417   4.241   4.065   7.923
14725WAT     H244418   4.181   3.913   7.929
14726WAT      O44419   9.244   1.317   2.425
14726WAT     H144420   9.262   1.258   2.505
14726WAT     H244421   9.326   1.370   2.404
14727WAT      O44422   4.346   4.481   7.988
14727WAT     H144423   4.350   4.576   7.958
14727WAT     H244424   4.254   4.459   8.019
14728WAT      O44425   9.174   0.189   8.634
14728WAT     H144426   9.256   0.173   8.688
14728WAT     H244427   9.145   0.284   8.645
14729WAT      O44428   1.987   4.882   6.095
14729WAT     H144429   1.976   4.946   6.019
14729WAT     H244430   1.935   4.915   6.174
14730WAT      O44431   0.366   6.929   8.339
14730WAT     H144432   0.288   6.988   8.355
14730WAT     H244433   0.368   6.901   8.243
14731WAT      O44434   4.020   3.838   9.639
14731WAT     H144435   3.990   3.927   9.606
14731WAT     H244436   3.944   3.772   9.634
14732WAT      O44437   4.785   7.226   5.780
14732WAT     H144438   4.870   7.178   5.801
14732WAT     H244439   4.790   7.266   5.689
14733WAT      O44440   4.298   6.342   5.409
14733WAT     H144441   4.261   6.345   5.317
14733WAT     H244442   4.260   6.418   5.463
14734WAT      O44443   2.684   6.602   9.180
14734WAT     H144444   2.629   6.575   9.259
14734WAT     H244445   2.775   6.628   9.210
14735WAT      O44446   8.373   0.256   1.946
14735WAT     H144447   8.362   0.349   1.982
14735WAT     H244448   8.464   0.222   1.969
14736WAT      O44449   8.686   8.390   8.193
14736WAT     H144450   8.612   8.333   8.231
14736WAT     H244451   8.646   8.459   8.133
14737WAT      O44452   5.397   7.296   9.207
14737WAT     H144453   5.463   7.221   9.216
14737WAT     H244454   5.419   7.369   9.271
14738WAT      O44455   5.217   5.760   9.644
14738WAT     H144456   5.214   5.859   9.662
14738WAT     H244457   5.188   5.710   9.726
14739WAT      O44458   4.635   5.359   0.487
14739WAT     H144459   4.648   5.260   0.484
14739WAT     H244460   4.596   5.390   0.400
14740WAT      O44461   5.488   4.252   8.152
14740WAT     H144462   5.390   4.272   8.147
14740WAT     H244463   5.501   4.156   8.177
14741WAT      O44464   4.997   3.060   0.709
14741WAT     H144465   5.047   3.147   0.705
14741WAT     H244466   4.948   3.046   0.623
14742WAT      O44467   3.608   0.344   7.316
14742WAT     H144468   3.691   0.351   7.371
14742WAT     H244469   3.559   0.260   7.340
14743WAT      O44470   7.685   7.540   8.636
14743WAT     H144471   7.691   7.455   8.584
14743WAT     H244472   7.711   7.617   8.577
14744WAT      O44473   2.125   3.751   6.914
14744WAT     H144474   2.203   3.724   6.970
14744WAT     H244475   2.159   3.788   6.827
14745WAT      O44476   1.322   9.051   3.906
14745WAT     H144477   1.328   9.079   3.811
14745WAT     H244478   1.376   8.969   3.921
14746WAT      O44479   0.088   0.560   9.298
14746WAT     H144480  -0.005   0.550   9.331
14746WAT     H244481   0.101   0.653   9.262
14747WAT      O44482   8.209   0.481   5.922
14747WAT     H144483   8.186   0.436   6.008
14747WAT     H244484   8.288   0.541   5.935
14748WAT      O44485   6.121   4.416   1.416
14748WAT     H144486   6.219   4.403   1.433
14748WAT     H244487   6.069   4.344   1.462
14749WAT      O44488   7.289   2.229   7.750
14749WAT     H144489   7.358   2.214   7.679
14749WAT     H244490   7.294   2.156   7.818
14750WAT      O44491   8.439   7.488   7.127
14750WAT     H144492   8.502   7.527   7.194
14750WAT     H244493   8.427   7.552   7.051
14751WAT      O44494   7.982   9.776   6.755
14751WAT     H144495   7.999   9.727   6.670
14751WAT     H244496   7.896   9.744   6.795
14752WAT      O44497   4.024   7.441   3.126
14752WAT     H144498   4.032   7.489   3.038
14752WAT     H244499   4.055   7.346   3.115
14753WAT      O44500   2.990   1.722   0.935
14753WAT     H144501   3.009   1.793   1.003
14753WAT     H244502   3.011   1.756   0.843
14754WAT      O44503   3.203   4.734   8.714
14754WAT     H144504   3.219   4.750   8.811
14754WAT     H244505   3.171   4.640   8.700
14755WAT      O44506   4.651   0.896   0.424
14755WAT     H144507   4.713   0.911   0.501
14755WAT     H244508   4.585   0.971   0.419
14756WAT      O44509   6.987   0.969   1.925
14756WAT     H144510   7.077   1.012   1.924
14756WAT     H244511   6.989   0.887   1.868
14757WAT      O44512   0.160   7.376   1.707
14757WAT     H144513   0.244   7.322   1.715
14757WAT     H244514   0.085   7.316   1.681
14758WAT      O44515   5.809   2.741   0.824
14758WAT     H144516   5.843   2.833   0.846
14758WAT     H244517   5.719   2.748   0.781
14759WAT      O44518   7.099   8.168   8.007
14759WAT     H144519   7.164   8.159   8.082
14759WAT     H244520   7.124   8.105   7.933
14760WAT      O44521   0.529   6.789   8.499
14760WAT     H144522   0.622   6.794   8.462
14760WAT     H244523   0.471   6.856   8.453
14761WAT      O44524   2.829   6.984   9.891
14761WAT     H144525   2.884   7.065   9.912
14761WAT     H244526   2.889   6.906   9.875
14762WAT      O44527   8.157   6.435   6.496
14762WAT     H144528   8.102   6.493   6.555
14762WAT     H244529   8.103   6.407   6.417
14763WAT      O44530   4.129   3.094   7.220
14763WAT     H144531   4.154   3.004   7.255
14763WAT     H244532   4.164   3.104   7.127
14764WAT      O44533   6.772   7.434   0.277
14764WAT     H144534   6.823   7.352   0.302
14764WAT     H244535   6.830   7.494   0.222
14765WAT      O44536   6.524   1.092   2.557
14765WAT     H144537   6.490   1.008   2.598
14765WAT     H244538   6.610   1.118   2.602
14766WAT      O44539   2.138   2.822   3.356
14766WAT     H144540   2.109   2.732   3.388
14766WAT     H244541   2.208   2.811   3.285
14767WAT      O44542   8.718   5.094   0.660
14767WAT     H144543   8.663   5.012   0.643
14767WAT     H244544   8.810   5.068   0.688
14768WAT      O44545   9.889   7.502   4.294
14768WAT     H144546   9.904   7.464   4.203
14768WAT     H244547   9.790   7.507   4.313
14769WAT      O44548   8.863   7.922   2.217
14769WAT     H144549   8.954   7.881   2.227
14769WAT     H244550   8.813   7.912   2.302
14770WAT      O44551   1.672   6.718   6.077
14770WAT     H144552   1.604   6.776   6.122
14770WAT     H244553   1.760   6.766   6.075
14771WAT      O44554   9.155   1.670   4.243
14771WAT     H144555   9.197   1.670   4.153
14771WAT     H244556   9.059   1.697   4.235
14772WAT      O44557   1.605   7.271   5.346
14772WAT     H144558   1.606   7.357   5.295
14772WAT     H244559   1.522   7.266   5.401
14773WAT      O44560   3.157   9.819   4.841
14773WAT     H144561   3.212   9.824   4.758
14773WAT     H244562   3.066   9.785   4.818
14774WAT      O44563   3.685   9.684   4.276
14774WAT     H144564   3.603   9.642   4.315
14774WAT     H244565   3.660   9.770   4.232
14775WAT      O44566   3.914   8.096   1.497
14775WAT     H144567   3.934   8.194   1.498
14775WAT     H244568   3.933   8.059   1.406
14776WAT      O44569   0.249   0.798   3.942
14776WAT     H144570   0.318   0.860   3.979
14776WAT     H244571   0.160   0.845   3.938
14777WAT      O44572   6.885   2.441   1.193
14777WAT     H144573   6.836   2.524   1.222
14777WAT     H244574   6.977   2.442   1.232
14778WAT      O44575   1.609   4.702   0.240
14778WAT     H144576   1.655   4.630   0.292
14778WAT     H244577   1.554   4.660   0.168
14779WAT      O44578   8.124   0.960   7.771
14779WAT     H144579   8.026   0.963   7.790
14779WAT     H244580   8.175   0.983   7.855
14780WAT      O44581   7.253   1.542   9.880
14780WAT     H144582   7.195   1.623   9.874
14780WAT     H244583   7.244   1.502   9.971
14781WAT      O44584   9.005   8.801   9.507
14781WAT     H144585   9.059   8.724   9.542
14781WAT     H244586   8.959   8.848   9.582
14782WAT      O44587   1.955   6.646   8.440
14782WAT     H144588   2.054   6.637   8.448
14782WAT     H244589   1.926   6.735   8.475
14783WAT      O44590   5.288   8.924   4.035
14783WAT     H144591   5.230   9.003   4.053
14783WAT     H244592   5.327   8.931   3.944
14784WAT      O44593   7.600   7.805   4.037
14784WAT     H144594   7.583   7.899   4.066
14784WAT     H244595   7.699   7.788   4.035
14785WAT      O44596   8.041   4.254   1.241
14785WAT     H144597   8.096   4.265   1.324
14785WAT     H244598   7.986   4.170   1.249
14786WAT      O44599   2.208   6.012   5.738
14786WAT     H144600   2.260   6.051   5.814
14786WAT     H244601   2.254   5.929   5.706
14787WAT      O44602   3.165   8.424   4.135
14787WAT     H144603   3.205   8.335   4.158
14787WAT     H244604   3.238   8.486   4.107
14788WAT      O44605   1.271   5.100   7.878
14788WAT     H144606   1.229   5.073   7.791
14788WAT     H244607   1.204   5.150   7.933
14789WAT      O44608   5.504   4.535   8.946
14789WAT     H144609   5.413   4.520   8.984
14789WAT     H244610   5.506   4.624   8.900
14790WAT      O44611   9.319   2.081   2.895
14790WAT     H144612   9.271   2.076   2.808
14790WAT     H244613   9.352   1.990   2.920
14791WAT      O44614   1.941   1.335   5.620
14791WAT     H144615   1.886   1.346   5.537
14791WAT     H244616   2.008   1.262   5.607
14792WAT      O44617   9.385   7.096   4.396
14792WAT     H144618   9.443   7.066   4.472
14792WAT     H244619   9.344   7.184   4.418
14793WAT      O44620   0.955   3.843   4.209
14793WAT     H144621   1.030   3.840   4.275
14793WAT     H244622   0.900   3.924   4.224
14794WAT      O44623   6.595   2.224   1.571
14794WAT     H144624   6.600   2.138   1.621
14794WAT     H244625   6.576   2.207   1.475
14795WAT      O44626   7.983   4.376   6.690
14795WAT     H144627   7.907   4.320   6.654
14795WAT     H244628   7.976   4.381   6.789
14796WAT      O44629   4.800   2.921   5.589
14796WAT     H144630   4.885   2.937   5.639
14796WAT     H244631   4.740   3.000   5.597
14797WAT      O44632   8.359   9.332   2.536
14797WAT     H144633   8.457   9.352   2.545
14797WAT     H244634   8.306   9.408   2.574
14798WAT      O44635   2.333   1.471   1.302
14798WAT     H144636   2.338   1.529   1.383
14798WAT     H244637   2.401   1.399   1.307
14799WAT      O44638   3.265   8.742   6.445
14799WAT     H144639   3.260   8.833   6.487
14799WAT     H244640   3.301   8.676   6.511
14800WAT      O44641   0.507   7.098   7.660
14800WAT     H144642   0.601   7.110   7.692
14800WAT     H244643   0.446   7.155   7.715
14801WAT      O44644   5.113   0.935   8.619
14801WAT     H144645   5.095   0.938   8.718
14801WAT     H244646   5.102   1.027   8.581
14802WAT      O44647   6.600   6.941   3.224
14802WAT     H144648   6.573   6.883   3.146
14802WAT     H244649   6.589   6.889   3.309
14803WAT      O44650   8.194   7.166   5.699
14803WAT     H144651   8.274   7.208   5.658
14803WAT     H244652   8.111   7.198   5.652
14804WAT      O44653   9.560   5.786   7.180
14804WAT     H144654   9.637   5.723   7.172
14804WAT     H244655   9.475   5.735   7.189
14805WAT      O44656   9.528   3.194   3.785
14805WAT     H144657   9.551   3.140   3.866
14805WAT     H244658   9.492   3.133   3.714
14806WAT      O44659   8.586   7.657   9.696
14806WAT     H144660   8.488   7.667   9.681
14806WAT     H244661   8.635   7.713   9.630
14807WAT      O44662   9.101   3.438   3.429
14807WAT     H144663   9.092   3.535   3.406
14807WAT     H244664   9.197   3.411   3.425
14808WAT      O44665   2.874   4.602   9.305
14808WAT     H144666   2.930   4.681   9.330
14808WAT     H244667   2.893   4.527   9.369
14809WAT      O44668   5.103   1.225   0.948
14809WAT     H144669   5.126   1.318   0.922
14809WAT     H244670   5.183   1.166   0.939
14810WAT      O44671   8.914   6.402   6.186
14810WAT     H144672   8.864   6.425   6.269
14810WAT     H244673   8.982   6.331   6.206
14811WAT      O44674   9.048   9.550   1.592
14811WAT     H144675   9.077   9.455   1.605
14811WAT     H244676   9.112   9.611   1.639
14812WAT      O44677   5.792   1.296   9.538
14812WAT     H144678   5.862   1.245   9.489
14812WAT     H244679   5.836   1.366   9.594
14813WAT      O44680   4.414   2.421   1.906
14813WAT     H144681   4.448   2.377   1.824
14813WAT     H244682   4.400   2.353   1.978
14814WAT      O44683   1.253   4.728   0.332
14814WAT     H144684   1.237   4.776   0.418
14814WAT     H244685   1.258   4.630   0.350
14815WAT      O44686   9.582   2.111   5.406
14815WAT     H144687   9.567   2.027   5.458
14815WAT     H244688   9.639   2.091   5.326
14816WAT      O44689   0.553   7.025   8.944
14816WAT     H144690   0.500   7.100   8.905
14816WAT     H244691   0.644   7.058   8.969
14817WAT      O44692   1.448   1.014   0.088
14817WAT     H144693   1.487   0.935   0.042
14817WAT     H244694   1.376   0.984   0.151
14818WAT      O44695   6.539   2.737   3.993
14818WAT     H144696   6.595   2.724   3.911
14818WAT     H244697   6.455   2.683   3.984
14819WAT      O44698   4.980   2.443   4.414
14819WAT     H144699   5.065   2.446   4.467
14819WAT     H244700   4.996   2.395   4.328
14820WAT      O44701   2.823   1.107   2.139
14820WAT     H144702   2.902   1.079   2.193
14820WAT     H244703   2.739   1.087   2.189
14821WAT      O44704   9.573   7.094   2.528
14821WAT     H144705   9.641   7.081   2.600
14821WAT     H244706   9.571   7.014   2.468
14822WAT      O44707   0.979   1.495   7.735
14822WAT     H144708   1.045   1.570   7.731
14822WAT     H244709   0.984   1.450   7.824
14823WAT      O44710   8.671   4.849   8.976
14823WAT     H144711   8.669   4.798   9.062
14823WAT     H244712   8.766   4.855   8.944
14824WAT      O44713   5.790   3.832   8.422
14824WAT     H144714   5.752   3.760   8.364
14824WAT     H244715   5.848   3.892   8.366
14825WAT      O44716   7.632   9.762   3.769
14825WAT     H144717   7.678   9.676   3.792
14825WAT     H244718   7.536   9.744   3.749
14826WAT      O44719   0.897   8.407   5.011
14826WAT     H144720   0.803   8.436   5.030
14826WAT     H244721   0.945   8.480   4.963
14827WAT      O44722   5.862   8.767   2.939
14827WAT     H144723   5.822   8.693   2.993
14827WAT     H244724   5.845   8.855   2.983
14828WAT      O44725   3.480   0.672   5.975
14828WAT     H144726   3.535   0.631   6.048
14828WAT     H244727   3.481   0.771   5.984
14829WAT      O44728   6.507   1.894   8.729
14829WAT     H144729   6.592   1.844   8.742
14829WAT     H244730   6.429   1.834   8.748
14830WAT      O44731   3.626   1.969   4.719
14830WAT     H144732   3.634   1.938   4.624
14830WAT     H244733   3.614   2.068   4.720
14831WAT      O44734   5.407   3.012   9.508
14831WAT     H144735   5.394   3.085   9.441
14831WAT     H244736   5.495   3.024   9.555
14832WAT      O44737   8.662   8.702   1.439
14832WAT     H144738   8.617   8.659   1.518
14832WAT     H244739   8.698   8.791   1.466
14833WAT      O44740   9.457   4.248   7.339
14833WAT     H144741   9.535   4.206   7.292
14833WAT     H244742   9.372   4.205   7.307
14834WAT      O44743   9.816   8.224   5.723
14834WAT     H144744   9.859   8.303   5.680
14834WAT     H244745   9.760   8.176   5.656
14835WAT      O44746   5.939   1.821   0.698
14835WAT     H144747   5.877   1.869   0.759
14835WAT     H244748   5.993   1.755   0.750
14836WAT      O44749   8.063   7.464   7.574
14836WAT     H144750   8.026   7.399   7.641
14836WAT     H244751   8.030   7.441   7.483
14837WAT      O44752   5.311   0.332   4.761
14837WAT     H144753   5.399   0.286   4.769
14837WAT     H244754   5.323   0.431   4.773
14838WAT      O44755   0.949   7.801   2.061
14838WAT     H144756   1.021   7.870   2.066
14838WAT     H244757   0.899   7.798   2.148
14839WAT      O44758   0.908   1.586   0.658
14839WAT     H144759   0.827   1.534   0.631
14839WAT     H244760   0.953   1.622   0.576
14840WAT      O44761   4.691   5.292   2.545
14840WAT     H144762   4.635   5.322   2.468
14840WAT     H244763   4.680   5.193   2.557
14841WAT      O44764   3.805   4.700   4.398
14841WAT     H144765   3.851   4.691   4.486
14841WAT     H244766   3.710   4.669   4.406
14842WAT      O44767   1.010   4.570   4.434
14842WAT     H144768   1.060   4.641   4.385
14842WAT     H244769   0.912   4.579   4.415
14843WAT      O44770   1.670   7.006   5.311
14843WAT     H144771   1.624   7.095   5.312
14843WAT     H244772   1.608   6.936   5.349
14844WAT      O44773   2.455   2.353   6.448
14844WAT     H144774   2.463   2.452   6.457
14844WAT     H244775   2.444   2.329   6.351
14845WAT      O44776   4.909   4.950   7.679
14845WAT     H144777   4.938   4.854   7.688
14845WAT     H244778   4.887   4.969   7.584
14846WAT      O44779   5.191   2.858   0.896
14846WAT     H144780   5.091   2.857   0.901
14846WAT     H244781   5.227   2.920   0.965
14847WAT      O44782   1.143   5.607   3.893
14847WAT     H144783   1.217   5.624   3.828
14847WAT     H244784   1.148   5.674   3.967
14848WAT      O44785   0.654   7.752   0.299
14848WAT     H144786   0.753   7.749   0.286
14848WAT     H244787   0.619   7.841   0.271
14849WAT      O44788   9.749   6.624   0.979
14849WAT     H144789   9.789   6.620   1.071
14849WAT     H244790   9.677   6.694   0.978
14850WAT      O44791   9.707   9.047   6.075
14850WAT     H144792   9.708   9.094   5.986
14850WAT     H244793   9.798   9.013   6.096
14851WAT      O44794   4.159   0.948   9.843
14851WAT     H144795   4.072   0.910   9.875
14851WAT     H244796   4.222   0.958   9.920
14852WAT      O44797   6.996   2.589   2.600
14852WAT     H144798   6.990   2.673   2.653
14852WAT     H244799   6.978   2.610   2.503
14853WAT      O44800   5.944   4.595   7.139
14853WAT     H144801   5.913   4.570   7.231
14853WAT     H244802   5.998   4.679   7.143
14854WAT      O44803   3.869   2.182   1.999
14854WAT     H144804   3.945   2.118   2.009
14854WAT     H244805   3.790   2.134   1.961
14855WAT      O44806   0.210   4.310   9.378
14855WAT     H144807   0.211   4.251   9.297
14855WAT     H244808   0.139   4.380   9.367
14856WAT      O44809   9.230   6.610   9.320
14856WAT     H144810   9.200   6.698   9.285
14856WAT     H244811   9.221   6.609   9.420
14857WAT      O44812   5.393   4.247   0.808
14857WAT     H144813   5.419   4.275   0.715
14857WAT     H244814   5.388   4.148   0.813
14858WAT      O44815   9.609   7.668   8.285
14858WAT     H144816   9.592   7.584   8.233
14858WAT     H244817   9.537   7.680   8.353
14859WAT      O44818   9.647   0.271   7.760
14859WAT     H144819   9.710   0.215   7.706
14859WAT     H244820   9.647   0.238   7.855
14860WAT      O44821   2.299   1.199   9.096
14860WAT     H144822   2.383   1.248   9.116
14860WAT     H244823   2.228   1.264   9.068
14861WAT      O44824   9.689   5.058   1.449
14861WAT     H144825   9.653   4.976   1.404
14861WAT     H244826   9.771   5.088   1.401
14862WAT      O44827   0.236   6.403   4.336
14862WAT     H144828   0.204   6.496   4.349
14862WAT     H244829   0.334   6.398   4.355
14863WAT      O44830   3.114   6.839   5.822
14863WAT     H144831   3.033   6.894   5.844
14863WAT     H244832   3.181   6.847   5.896
14864WAT      O44833   4.088   2.085   7.729
14864WAT     H144834   4.135   1.998   7.739
14864WAT     H244835   4.036   2.106   7.812
14865WAT      O44836   0.792   2.519   3.838
14865WAT     H144837   0.762   2.448   3.902
14865WAT     H244838   0.823   2.476   3.753
14866WAT      O44839   5.876   6.427   4.548
14866WAT     H144840   5.970   6.449   4.521
14866WAT     H244841   5.814   6.449   4.474
14867WAT      O44842   1.797   5.106   9.144
14867WAT     H144843   1.818   5.035   9.210
14867WAT     H244844   1.721   5.162   9.177
14868WAT      O44845   5.745   5.824   2.086
14868WAT     H144846   5.765   5.861   1.996
14868WAT     H244847   5.818   5.849   2.150
14869WAT      O44848   8.446   7.828   2.956
14869WAT     H144849   8.370   7.885   2.924
14869WAT     H244850   8.456   7.839   3.055
14870WAT      O44851   7.336   8.557   3.442
14870WAT     H144852   7.434   8.557   3.422
14870WAT     H244853   7.309   8.647   3.476
14871WAT      O44854   9.467   0.775   1.725
14871WAT     H144855   9.545   0.716   1.701
14871WAT     H244856   9.439   0.827   1.644
14872WAT      O44857   4.566   8.876   2.892
14872WAT     H144858   4.511   8.913   2.967
14872WAT     H244859   4.505   8.834   2.824
14873WAT      O44860   0.534   9.010   3.306
14873WAT     H144861   0.622   9.054   3.326
14873WAT     H244862   0.478   9.071   3.250
14874WAT      O44863   2.217   1.919   8.963
14874WAT     H144864   2.300   1.966   8.993
14874WAT     H244865   2.140   1.946   9.021
14875WAT      O44866   3.851   2.674   5.405
14875WAT     H144867   3.858   2.655   5.307
14875WAT     H244868   3.888   2.598   5.457
14876WAT      O44869   0.929   4.426   8.168
14876WAT     H144870   0.998   4.459   8.103
14876WAT     H244871   0.968   4.423   8.260
14877WAT      O44872   3.014   2.845   8.126
14877WAT     H144873   2.919   2.819   8.140
14877WAT     H244874   3.034   2.930   8.175
14878WAT      O44875   1.623   4.863   4.900
14878WAT     H144876   1.666   4.890   4.814
14878WAT     H244877   1.524   4.872   4.892
14879WAT      O44878   4.763   8.731   2.094
14879WAT     H144879   4.820   8.742   2.012
14879WAT     H244880   4.779   8.640   2.133
14880WAT      O44881   3.088   8.265   9.767
14880WAT     H144882   3.048   8.357   9.760
14880WAT     H244883   3.109   8.230   9.676
14881WAT      O44884   7.912   5.966   0.241
14881WAT     H144885   7.909   6.018   0.327
14881WAT     H244886   7.926   5.869   0.261
14882WAT      O44887   0.133   0.796   7.540
14882WAT     H144888   0.146   0.838   7.630
14882WAT     H244889   0.072   0.717   7.549
14883WAT      O44890   3.695   5.990   4.491
14883WAT     H144891   3.754   6.041   4.429
14883WAT     H244892   3.740   5.904   4.517
14884WAT      O44893   0.308   7.797   1.077
14884WAT     H144894   0.306   7.845   1.165
14884WAT     H244895   0.285   7.860   1.003
14885WAT      O44896   7.470   1.682   5.924
14885WAT     H144897   7.531   1.701   5.847
14885WAT     H244898   7.411   1.761   5.940
14886WAT      O44899   3.651   8.383   3.664
14886WAT     H144900   3.642   8.483   3.657
14886WAT     H244901   3.578   8.347   3.721
14887WAT      O44902   4.254   6.934   1.369
14887WAT     H144903   4.241   6.980   1.457
14887WAT     H244904   4.185   6.864   1.357
14888WAT      O44905   5.471   9.358   3.634
14888WAT     H144906   5.552   9.402   3.673
14888WAT     H244907   5.489   9.331   3.540
14889WAT      O44908   2.628   7.378   9.414
14889WAT     H144909   2.544   7.391   9.467
14889WAT     H244910   2.690   7.318   9.465
14890WAT      O44911   8.126   3.239   5.982
14890WAT     H144912   8.117   3.193   6.070
14890WAT     H244913   8.176   3.325   5.995
14891WAT      O44914   6.602   1.084   3.762
14891WAT     H144915   6.652   1.029   3.829
14891WAT     H244916   6.534   1.027   3.716
14892WAT      O44917   0.937   7.491   5.841
14892WAT     H144918   1.000   7.416   5.822
14892WAT     H244919   0.900   7.525   5.754
14893WAT      O44920   8.495   6.162   8.918
14893WAT     H144921   8.502   6.157   8.819
14893WAT     H244922   8.415   6.217   8.944
14894WAT      O44923   3.732   2.099   5.561
14894WAT     H144924   3.821   2.099   5.606
14894WAT     H244925   3.730   2.168   5.489
14895WAT      O44926   3.676   5.771   6.176
14895WAT     H144927   3.757   5.726   6.140
14895WAT     H244928   3.684   5.870   6.163
14896WAT      O44929   4.625   2.999   4.334
14896WAT     H144930   4.534   2.977   4.298
14896WAT     H244931   4.618   3.077   4.396
14897WAT      O44932   5.459   7.598   6.599
14897WAT     H144933   5.410   7.647   6.526
14897WAT     H244934   5.476   7.659   6.676
14898WAT      O44935   8.967   7.252   0.087
14898WAT     H144936   9.030   7.258   0.165
14898WAT     H244937   9.006   7.192   0.018
14899WAT      O44938   3.319   5.711   6.991
14899WAT     H144939   3.415   5.708   6.961
14899WAT     H244940   3.316   5.732   7.089
14900WAT      O44941   6.366   1.166   8.482
14900WAT     H144942   6.269   1.150   8.465
14900WAT     H244943   6.377   1.246   8.540
14901WAT      O44944   1.445   8.040   2.846
14901WAT     H144945   1.480   8.097   2.772
14901WAT     H244946   1.376   8.090   2.898
14902WAT      O44947   3.765   7.024   0.515
14902WAT     H144948   3.667   7.005   0.521
14902WAT     H244949   3.783   7.118   0.545
14903WAT      O44950   5.730   3.256   8.720
14903WAT     H144951   5.738   3.354   8.704
14903WAT     H244952   5.683   3.213   8.642
14904WAT      O44953   3.788   0.702   0.301
14904WAT     H144954   3.791   0.604   0.282
14904WAT     H244955   3.693   0.729   0.318
14905WAT      O44956   1.379   3.689   3.781
14905WAT     H144957   1.398   3.776   3.735
14905WAT     H244958   1.464   3.654   3.822
14906WAT      O44959   5.320   7.909   4.914
14906WAT     H144960   5.325   8.006   4.941
14906WAT     H244961   5.235   7.869   4.947
14907WAT      O44962   4.618   9.132   8.469
14907WAT     H144963   4.671   9.085   8.398
14907WAT     H244964   4.633   9.088   8.557
14908WAT      O44965   1.507   2.558   0.934
14908WAT     H144966   1.481   2.529   0.842
14908WAT     H244967   1.523   2.657   0.934
14909WAT      O44968   4.708   2.078   6.293
14909WAT     H144969   4.749   2.013   6.357
14909WAT     H244970   4.618   2.045   6.265
14910WAT      O44971   5.301   7.897   5.949
14910WAT     H144972   5.221   7.921   5.893
14910WAT     H244973   5.329   7.976   6.002
14911WAT      O44974   6.999   4.430   0.055
14911WAT     H144975   6.970   4.339   0.083
14911WAT     H244976   7.047   4.425  -0.032
14912WAT      O44977   9.859   4.100   9.803
14912WAT     H144978   9.774   4.094   9.751
14912WAT     H244979   9.915   4.020   9.783
14913WAT      O44980   5.868   0.608   0.737
14913WAT     H144981   5.780   0.581   0.777
14913WAT     H244982   5.852   0.673   0.663
14914WAT      O44983   6.134   4.706   3.004
14914WAT     H144984   6.034   4.703   2.992
14914WAT     H244985   6.158   4.664   3.091
14915WAT      O44986   7.932   1.612   0.683
14915WAT     H144987   7.916   1.554   0.763
14915WAT     H244988   7.862   1.595   0.614
14916WAT      O44989   0.369   4.628   2.021
14916WAT     H144990   0.349   4.553   1.958
14916WAT     H244991   0.445   4.602   2.080
14917WAT      O44992   8.501   1.531   6.264
14917WAT     H144993   8.588   1.569   6.231
14917WAT     H244994   8.432   1.538   6.192
14918WAT      O44995   8.132   4.133   9.708
14918WAT     H144996   8.079   4.214   9.734
14918WAT     H244997   8.172   4.092   9.790
14919WAT      O44998   5.542   6.758   3.137
14919WAT     H144999   5.580   6.814   3.063
14919WAT     H245000   5.597   6.676   3.149
14920WAT      O45001   7.784   4.244   6.595
14920WAT     H145002   7.727   4.163   6.592
14920WAT     H245003   7.770   4.298   6.512
14921WAT      O45004   0.403   0.120   8.708
14921WAT     H145005   0.385   0.095   8.613
14921WAT     H245006   0.319   0.154   8.750
14922WAT      O45007   4.046   1.095   8.757
14922WAT     H145008   4.081   1.174   8.707
14922WAT     H245009   4.051   1.014   8.699
14923WAT      O45010   7.668   0.159   1.738
14923WAT     H145011   7.752   0.116   1.771
14923WAT     H245012   7.598   0.155   1.809
14924WAT      O45013   1.133   7.858   2.517
14924WAT     H145014   1.212   7.867   2.579
14924WAT     H245015   1.159   7.802   2.439
14925WAT      O45016   9.182   4.600   1.940
14925WAT     H145017   9.175   4.657   1.858
14925WAT     H245018   9.094   4.556   1.958
14926WAT      O45019   1.461   4.006   0.950
14926WAT     H145020   1.415   4.093   0.969
14926WAT     H245021   1.559   4.022   0.938
14927WAT      O45022   8.634   4.953   3.287
14927WAT     H145023   8.709   4.931   3.350
14927WAT     H245024   8.558   4.994   3.337
14928WAT      O45025   9.134   4.843   1.787
14928WAT     H145026   9.060   4.884   1.734
14928WAT     H245027   9.213   4.827   1.727
14929WAT      O45028   4.391   3.264   9.834
14929WAT     H145029   4.449   3.296   9.759
14929WAT     H245030   4.416   3.170   9.857
14930WAT      O45031   8.394   3.385   0.172
14930WAT     H145032   8.431   3.339   0.252
14930WAT     H245033   8.435   3.347   0.089
14931WAT      O45034   3.558   6.279   2.282
14931WAT     H145035   3.573   6.299   2.378
14931WAT     H245036   3.535   6.364   2.233
14932WAT      O45037   5.146   1.282   9.340
14932WAT     H145038   5.192   1.301   9.427
14932WAT     H245039   5.102   1.365   9.307
14933WAT      O45040   5.296   4.618   6.550
14933WAT     H145041   5.263   4.707   6.519
14933WAT     H245042   5.396   4.615   6.542
14934WAT      O45043   5.783   8.694   9.120
14934WAT     H145044   5.854   8.676   9.188
14934WAT     H245045   5.694   8.702   9.165
14935WAT      O45046   2.441   6.431   1.392
14935WAT     H145047   2.461   6.520   1.352
14935WAT     H245048   2.498   6.417   1.473
14936WAT      O45049   4.218   7.186   1.274
14936WAT     H145050   4.186   7.236   1.355
14936WAT     H245051   4.226   7.089   1.295
14937WAT      O45052   7.161   3.051   6.222
14937WAT     H145053   7.156   3.150   6.210
14937WAT     H245054   7.075   3.018   6.262
14938WAT      O45055   7.188   1.849   6.308
14938WAT     H145056   7.161   1.869   6.214
14938WAT     H245057   7.286   1.829   6.311
14939WAT      O45058   5.965   4.694   8.028
14939WAT     H145059   5.982   4.663   8.121
14939WAT     H245060   5.868   4.685   8.007
14940WAT      O45061   9.432   7.672   5.075
14940WAT     H145062   9.520   7.717   5.090
14940WAT     H245063   9.423   7.594   5.136
14941WAT      O45064   9.814   8.445   4.884
14941WAT     H145065   9.905   8.467   4.850
14941WAT     H245066   9.769   8.528   4.917
14942WAT      O45067   1.759   3.310   8.925
14942WAT     H145068   1.774   3.227   8.977
14942WAT     H245069   1.745   3.387   8.987
14943WAT      O45070   9.775   5.322   6.206
14943WAT     H145071   9.730   5.241   6.166
14943WAT     H245072   9.830   5.294   6.284
14944WAT      O45073   7.810   2.449   0.463
14944WAT     H145074   7.840   2.542   0.482
14944WAT     H245075   7.714   2.450   0.435
14945WAT      O45076   8.200   3.844   3.804
14945WAT     H145077   8.240   3.934   3.787
14945WAT     H245078   8.200   3.825   3.902
14946WAT      O45079   3.310   3.183   9.097
14946WAT     H145080   3.324   3.206   9.194
14946WAT     H245081   3.394   3.203   9.046
14947WAT      O45082   7.809   3.265   2.679
14947WAT     H145083   7.872   3.190   2.661
14947WAT     H245084   7.829   3.303   2.770
14948WAT      O45085   7.715   1.409   7.435
14948WAT     H145086   7.679   1.316   7.443
14948WAT     H245087   7.793   1.420   7.497
14949WAT      O45088   2.931   9.746   5.332
14949WAT     H145089   2.850   9.804   5.346
14949WAT     H245090   2.939   9.682   5.408
14950WAT      O45091   5.111   9.364   1.597
14950WAT     H145092   5.045   9.324   1.534
14950WAT     H245093   5.105   9.318   1.686
14951WAT      O45094   8.438   9.674   2.165
14951WAT     H145095   8.530   9.679   2.127
14951WAT     H245096   8.413   9.578   2.177
14952WAT      O45097   7.477   6.893   6.131
14952WAT     H145098   7.430   6.980   6.148
14952WAT     H245099   7.430   6.820   6.180
14953WAT      O45100   3.279   7.015   7.122
14953WAT     H145101   3.291   7.108   7.157
14953WAT     H245102   3.184   7.003   7.093
14954WAT      O45103   5.620   0.568   3.023
14954WAT     H145104   5.654   0.642   2.966
14954WAT     H245105   5.525   0.548   3.000
14955WAT      O45106   2.412   4.135   1.457
14955WAT     H145107   2.370   4.050   1.425
14955WAT     H245108   2.431   4.128   1.555
14956WAT      O45109   8.450   2.044   8.751
14956WAT     H145110   8.494   2.122   8.707
14956WAT     H245111   8.464   2.049   8.850
14957WAT      O45112   9.754   8.011   4.750
14957WAT     H145113   9.840   8.059   4.765
14957WAT     H245114   9.769   7.934   4.687
14958WAT      O45115   8.796   5.958   7.434
14958WAT     H145116   8.711   5.999   7.402
14958WAT     H245117   8.874   6.008   7.395
14959WAT      O45118   5.422   1.107   8.004
14959WAT     H145119   5.396   1.141   7.914
14959WAT     H245120   5.391   1.013   8.015
14960WAT      O45121   0.223   0.430   9.512
14960WAT     H145122   0.180   0.453   9.424
14960WAT     H245123   0.190   0.341   9.542
14961WAT      O45124   6.408   9.586   3.126
14961WAT     H145125   6.475   9.635   3.182
14961WAT     H245126   6.318   9.590   3.170
14962WAT      O45127   4.684   4.737   9.460
14962WAT     H145128   4.707   4.765   9.553
14962WAT     H245129   4.641   4.813   9.412
14963WAT      O45130   7.369   7.050   9.712
14963WAT     H145131   7.428   7.004   9.779
14963WAT     H245132   7.377   7.004   9.624
14964WAT      O45133   5.929   1.193   1.274
14964WAT     H145134   5.918   1.246   1.191
14964WAT     H245135   5.842   1.152   1.300
14965WAT      O45136   3.593   0.302   7.730
14965WAT     H145137   3.673   0.328   7.675
14965WAT     H245138   3.567   0.208   7.710
14966WAT      O45139   7.584   6.992   7.557
14966WAT     H145140   7.520   7.066   7.536
14966WAT     H245141   7.622   6.956   7.472
14967WAT      O45142   5.176   3.488   8.199
14967WAT     H145143   5.188   3.421   8.125
14967WAT     H245144   5.078   3.498   8.219
14968WAT      O45145   1.256   6.308   6.337
14968WAT     H145146   1.271   6.233   6.272
14968WAT     H245147   1.157   6.324   6.347
14969WAT      O45148   3.951   6.723   8.634
14969WAT     H145149   3.871   6.777   8.610
14969WAT     H245150   3.994   6.687   8.551
14970WAT      O45151   9.255   8.194   9.797
14970WAT     H145152   9.194   8.128   9.841
14970WAT     H245153   9.294   8.254   9.867
14971WAT      O45154   7.477   4.162   9.426
14971WAT     H145155   7.564   4.198   9.392
14971WAT     H245156   7.422   4.130   9.350
14972WAT      O45157   4.819   9.807   0.603
14972WAT     H145158   4.872   9.734   0.561
14972WAT     H245159   4.724   9.777   0.613
14973WAT      O45160   8.271   2.288   2.880
14973WAT     H145161   8.338   2.351   2.840
14973WAT     H245162   8.317   2.230   2.947
14974WAT      O45163   6.241   2.596   7.957
14974WAT     H145164   6.273   2.676   8.007
14974WAT     H245165   6.310   2.524   7.962
14975WAT      O45166   7.969   7.892   6.422
14975WAT     H145167   8.020   7.874   6.338
14975WAT     H245168   7.877   7.852   6.415
14976WAT      O45169   6.290   5.994   9.561
14976WAT     H145170   6.205   6.040   9.539
14976WAT     H245171   6.337   6.042   9.635
14977WAT      O45172   2.503   5.489   6.915
14977WAT     H145173   2.553   5.480   6.829
14977WAT     H245174   2.551   5.437   6.986
14978WAT      O45175   4.906   5.826   8.213
14978WAT     H145176   4.892   5.845   8.116
14978WAT     H245177   4.835   5.763   8.245
14979WAT      O45178   9.176   8.892   3.390
14979WAT     H145179   9.239   8.830   3.343
14979WAT     H245180   9.203   8.902   3.485
14980WAT      O45181   3.735   9.647   0.471
14980WAT     H145182   3.653   9.657   0.527
14980WAT     H245183   3.804   9.595   0.522
14981WAT      O45184   4.588   4.860   8.825
14981WAT     H145185   4.494   4.862   8.790
14981WAT     H245186   4.593   4.913   8.909
14982WAT      O45187   8.025   4.012   1.031
14982WAT     H145188   8.066   3.962   0.955
14982WAT     H245189   8.087   4.084   1.060
14983WAT      O45190   7.784   6.669   4.022
14983WAT     H145191   7.782   6.625   4.111
14983WAT     H245192   7.799   6.601   3.951
14984WAT      O45193   5.751   7.919   9.067
14984WAT     H145194   5.693   7.847   9.029
14984WAT     H245195   5.755   7.909   9.167
14985WAT      O45196   3.613   2.245   4.719
14985WAT     H145197   3.588   2.292   4.804
14985WAT     H245198   3.707   2.269   4.694
14986WAT      O45199   3.759   3.225   0.556
14986WAT     H145200   3.819   3.274   0.493
14986WAT     H245201   3.814   3.167   0.616
14987WAT      O45202   9.780   8.547   1.223
14987WAT     H145203   9.858   8.593   1.180
14987WAT     H245204   9.782   8.562   1.322
14988WAT      O45205   3.345   7.105   5.694
14988WAT     H145206   3.349   7.134   5.599
14988WAT     H245207   3.381   7.178   5.753
14989WAT      O45208   5.431   0.071   5.643
14989WAT     H145209   5.435   0.116   5.732
14989WAT     H245210   5.338   0.075   5.607
14990WAT      O45211   8.294   9.481   0.610
14990WAT     H145212   8.292   9.401   0.670
14990WAT     H245213   8.237   9.554   0.648
14991WAT      O45214   2.692   5.530   7.366
14991WAT     H145215   2.613   5.591   7.371
14991WAT     H245216   2.672   5.446   7.417
14992WAT      O45217   4.887   6.638   8.990
14992WAT     H145218   4.824   6.664   8.917
14992WAT     H245219   4.976   6.614   8.950
14993WAT      O45220   1.304   4.952   2.869
14993WAT     H145221   1.334   5.037   2.826
14993WAT     H245222   1.303   4.879   2.801
14994WAT      O45223   7.567   1.326   1.223
14994WAT     H145224   7.630   1.330   1.300
14994WAT     H245225   7.498   1.397   1.233
14995WAT      O45226   0.925   7.088   4.287
14995WAT     H145227   0.876   7.004   4.263
14995WAT     H245228   1.010   7.093   4.236
14996WAT      O45229   1.182   2.622   1.977
14996WAT     H145230   1.139   2.601   1.889
14996WAT     H245231   1.115   2.612   2.050
14997WAT      O45232   9.861   4.253   5.019
14997WAT     H145233   9.801   4.310   4.963
14997WAT     H245234   9.820   4.239   5.109
14998WAT      O45235   8.732   4.606   2.026
14998WAT     H145236   8.802   4.647   2.085
14998WAT     H245237   8.649   4.661   2.031
14999WAT      O45238   2.031   5.539   3.681
14999WAT     H145239   2.006   5.612   3.745
14999WAT     H245240   1.963   5.536   3.607
15000WAT      O45241   1.153   9.276   5.041
15000WAT     H145242   1.178   9.230   5.126
15000WAT     H245243   1.211   9.243   4.967
15001WAT      O45244   8.137   7.513   4.791
15001WAT     H145245   8.059   7.492   4.849
15001WAT     H245246   8.218   7.527   4.848
15002WAT      O45247   9.316   3.305   0.309
15002WAT     H145248   9.239   3.368   0.318
15002WAT     H245249   9.375   3.335   0.234
15003WAT      O45250   0.275   9.781   5.995
15003WAT     H145251   0.234   9.850   5.936
15003WAT     H245252   0.360   9.747   5.954
15004WAT      O45253   3.923   2.533   3.583
15004WAT     H145254   3.963   2.623   3.598
15004WAT     H245255   3.843   2.522   3.643
15005WAT      O45256   2.311   8.236   6.863
15005WAT     H145257   2.380   8.256   6.793
15005WAT     H245258   2.248   8.166   6.828
15006WAT      O45259   4.679   1.499   1.882
15006WAT     H145260   4.760   1.454   1.921
15006WAT     H245261   4.599   1.479   1.939
15007WAT      O45262   2.012   4.328   4.921
15007WAT     H145263   1.974   4.293   5.007
15007WAT     H245264   1.998   4.427   4.917
15008WAT      O45265   4.332   7.424   3.877
15008WAT     H145266   4.402   7.466   3.934
15008WAT     H245267   4.241   7.449   3.911
15009WAT      O45268   9.155   7.205   1.226
15009WAT     H145269   9.245   7.166   1.247
15009WAT     H245270   9.167   7.299   1.195
15010WAT      O45271   6.440   9.810   0.298
15010WAT     H145272   6.362   9.864   0.267
15010WAT     H245273   6.428   9.715   0.269
15011WAT      O45274   7.337   4.497   5.817
15011WAT     H145275   7.402   4.549   5.873
15011WAT     H245276   7.363   4.504   5.720
15012WAT      O45277   1.609   4.631   1.450
15012WAT     H145278   1.665   4.657   1.372
15012WAT     H245279   1.535   4.571   1.419
15013WAT      O45280   3.312   3.091   2.483
15013WAT     H145281   3.217   3.125   2.483
15013WAT     H245282   3.362   3.133   2.407
15014WAT      O45283   7.939   0.872   0.248
15014WAT     H145284   7.901   0.818   0.173
15014WAT     H245285   7.961   0.812   0.325
15015WAT      O45286   3.713   3.964   2.194
15015WAT     H145287   3.670   3.933   2.279
15015WAT     H245288   3.809   3.985   2.211
15016WAT      O45289   9.382   2.116   3.253
15016WAT     H145290   9.376   2.022   3.218
15016WAT     H245291   9.345   2.179   3.185
15017WAT      O45292   4.804   7.099   4.518
15017WAT     H145293   4.903   7.106   4.503
15017WAT     H245294   4.781   7.005   4.544
15018WAT      O45295   3.152   2.723   7.132
15018WAT     H145296   3.168   2.793   7.201
15018WAT     H245297   3.116   2.766   7.049
15019WAT      O45298   6.678   3.070   0.967
15019WAT     H145299   6.600   3.115   0.925
15019WAT     H245300   6.657   3.047   1.062
15020WAT      O45301   0.960   1.665   4.425
15020WAT     H145302   0.953   1.600   4.350
15020WAT     H245303   0.989   1.617   4.508
15021WAT      O45304   7.334   1.707   5.659
15021WAT     H145305   7.273   1.771   5.613
15021WAT     H245306   7.287   1.667   5.738
15022WAT      O45307   3.481   3.971   2.015
15022WAT     H145308   3.561   3.971   2.075
15022WAT     H245309   3.448   4.065   2.004
15023WAT      O45310   1.752   0.696   2.151
15023WAT     H145311   1.739   0.621   2.086
15023WAT     H245312   1.727   0.665   2.243
15024WAT      O45313   6.940   8.865   0.276
15024WAT     H145314   6.927   8.882   0.178
15024WAT     H245315   6.998   8.784   0.288
15025WAT      O45316   9.036   4.941   7.169
15025WAT     H145317   9.010   4.868   7.107
15025WAT     H245318   9.046   4.904   7.262
15026WAT      O45319   7.386   3.446   4.020
15026WAT     H145320   7.436   3.496   3.949
15026WAT     H245321   7.360   3.356   3.984
15027WAT      O45322   8.274   8.074   5.457
15027WAT     H145323   8.263   8.065   5.556
15027WAT     H245324   8.194   8.122   5.419
15028WAT      O45325   5.218   4.392   9.286
15028WAT     H145326   5.265   4.304   9.280
15028WAT     H245327   5.247   4.451   9.210
15029WAT      O45328   1.656   1.314   3.717
15029WAT     H145329   1.560   1.322   3.689
15029WAT     H245330   1.660   1.277   3.810
15030WAT      O45331   0.154   4.887   1.472
15030WAT     H145332   0.130   4.798   1.433
15030WAT     H245333   0.111   4.896   1.562
15031WAT      O45334   7.544   9.777   1.644
15031WAT     H145335   7.585   9.856   1.688
15031WAT     H245336   7.551   9.697   1.704
15032WAT      O45337   7.523   2.516   4.055
15032WAT     H145338   7.457   2.443   4.075
15032WAT     H245339   7.614   2.488   4.083
15033WAT      O45340   1.228   7.151   0.708
15033WAT     H145341   1.287   7.090   0.655
15033WAT     H245342   1.186   7.219   0.647
15034WAT      O45343   2.114   7.022   0.513
15034WAT     H145344   2.190   6.956   0.512
15034WAT     H245345   2.027   6.974   0.503
15035WAT      O45346   9.608   1.393   2.599
15035WAT     H145347   9.651   1.303   2.592
15035WAT     H245348   9.674   1.458   2.636
15036WAT      O45349   7.272   3.506   1.184
15036WAT     H145350   7.343   3.568   1.151
15036WAT     H245351   7.189   3.520   1.130
15037WAT      O45352   6.074   7.858   7.932
15037WAT     H145353   6.052   7.938   7.989
15037WAT     H245354   6.138   7.799   7.981
15038WAT      O45355   2.279   6.853   8.515
15038WAT     H145356   2.239   6.774   8.469
15038WAT     H245357   2.232   6.869   8.602
15039WAT      O45358   7.087   8.175   3.164
15039WAT     H145359   7.187   8.177   3.159
15039WAT     H245360   7.056   8.080   3.171
15040WAT      O45361   0.900   5.727   5.606
15040WAT     H145362   0.877   5.766   5.695
15040WAT     H245363   0.865   5.786   5.533
15041WAT      O45364   6.312   1.593   0.564
15041WAT     H145365   6.406   1.610   0.591
15041WAT     H245366   6.275   1.674   0.518
15042WAT      O45367   0.073   8.774   9.175
15042WAT     H145368   0.149   8.711   9.191
15042WAT     H245369   0.102   8.867   9.194
15043WAT      O45370   1.040   6.854   0.287
15043WAT     H145371   0.983   6.928   0.253
15043WAT     H245372   0.994   6.808   0.363
15044WAT      O45373   6.946   1.124   0.527
15044WAT     H145374   6.877   1.131   0.600
15044WAT     H245375   6.983   1.031   0.527
15045WAT      O45376   0.740   1.930   6.920
15045WAT     H145377   0.808   1.883   6.975
15045WAT     H245378   0.761   2.028   6.916
15046WAT      O45379   8.238   7.143   2.529
15046WAT     H145380   8.229   7.199   2.446
15046WAT     H245381   8.331   7.151   2.565
15047WAT      O45382   7.841   8.918   2.784
15047WAT     H145383   7.758   8.925   2.730
15047WAT     H245384   7.832   8.842   2.849
15048WAT      O45385   8.268   8.001   8.539
15048WAT     H145386   8.227   8.092   8.537
15048WAT     H245387   8.311   7.982   8.451
15049WAT      O45388   7.789   3.837   0.764
15049WAT     H145389   7.719   3.771   0.793
15049WAT     H245390   7.790   3.914   0.828
15050WAT      O45391   5.914   7.476   0.725
15050WAT     H145392   5.837   7.476   0.789
15050WAT     H245393   5.913   7.561   0.672
15051WAT      O45394   6.464   8.721   9.528
15051WAT     H145395   6.548   8.673   9.504
15051WAT     H245396   6.391   8.695   9.464
15052WAT      O45397   8.884   5.125   2.990
15052WAT     H145398   8.926   5.071   2.917
15052WAT     H245399   8.921   5.095   3.078
15053WAT      O45400   0.800   4.700   8.569
15053WAT     H145401   0.810   4.776   8.633
15053WAT     H245402   0.723   4.643   8.597
15054WAT      O45403   4.878   0.444   9.060
15054WAT     H145404   4.958   0.395   9.094
15054WAT     H245405   4.869   0.429   8.961
15055WAT      O45406   9.410   7.664   7.074
15055WAT     H145407   9.471   7.627   7.004
15055WAT     H245408   9.461   7.727   7.133
15056WAT      O45409   2.604   8.740   7.987
15056WAT     H145410   2.519   8.788   8.009
15056WAT     H245411   2.623   8.749   7.889
15057WAT      O45412   4.730   0.335   3.160
15057WAT     H145413   4.827   0.353   3.180
15057WAT     H245414   4.714   0.349   3.062
15058WAT      O45415   0.833   7.321   8.662
15058WAT     H145416   0.892   7.401   8.653
15058WAT     H245417   0.889   7.242   8.687
15059WAT      O45418   5.085   7.632   8.240
15059WAT     H145419   5.088   7.688   8.157
15059WAT     H245420   4.992   7.598   8.255
15060WAT      O45421   7.743   4.852   7.794
15060WAT     H145422   7.689   4.887   7.718
15060WAT     H245423   7.798   4.774   7.763
15061WAT      O45424   1.748   9.188   9.571
15061WAT     H145425   1.819   9.174   9.641
15061WAT     H245426   1.659   9.168   9.610
15062WAT      O45427   3.286   1.291   2.363
15062WAT     H145428   3.282   1.390   2.355
15062WAT     H245429   3.355   1.265   2.431
15063WAT      O45430   7.535   7.218   9.052
15063WAT     H145431   7.485   7.201   8.967
15063WAT     H245432   7.606   7.148   9.064
15064WAT      O45433   6.556   1.266   5.992
15064WAT     H145434   6.635   1.227   6.038
15064WAT     H245435   6.580   1.290   5.898
15065WAT      O45436   3.133   1.765   7.389
15065WAT     H145437   3.103   1.693   7.451
15065WAT     H245438   3.205   1.819   7.434
15066WAT      O45439   1.776   6.808   4.685
15066WAT     H145440   1.821   6.794   4.597
15066WAT     H245441   1.689   6.759   4.686
15067WAT      O45442   9.128   6.894   0.135
15067WAT     H145443   9.206   6.942   0.177
15067WAT     H245444   9.081   6.955   0.072
15068WAT      O45445   5.334   7.369   1.111
15068WAT     H145446   5.341   7.275   1.077
15068WAT     H245447   5.340   7.369   1.211
15069WAT      O45448   6.831   3.459   2.749
15069WAT     H145449   6.830   3.442   2.848
15069WAT     H245450   6.795   3.379   2.701
15070WAT      O45451   6.763   5.680   8.223
15070WAT     H145452   6.847   5.653   8.270
15070WAT     H245453   6.709   5.739   8.283
15071WAT      O45454   5.783   3.012   7.172
15071WAT     H145455   5.813   3.076   7.102
15071WAT     H245456   5.683   3.010   7.175
15072WAT      O45457   1.750   5.348   6.736
15072WAT     H145458   1.673   5.292   6.708
15072WAT     H245459   1.717   5.439   6.763
15073WAT      O45460   6.734   9.038   2.581
15073WAT     H145461   6.641   9.011   2.609
15073WAT     H245462   6.742   9.137   2.584
15074WAT      O45463   9.427   1.562   6.296
15074WAT     H145464   9.394   1.648   6.334
15074WAT     H245465   9.363   1.529   6.227
15075WAT      O45466   3.933   1.292   0.586
15075WAT     H145467   4.010   1.246   0.631
15075WAT     H245468   3.959   1.315   0.492
15076WAT      O45469   2.904   5.737   3.227
15076WAT     H145470   2.876   5.809   3.164
15076WAT     H245471   2.982   5.687   3.188
15077WAT      O45472   2.687   5.785   8.606
15077WAT     H145473   2.748   5.857   8.639
15077WAT     H245474   2.648   5.812   8.518
15078WAT      O45475   4.485   2.123   9.345
15078WAT     H145476   4.404   2.149   9.292
15078WAT     H245477   4.472   2.031   9.382
15079WAT      O45478   3.209   8.052   9.268
15079WAT     H145479   3.223   8.135   9.215
15079WAT     H245480   3.196   7.974   9.206
15080WAT      O45481   3.678   9.461   5.980
15080WAT     H145482   3.757   9.522   5.972
15080WAT     H245483   3.644   9.439   5.888
15081WAT      O45484   1.194   1.774   0.723
15081WAT     H145485   1.262   1.770   0.651
15081WAT     H245486   1.109   1.812   0.686
15082WAT      O45487   1.667   3.290   5.736
15082WAT     H145488   1.763   3.299   5.710
15082WAT     H245489   1.616   3.248   5.660
15083WAT      O45490   0.656   3.003   7.933
15083WAT     H145491   0.716   3.081   7.915
15083WAT     H245492   0.603   3.021   8.016
15084WAT      O45493   1.756   0.766   6.619
15084WAT     H145494   1.694   0.840   6.644
15084WAT     H245495   1.851   0.797   6.629
15085WAT      O45496   3.135   5.167   3.813
15085WAT     H145497   3.139   5.069   3.831
15085WAT     H245498   3.072   5.185   3.737
15086WAT      O45499   9.665   4.509   6.307
15086WAT     H145500   9.725   4.429   6.298
15086WAT     H245501   9.720   4.588   6.337
15087WAT      O45502   0.133   8.476   9.194
15087WAT     H145503   0.192   8.434   9.263
15087WAT     H245504   0.188   8.532   9.132
15088WAT      O45505   5.762   7.088   4.085
15088WAT     H145506   5.702   7.155   4.041
15088WAT     H245507   5.827   7.136   4.145
15089WAT      O45508   6.291   7.965   4.520
15089WAT     H145509   6.294   8.065   4.517
15089WAT     H245510   6.201   7.935   4.551
15090WAT      O45511   5.758   3.285   1.890
15090WAT     H145512   5.704   3.203   1.905
15090WAT     H245513   5.768   3.334   1.977
15091WAT      O45514   6.385   5.080   4.377
15091WAT     H145515   6.477   5.119   4.368
15091WAT     H245516   6.361   5.078   4.474
15092WAT      O45517   3.114   7.160   1.410
15092WAT     H145518   3.062   7.117   1.483
15092WAT     H245519   3.053   7.182   1.333
15093WAT      O45520   5.544   3.731   0.531
15093WAT     H145521   5.609   3.734   0.607
15093WAT     H245522   5.593   3.737   0.444
15094WAT      O45523   1.377   9.443   9.416
15094WAT     H145524   1.459   9.454   9.360
15094WAT     H245525   1.404   9.436   9.512
15095WAT      O45526   6.783   5.953   9.022
15095WAT     H145527   6.733   5.866   9.025
15095WAT     H245528   6.828   5.961   8.933
15096WAT      O45529   4.172   3.055   0.249
15096WAT     H145530   4.073   3.043   0.262
15096WAT     H245531   4.188   3.136   0.194
15097WAT      O45532   2.783   2.221   5.993
15097WAT     H145533   2.813   2.307   6.035
15097WAT     H245534   2.742   2.240   5.903
15098WAT      O45535   0.339   3.715   9.550
15098WAT     H145536   0.364   3.809   9.574
15098WAT     H245537   0.301   3.713   9.457
15099WAT      O45538   6.605   4.278   5.885
15099WAT     H145539   6.581   4.273   5.789
15099WAT     H245540   6.522   4.292   5.940
15100WAT      O45541   2.187   9.543   4.592
15100WAT     H145542   2.192   9.459   4.538
15100WAT     H245543   2.155   9.618   4.535
15101WAT      O45544   6.054   1.116   3.048
15101WAT     H145545   6.024   1.022   3.030
15101WAT     H245546   5.973   1.174   3.063
15102WAT      O45547   1.776   4.286   3.328
15102WAT     H145548   1.846   4.356   3.335
15102WAT     H245549   1.691   4.320   3.367
15103WAT      O45550   4.723   6.163   9.417
15103WAT     H145551   4.649   6.150   9.483
15103WAT     H245552   4.800   6.207   9.462
15104WAT      O45553   3.389   5.815   0.634
15104WAT     H145554   3.320   5.881   0.663
15104WAT     H245555   3.434   5.776   0.715
15105WAT      O45556   1.690   7.799   2.948
15105WAT     H145557   1.726   7.748   3.027
15105WAT     H245558   1.590   7.800   2.952
15106WAT      O45559   1.107   7.342   7.777
15106WAT     H145560   1.099   7.251   7.818
15106WAT     H245561   1.201   7.357   7.748
15107WAT      O45562   8.147   2.708   8.917
15107WAT     H145563   8.176   2.615   8.938
15107WAT     H245564   8.228   2.768   8.916
15108WAT      O45565   2.634   1.286   9.723
15108WAT     H145566   2.554   1.288   9.663
15108WAT     H245567   2.707   1.233   9.679
15109WAT      O45568   7.571   0.536   0.008
15109WAT     H145569   7.572   0.556   0.106
15109WAT     H245570   7.478   0.544  -0.027
15110WAT      O45571   7.866   4.904   2.195
15110WAT     H145572   7.958   4.931   2.224
15110WAT     H245573   7.870   4.817   2.147
15111WAT      O45574   0.446   1.725   3.818
15111WAT     H145575   0.419   1.649   3.876
15111WAT     H245576   0.379   1.737   3.745
15112WAT      O45577   6.163   7.386   6.646
15112WAT     H145578   6.217   7.308   6.677
15112WAT     H245579   6.069   7.356   6.629
15113WAT      O45580   7.747   8.411   4.854
15113WAT     H145581   7.708   8.325   4.821
15113WAT     H245582   7.674   8.469   4.892
15114WAT      O45583   3.365   6.908   6.614
15114WAT     H145584   3.284   6.890   6.559
15114WAT     H245585   3.372   6.840   6.687
15115WAT      O45586   7.141   0.400   7.908
15115WAT     H145587   7.165   0.369   8.000
15115WAT     H245588   7.070   0.470   7.914
15116WAT      O45589   0.502   9.767   5.201
15116WAT     H145590   0.588   9.768   5.252
15116WAT     H245591   0.477   9.673   5.178
15117WAT      O45592   9.567   2.494   3.151
15117WAT     H145593   9.594   2.398   3.146
15117WAT     H245594   9.516   2.510   3.235
15118WAT      O45595   3.804   6.582   8.833
15118WAT     H145596   3.725   6.533   8.796
15118WAT     H245597   3.860   6.617   8.757
15119WAT      O45598   8.623   7.353   4.253
15119WAT     H145599   8.599   7.293   4.176
15119WAT     H245600   8.612   7.302   4.338
15120WAT      O45601   0.385   8.011   4.691
15120WAT     H145602   0.351   7.987   4.781
15120WAT     H245603   0.408   7.927   4.640
15121WAT      O45604   4.588   9.151   2.057
15121WAT     H145605   4.594   9.249   2.076
15121WAT     H245606   4.656   9.102   2.113
15122WAT      O45607   7.726   6.585   5.993
15122WAT     H145608   7.631   6.588   6.023
15122WAT     H245609   7.744   6.497   5.950
15123WAT      O45610   5.530   3.282   7.291
15123WAT     H145611   5.594   3.359   7.285
15123WAT     H245612   5.526   3.250   7.385
15124WAT      O45613   1.564   5.120   7.876
15124WAT     H145614   1.586   5.113   7.973
15124WAT     H245615   1.466   5.139   7.866
15125WAT      O45616   0.094   6.595   6.556
15125WAT     H145617   0.068   6.570   6.463
15125WAT     H245618   0.046   6.678   6.583
15126WAT      O45619   7.092   0.959   3.385
15126WAT     H145620   7.137   1.007   3.310
15126WAT     H245621   7.040   1.024   3.440
15127WAT      O45622   7.643   7.517   2.399
15127WAT     H145623   7.699   7.542   2.320
15127WAT     H245624   7.692   7.538   2.484
15128WAT      O45625   7.189   8.160   5.173
15128WAT     H145626   7.267   8.098   5.164
15128WAT     H245627   7.190   8.224   5.096
15129WAT      O45628   7.160   6.016   6.254
15129WAT     H145629   7.214   5.944   6.210
15129WAT     H245630   7.157   5.999   6.352
15130WAT      O45631   1.005   0.336   2.962
15130WAT     H145632   1.092   0.288   2.959
15130WAT     H245633   0.930   0.271   2.945
15131WAT      O45634   9.165   0.712   3.550
15131WAT     H145635   9.142   0.670   3.638
15131WAT     H245636   9.087   0.766   3.517
15132WAT      O45637   9.392   2.075   6.895
15132WAT     H145638   9.357   2.072   6.802
15132WAT     H245639   9.376   1.986   6.940
15133WAT      O45640   3.068   2.219   0.313
15133WAT     H145641   3.035   2.153   0.381
15133WAT     H245642   3.154   2.187   0.275
15134WAT      O45643   8.999   8.366   1.025
15134WAT     H145644   9.060   8.289   1.005
15134WAT     H245645   9.006   8.433   0.951
15135WAT      O45646   8.107   7.032   4.347
15135WAT     H145647   8.020   7.050   4.394
15135WAT     H245648   8.104   7.073   4.255
15136WAT      O45649   0.624   2.602   5.048
15136WAT     H145650   0.556   2.592   4.975
15136WAT     H245651   0.645   2.699   5.062
15137WAT      O45652   8.430   0.662   5.952
15137WAT     H145653   8.370   0.740   5.933
15137WAT     H245654   8.493   0.649   5.875
15138WAT      O45655   1.799   6.542   2.568
15138WAT     H145656   1.718   6.588   2.603
15138WAT     H245657   1.867   6.534   2.641
15139WAT      O45658   6.784   5.833   1.189
15139WAT     H145659   6.780   5.761   1.120
15139WAT     H245660   6.770   5.793   1.280
15140WAT      O45661   3.257   8.678   9.785
15140WAT     H145662   3.284   8.707   9.693
15140WAT     H245663   3.244   8.758   9.843
15141WAT      O45664   8.512   3.320   2.095
15141WAT     H145665   8.511   3.373   2.180
15141WAT     H245666   8.530   3.382   2.018
15142WAT      O45667   8.180   5.328   6.278
15142WAT     H145668   8.196   5.420   6.240
15142WAT     H245669   8.134   5.272   6.210
15143WAT      O45670   4.329   7.900   4.161
15143WAT     H145671   4.321   7.997   4.183
15143WAT     H245672   4.368   7.889   4.069
15144WAT      O45673   4.422   1.864   7.365
15144WAT     H145674   4.461   1.772   7.360
15144WAT     H245675   4.330   1.858   7.404
15145WAT      O45676   4.037   9.176   0.758
15145WAT     H145677   4.038   9.084   0.720
15145WAT     H245678   4.023   9.242   0.685
15146WAT      O45679   7.443   0.404   7.941
15146WAT     H145680   7.484   0.357   7.863
15146WAT     H245681   7.343   0.403   7.931
15147WAT      O45682   5.536   4.395   7.269
15147WAT     H145683   5.520   4.326   7.199
15147WAT     H245684   5.528   4.486   7.228
15148WAT      O45685   7.072   4.852   5.452
15148WAT     H145686   7.093   4.853   5.549
15148WAT     H245687   7.158   4.850   5.400
15149WAT      O45688   5.186   1.582   1.820
15149WAT     H145689   5.090   1.610   1.824
15149WAT     H245690   5.238   1.631   1.890
15150WAT      O45691   0.923   3.781   0.068
15150WAT     H145692   0.901   3.684   0.082
15150WAT     H245693   1.020   3.796   0.087
15151WAT      O45694   7.749   7.179   8.053
15151WAT     H145695   7.674   7.239   8.081
15151WAT     H245696   7.712   7.099   8.006
15152WAT      O45697   5.502   8.328   4.211
15152WAT     H145698   5.576   8.388   4.183
15152WAT     H245699   5.452   8.369   4.288
15153WAT      O45700   3.900   2.658   5.868
15153WAT     H145701   3.825   2.620   5.813
15153WAT     H245702   3.862   2.702   5.949
15154WAT      O45703   1.354   4.657   9.088
15154WAT     H145704   1.418   4.597   9.136
15154WAT     H245705   1.403   4.709   9.018
15155WAT      O45706   4.831   1.835   9.807
15155WAT     H145707   4.778   1.781   9.742
15155WAT     H245708   4.844   1.782   9.891
15156WAT      O45709   8.726   6.063   5.214
15156WAT     H145710   8.683   6.124   5.147
15156WAT     H245711   8.758   6.116   5.292
15157WAT      O45712   8.427   6.829   0.054
15157WAT     H145713   8.480   6.783   0.125
15157WAT     H245714   8.476   6.910   0.023
15158WAT      O45715   8.563   8.176   5.845
15158WAT     H145716   8.473   8.160   5.805
15158WAT     H245717   8.620   8.095   5.831
15159WAT      O45718   3.750   8.793   3.019
15159WAT     H145719   3.707   8.869   2.970
15159WAT     H245720   3.687   8.716   3.023
15160WAT      O45721   6.850   8.179   0.710
15160WAT     H145722   6.920   8.155   0.777
15160WAT     H245723   6.831   8.100   0.652
15161WAT      O45724   3.526   6.475   8.842
15161WAT     H145725   3.539   6.400   8.778
15161WAT     H245726   3.439   6.464   8.891
15162WAT      O45727   8.215   5.885   5.198
15162WAT     H145728   8.229   5.932   5.285
15162WAT     H245729   8.289   5.908   5.135
15163WAT      O45730   5.830   4.175   0.899
15163WAT     H145731   5.793   4.197   0.809
15163WAT     H245732   5.810   4.250   0.962
15164WAT      O45733   0.194   1.771   4.569
15164WAT     H145734   0.147   1.754   4.655
15164WAT     H245735   0.259   1.847   4.580
15165WAT      O45736   6.777   9.116   9.270
15165WAT     H145737   6.729   9.038   9.310
15165WAT     H245738   6.757   9.121   9.172
15166WAT      O45739   3.308   4.550   1.057
15166WAT     H145740   3.243   4.497   1.003
15166WAT     H245741   3.271   4.563   1.149
15167WAT      O45742   9.570   2.284   1.035
15167WAT     H145743   9.572   2.188   1.062
15167WAT     H245744   9.549   2.292   0.938
15168WAT      O45745   7.339   1.305   3.935
15168WAT     H145746   7.299   1.213   3.942
15168WAT     H245747   7.268   1.370   3.908
15169WAT      O45748   1.442   9.392   2.185
15169WAT     H145749   1.413   9.312   2.131
15169WAT     H245750   1.509   9.445   2.133
15170WAT      O45751   8.737   9.715   9.398
15170WAT     H145752   8.793   9.730   9.480
15170WAT     H245753   8.674   9.640   9.415
15171WAT      O45754   3.870   8.578   1.090
15171WAT     H145755   3.847   8.481   1.095
15171WAT     H245756   3.794   8.629   1.050
15172WAT      O45757   2.383   3.255   2.592
15172WAT     H145758   2.450   3.231   2.521
15172WAT     H245759   2.352   3.349   2.578
15173WAT      O45760   9.154   2.092   6.342
15173WAT     H145761   9.098   2.131   6.269
15173WAT     H245762   9.221   2.029   6.302
15174WAT      O45763   0.921   7.799   0.237
15174WAT     H145764   0.953   7.870   0.299
15174WAT     H245765   0.975   7.799   0.154
15175WAT      O45766   9.887   6.021   7.911
15175WAT     H145767   9.906   5.972   7.996
15175WAT     H245768   9.811   6.084   7.925
15176WAT      O45769   4.716   5.645   8.264
15176WAT     H145770   4.739   5.620   8.170
15176WAT     H245771   4.643   5.584   8.298
15177WAT      O45772   6.452   7.128   5.139
15177WAT     H145773   6.518   7.159   5.070
15177WAT     H245774   6.488   7.046   5.184
15178WAT      O45775   1.332   9.552   5.944
15178WAT     H145776   1.417   9.602   5.958
15178WAT     H245777   1.335   9.504   5.856
15179WAT      O45778   1.490   9.679   7.721
15179WAT     H145779   1.567   9.738   7.746
15179WAT     H245780   1.512   9.629   7.638
15180WAT      O45781   4.815   3.509   1.680
15180WAT     H145782   4.739   3.528   1.742
15180WAT     H245783   4.784   3.522   1.585
15181WAT      O45784   4.703   4.895   9.813
15181WAT     H145785   4.638   4.827   9.848
15181WAT     H245786   4.796   4.861   9.824
15182WAT      O45787   0.435   4.036   0.634
15182WAT     H145788   0.461   4.074   0.546
15182WAT     H245789   0.442   3.936   0.631
15183WAT      O45790   4.812   1.223   8.724
15183WAT     H145791   4.772   1.293   8.664
15183WAT     H245792   4.908   1.245   8.742
15184WAT      O45793   7.413   0.589   3.957
15184WAT     H145794   7.396   0.671   3.903
15184WAT     H245795   7.486   0.535   3.915
15185WAT      O45796   6.973   4.146   6.398
15185WAT     H145797   7.005   4.232   6.438
15185WAT     H245798   7.044   4.076   6.407
15186WAT      O45799   1.238   4.664   3.379
15186WAT     H145800   1.212   4.740   3.320
15186WAT     H245801   1.324   4.624   3.346
15187WAT      O45802   8.094   5.348   1.298
15187WAT     H145803   8.168   5.399   1.342
15187WAT     H245804   8.107   5.250   1.312
15188WAT      O45805   2.340   7.164   8.196
15188WAT     H145806   2.411   7.233   8.210
15188WAT     H245807   2.318   7.159   8.098
15189WAT      O45808   6.133   5.500   7.986
15189WAT     H145809   6.116   5.592   8.023
15189WAT     H245810   6.049   5.447   7.990
15190WAT      O45811   4.330   4.743   5.666
15190WAT     H145812   4.288   4.667   5.617
15190WAT     H245813   4.317   4.730   5.764
15191WAT      O45814   3.635   6.069   9.151
15191WAT     H145815   3.577   5.987   9.152
15191WAT     H245816   3.645   6.103   9.245
15192WAT      O45817   6.207   8.476   4.710
15192WAT     H145818   6.280   8.538   4.681
15192WAT     H245819   6.248   8.398   4.758
15193WAT      O45820   8.598   2.445   5.746
15193WAT     H145821   8.563   2.415   5.835
15193WAT     H245822   8.534   2.511   5.706
15194WAT      O45823   1.533   6.857   0.315
15194WAT     H145824   1.589   6.936   0.290
15194WAT     H245825   1.574   6.810   0.393
15195WAT      O45826   0.697   5.191   7.556
15195WAT     H145827   0.707   5.289   7.568
15195WAT     H245828   0.603   5.170   7.529
15196WAT      O45829   2.726   8.635   2.764
15196WAT     H145830   2.740   8.611   2.860
15196WAT     H245831   2.628   8.637   2.744
15197WAT      O45832   0.704   7.949   2.593
15197WAT     H145833   0.785   7.891   2.597
15197WAT     H245834   0.718   8.030   2.649
15198WAT      O45835   6.662   7.433   5.816
15198WAT     H145836   6.589   7.368   5.795
15198WAT     H245837   6.631   7.526   5.795
15199WAT      O45838   6.030   4.049   8.626
15199WAT     H145839   6.057   3.960   8.662
15199WAT     H245840   5.935   4.044   8.594
15200WAT      O45841   5.842   8.772   5.309
15200WAT     H145842   5.811   8.692   5.361
15200WAT     H245843   5.824   8.758   5.212
15201WAT      O45844   6.444   7.946   0.435
15201WAT     H145845   6.385   7.865   0.444
15201WAT     H245846   6.425   7.990   0.347
15202WAT      O45847   9.748   9.498   1.933
15202WAT     H145848   9.661   9.494   1.885
15202WAT     H245849   9.820   9.462   1.874
15203WAT      O45850   6.113   1.361   9.156
15203WAT     H145851   6.063   1.446   9.174
15203WAT     H245852   6.203   1.366   9.198
15204WAT      O45853   5.895   7.325   0.211
15204WAT     H145854   5.886   7.389   0.135
15204WAT     H245855   5.850   7.364   0.292
15205WAT      O45856   5.181   3.091   7.427
15205WAT     H145857   5.197   3.183   7.390
15205WAT     H245858   5.257   3.066   7.488
15206WAT      O45859   3.744   8.803   4.704
15206WAT     H145860   3.674   8.784   4.635
15206WAT     H245861   3.755   8.724   4.763
15207WAT      O45862   0.184   6.732   2.721
15207WAT     H145863   0.177   6.693   2.812
15207WAT     H245864   0.099   6.714   2.670
15208WAT      O45865   8.828   0.445   3.045
15208WAT     H145866   8.888   0.497   3.107
15208WAT     H245867   8.785   0.370   3.096
15209WAT      O45868   6.167   8.463   0.538
15209WAT     H145869   6.137   8.551   0.501
15209WAT     H245870   6.216   8.479   0.624
15210WAT      O45871   7.934   7.517   4.600
15210WAT     H145872   7.972   7.451   4.535
15210WAT     H245873   8.001   7.538   4.670
15211WAT      O45874   4.271   5.214   7.666
15211WAT     H145875   4.368   5.235   7.649
15211WAT     H245876   4.225   5.297   7.698
15212WAT      O45877   0.665   8.051   5.913
15212WAT     H145878   0.641   8.148   5.926
15212WAT     H245879   0.701   8.015   5.999
15213WAT      O45880   2.186   5.891   2.371
15213WAT     H145881   2.108   5.858   2.425
15213WAT     H245882   2.271   5.866   2.418
15214WAT      O45883   0.145   4.586   3.342
15214WAT     H145884   0.048   4.565   3.352
15214WAT     H245885   0.169   4.586   3.245
15215WAT      O45886   0.928   3.929   5.491
15215WAT     H145887   0.845   3.875   5.473
15215WAT     H245888   0.922   4.016   5.442
15216WAT      O45889   0.546   3.014   8.867
15216WAT     H145890   0.605   3.095   8.867
15216WAT     H245891   0.596   2.936   8.830
15217WAT      O45892   4.420   7.469   0.037
15217WAT     H145893   4.419   7.422  -0.051
15217WAT     H245894   4.506   7.519   0.047
15218WAT      O45895   0.100   6.655   3.507
15218WAT     H145896   0.139   6.587   3.445
15218WAT     H245897   0.130   6.747   3.479
15219WAT      O45898   8.597   2.412   6.075
15219WAT     H145899   8.582   2.364   6.162
15219WAT     H245900   8.574   2.508   6.086
15220WAT      O45901   3.375   5.085   3.210
15220WAT     H145902   3.296   5.146   3.214
15220WAT     H245903   3.451   5.130   3.163
15221WAT      O45904   3.589   8.711   4.503
15221WAT     H145905   3.655   8.642   4.470
15221WAT     H245906   3.594   8.792   4.445
15222WAT      O45907   9.251   8.127   8.754
15222WAT     H145908   9.314   8.204   8.768
15222WAT     H245909   9.160   8.154   8.785
15223WAT      O45910   4.248   0.693   4.248
15223WAT     H145911   4.162   0.711   4.202
15223WAT     H245912   4.254   0.595   4.270
15224WAT      O45913   1.193   4.154   4.399
15224WAT     H145914   1.175   4.251   4.419
15224WAT     H245915   1.289   4.143   4.373
15225WAT      O45916   4.435   6.602   4.506
15225WAT     H145917   4.459   6.551   4.423
15225WAT     H245918   4.491   6.570   4.582
15226WAT      O45919   2.176   5.427   6.310
15226WAT     H145920   2.163   5.523   6.286
15226WAT     H245921   2.198   5.375   6.227
15227WAT      O45922   9.155   7.830   5.573
15227WAT     H145923   9.255   7.831   5.565
15227WAT     H245924   9.116   7.899   5.512
15228WAT      O45925   3.788   9.297   8.801
15228WAT     H145926   3.834   9.246   8.728
15228WAT     H245927   3.853   9.317   8.874
15229WAT      O45928   6.102   5.348   6.409
15229WAT     H145929   6.118   5.368   6.505
15229WAT     H245930   6.165   5.275   6.379
15230WAT      O45931   0.476   2.849   2.099
15230WAT     H145932   0.526   2.803   2.172
15230WAT     H245933   0.528   2.846   2.014
15231WAT      O45934   7.368   8.774   5.681
15231WAT     H145935   7.303   8.835   5.637
15231WAT     H245936   7.345   8.679   5.659
15232WAT      O45937   3.655   6.612   9.523
15232WAT     H145938   3.628   6.683   9.589
15232WAT     H245939   3.578   6.550   9.508
15233WAT      O45940   8.776   7.524   7.962
15233WAT     H145941   8.765   7.431   7.997
15233WAT     H245942   8.871   7.553   7.974
15234WAT      O45943   7.524   5.492   7.272
15234WAT     H145944   7.480   5.427   7.334
15234WAT     H245945   7.622   5.496   7.292
15235WAT      O45946   7.005   7.295   7.422
15235WAT     H145947   6.919   7.322   7.379
15235WAT     H245948   7.081   7.341   7.376
15236WAT      O45949   0.641   6.039   8.601
15236WAT     H145950   0.629   5.944   8.575
15236WAT     H245951   0.552   6.084   8.609
15237WAT      O45952   2.186   3.704   9.256
15237WAT     H145953   2.118   3.656   9.202
15237WAT     H245954   2.254   3.745   9.195
15238WAT      O45955   5.880   5.892   6.071
15238WAT     H145956   5.941   5.968   6.092
15238WAT     H245957   5.807   5.887   6.139
15239WAT      O45958   5.039   6.942   3.104
15239WAT     H145959   5.123   6.888   3.110
15239WAT     H245960   4.960   6.881   3.106
15240WAT      O45961   2.187   1.445   4.695
15240WAT     H145962   2.241   1.361   4.699
15240WAT     H245963   2.216   1.507   4.768
15241WAT      O45964   0.355   8.935   5.988
15241WAT     H145965   0.418   8.868   6.028
15241WAT     H245966   0.304   8.891   5.913
15242WAT      O45967   9.269   5.783   9.813
15242WAT     H145968   9.305   5.855   9.754
15242WAT     H245969   9.303   5.798   9.907
15243WAT      O45970   3.181   1.526   6.800
15243WAT     H145971   3.229   1.605   6.839
15243WAT     H245972   3.108   1.558   6.740
15244WAT      O45973   6.035   7.317   7.342
15244WAT     H145974   6.078   7.401   7.373
15244WAT     H245975   5.999   7.330   7.250
15245WAT      O45976   1.841   9.111   1.931
15245WAT     H145977   1.800   9.031   1.888
15245WAT     H245978   1.776   9.187   1.929
15246WAT      O45979   0.191   0.427   1.137
15246WAT     H145980   0.274   0.424   1.081
15246WAT     H245981   0.138   0.508   1.114
15247WAT      O45982   3.829   8.702   5.176
15247WAT     H145983   3.872   8.664   5.257
15247WAT     H245984   3.766   8.635   5.137
15248WAT      O45985   0.077   7.003   5.738
15248WAT     H145986  -0.022   7.010   5.749
15248WAT     H245987   0.108   6.914   5.771
15249WAT      O45988   9.393   4.841   7.070
15249WAT     H145989   9.407   4.900   7.150
15249WAT     H245990   9.333   4.766   7.095
15250WAT      O45991   9.229   7.387   1.015
15250WAT     H145992   9.314   7.339   0.996
15250WAT     H245993   9.246   7.486   1.015
15251WAT      O45994   0.622   1.404   7.255
15251WAT     H145995   0.651   1.313   7.285
15251WAT     H245996   0.522   1.410   7.259
15252WAT      O45997   7.887   8.465   4.625
15252WAT     H145998   7.846   8.464   4.716
15252WAT     H245999   7.985   8.485   4.633
15253WAT      O46000   1.278   8.180   4.689
15253WAT     H146001   1.265   8.278   4.671
15253WAT     H246002   1.197   8.145   4.737
15254WAT      O46003   1.683   8.881   4.299
15254WAT     H146004   1.647   8.799   4.254
15254WAT     H246005   1.780   8.867   4.322
15255WAT      O46006   7.356   4.722   1.845
15255WAT     H146007   7.339   4.812   1.886
15255WAT     H246008   7.372   4.655   1.917
15256WAT      O46009   9.117   7.400   1.957
15256WAT     H146010   9.120   7.364   2.050
15256WAT     H246011   9.155   7.493   1.956
15257WAT      O46012   1.270   3.222   6.888
15257WAT     H146013   1.223   3.278   6.819
15257WAT     H246014   1.216   3.222   6.972
15258WAT      O46015   3.629   3.750   1.634
15258WAT     H146016   3.707   3.702   1.675
15258WAT     H246017   3.564   3.776   1.706
15259WAT      O46018   9.523   7.061   1.449
15259WAT     H146019   9.460   7.037   1.375
15259WAT     H246020   9.544   7.159   1.444
15260WAT      O46021   5.712   7.694   2.511
15260WAT     H146022   5.789   7.679   2.448
15260WAT     H246023   5.728   7.776   2.565
15261WAT      O46024   4.207   7.908   2.667
15261WAT     H146025   4.187   7.961   2.585
15261WAT     H246026   4.231   7.814   2.641
15262WAT      O46027   1.888   0.944   4.162
15262WAT     H146028   1.835   0.994   4.093
15262WAT     H246029   1.825   0.901   4.227
15263WAT      O46030   4.937   0.884   4.190
15263WAT     H146031   4.948   0.940   4.108
15263WAT     H246032   4.948   0.788   4.167
15264WAT      O46033   0.580   2.282   3.470
15264WAT     H146034   0.545   2.226   3.395
15264WAT     H246035   0.541   2.249   3.556
15265WAT      O46036   4.262   6.996   3.135
15265WAT     H146037   4.290   6.939   3.212
15265WAT     H246038   4.255   6.940   3.053
15266WAT      O46039   4.849   7.669   6.426
15266WAT     H146040   4.838   7.575   6.458
15266WAT     H246041   4.864   7.730   6.504
15267WAT      O46042   9.223   1.689   2.699
15267WAT     H146043   9.127   1.698   2.673
15267WAT     H246044   9.237   1.601   2.743
15268WAT      O46045   5.307   9.520   7.779
15268WAT     H146046   5.346   9.588   7.841
15268WAT     H246047   5.350   9.528   7.689
15269WAT      O46048   8.184   7.409   1.545
15269WAT     H146049   8.158   7.328   1.597
15269WAT     H246050   8.281   7.404   1.522
15270WAT      O46051   9.141   1.263   9.084
15270WAT     H146052   9.096   1.339   9.038
15270WAT     H246053   9.077   1.186   9.093
15271WAT      O46054   5.220   6.659   3.789
15271WAT     H146055   5.212   6.605   3.705
15271WAT     H246056   5.316   6.660   3.818
15272WAT      O46057   2.643   6.720   5.813
15272WAT     H146058   2.547   6.734   5.833
15272WAT     H246059   2.685   6.808   5.787
15273WAT      O46060   0.894   1.326   1.833
15273WAT     H146061   0.956   1.285   1.766
15273WAT     H246062   0.842   1.254   1.879
15274WAT      O46063   2.045   0.842   1.390
15274WAT     H146064   2.071   0.906   1.462
15274WAT     H246065   1.958   0.869   1.349
15275WAT      O46066   1.271   6.245   3.131
15275WAT     H146067   1.311   6.198   3.210
15275WAT     H246068   1.296   6.342   3.135
15276WAT      O46069   3.409   3.645   2.238
15276WAT     H146070   3.319   3.602   2.224
15276WAT     H246071   3.397   3.744   2.248
15277WAT      O46072   6.246   4.765   6.417
15277WAT     H146073   6.222   4.692   6.353
15277WAT     H246074   6.313   4.826   6.374
15278WAT      O46075   6.182   8.533   5.430
15278WAT     H146076   6.262   8.475   5.410
15278WAT     H246077   6.098   8.483   5.410
15279WAT      O46078   2.333   4.011   1.103
15279WAT     H146079   2.350   3.913   1.096
15279WAT     H246080   2.410   4.055   1.149
15280WAT      O46081   7.331   7.099   8.550
15280WAT     H146082   7.358   7.144   8.635
15280WAT     H246083   7.337   7.165   8.475
15281WAT      O46084   5.823   0.779   1.917
15281WAT     H146085   5.781   0.697   1.877
15281WAT     H246086   5.841   0.846   1.844
15282WAT      O46087   9.769   2.079   5.209
15282WAT     H146088   9.754   2.162   5.154
15282WAT     H246089   9.867   2.063   5.219
15283WAT      O46090   7.873   5.252   4.812
15283WAT     H146091   7.876   5.218   4.907
15283WAT     H246092   7.869   5.174   4.750
15284WAT      O46093   6.692   4.117   9.636
15284WAT     H146094   6.782   4.105   9.676
15284WAT     H246095   6.658   4.029   9.601
15285WAT      O46096   5.839   9.189   8.690
15285WAT     H146097   5.863   9.093   8.672
15285WAT     H246098   5.874   9.246   8.615
15286WAT      O46099   3.060   3.154   2.453
15286WAT     H146100   2.969   3.126   2.421
15286WAT     H246101   3.066   3.254   2.453
15287WAT      O46102   6.559   9.380   4.355
15287WAT     H146103   6.479   9.324   4.375
15287WAT     H246104   6.530   9.471   4.325
15288WAT      O46105   4.726   6.275   4.559
15288WAT     H146106   4.725   6.314   4.467
15288WAT     H246107   4.687   6.183   4.556
15289WAT      O46108   9.654   7.576   7.199
15289WAT     H146109   9.683   7.667   7.229
15289WAT     H246110   9.726   7.510   7.220
15290WAT      O46111   3.998   7.928   9.553
15290WAT     H146112   3.900   7.909   9.563
15290WAT     H246113   4.015   8.026   9.560
15291WAT      O46114   6.556   2.459   1.717
15291WAT     H146115   6.614   2.537   1.691
15291WAT     H246116   6.575   2.382   1.656
15292WAT      O46117   6.523   7.475   9.557
15292WAT     H146118   6.521   7.494   9.655
15292WAT     H246119   6.560   7.383   9.542
15293WAT      O46120   4.109   4.224   8.495
15293WAT     H146121   4.073   4.316   8.477
15293WAT     H246122   4.132   4.179   8.409
15294WAT      O46123   7.597   3.628   6.770
15294WAT     H146124   7.537   3.693   6.816
15294WAT     H246125   7.678   3.612   6.826
15295WAT      O46126   4.783   8.395   7.992
15295WAT     H146127   4.702   8.452   7.979
15295WAT     H246128   4.862   8.439   7.949
15296WAT      O46129   4.556   1.893   1.969
15296WAT     H146130   4.605   1.971   1.930
15296WAT     H246131   4.620   1.834   2.018
15297WAT      O46132   4.885   3.265   1.276
15297WAT     H146133   4.789   3.284   1.257
15297WAT     H246134   4.897   3.242   1.373
15298WAT      O46135   3.673   3.339   1.584
15298WAT     H146136   3.700   3.244   1.601
15298WAT     H246137   3.747   3.400   1.613
15299WAT      O46138   0.332   9.302   9.809
15299WAT     H146139   0.414   9.318   9.865
15299WAT     H246140   0.360   9.287   9.714
15300WAT      O46141   6.913   2.156   7.611
15300WAT     H146142   6.902   2.245   7.655
15300WAT     H246143   6.825   2.125   7.574
15301WAT      O46144   4.378   1.836   5.163
15301WAT     H146145   4.469   1.815   5.197
15301WAT     H246146   4.314   1.842   5.240
15302WAT      O46147   9.584   1.158   3.098
15302WAT     H146148   9.645   1.122   3.169
15302WAT     H246149   9.590   1.257   3.096
15303WAT      O46150   3.363   1.710   6.845
15303WAT     H146151   3.460   1.724   6.826
15303WAT     H246152   3.319   1.799   6.857
15304WAT      O46153   9.801   8.624   3.424
15304WAT     H146154   9.727   8.622   3.356
15304WAT     H246155   9.889   8.629   3.378
15305WAT      O46156   6.263   0.248   9.300
15305WAT     H146157   6.240   0.338   9.264
15305WAT     H246158   6.250   0.247   9.399
15306WAT      O46159   5.370   8.758   2.976
15306WAT     H146160   5.400   8.809   2.895
15306WAT     H246161   5.301   8.811   3.025
15307WAT      O46162   0.011   5.341   2.462
15307WAT     H146163  -0.077   5.297   2.441
15307WAT     H246164   0.008   5.436   2.432
15308WAT      O46165   3.658   7.077   5.462
15308WAT     H146166   3.683   7.124   5.547
15308WAT     H246167   3.727   7.095   5.393
15309WAT      O46168   5.768   0.213   4.099
15309WAT     H146169   5.724   0.302   4.093
15309WAT     H246170   5.700   0.143   4.117
15310WAT      O46171   4.366   8.984   1.995
15310WAT     H146172   4.346   8.920   2.070
15310WAT     H246173   4.439   9.047   2.024
15311WAT      O46174   4.365   8.871   5.133
15311WAT     H146175   4.275   8.830   5.117
15311WAT     H246176   4.356   8.971   5.136
15312WAT      O46177   0.493   0.288   3.354
15312WAT     H146178   0.560   0.336   3.410
15312WAT     H246179   0.517   0.191   3.349
15313WAT      O46180   8.317   2.523   3.409
15313WAT     H146181   8.387   2.470   3.361
15313WAT     H246182   8.361   2.582   3.477
15314WAT      O46183   3.900   3.556   0.054
15314WAT     H146184   3.894   3.523   0.149
15314WAT     H246185   3.809   3.581   0.021
15315WAT      O46186   0.211   0.141   3.585
15315WAT     H146187   0.179   0.236   3.580
15315WAT     H246188   0.135   0.082   3.615
15316WAT      O46189   6.794   4.789   5.438
15316WAT     H146190   6.884   4.831   5.447
15316WAT     H246191   6.757   4.768   5.528
15317WAT      O46192   9.255   4.036   6.985
15317WAT     H146193   9.251   4.038   7.085
15317WAT     H246194   9.187   3.971   6.950
15318WAT      O46195   0.822   7.816   1.436
15318WAT     H146196   0.905   7.835   1.383
15318WAT     H246197   0.744   7.862   1.393
15319WAT      O46198   2.627   3.788   3.046
15319WAT     H146199   2.543   3.833   3.014
15319WAT     H246200   2.696   3.856   3.067
15320WAT      O46201   8.790   2.650   5.297
15320WAT     H146202   8.753   2.583   5.361
15320WAT     H246203   8.889   2.656   5.308
15321WAT      O46204   5.131   1.293   7.570
15321WAT     H146205   5.039   1.316   7.538
15321WAT     H246206   5.140   1.317   7.666
15322WAT      O46207   8.077   3.149   8.201
15322WAT     H146208   8.108   3.244   8.198
15322WAT     H246209   8.076   3.117   8.296
15323WAT      O46210   1.612   1.640   0.844
15323WAT     H146211   1.629   1.727   0.798
15323WAT     H246212   1.518   1.611   0.828
15324WAT      O46213   1.723   5.998   8.757
15324WAT     H146214   1.659   6.038   8.823
15324WAT     H246215   1.714   6.045   8.669
15325WAT      O46216   2.698   7.467   5.167
15325WAT     H146217   2.624   7.522   5.207
15325WAT     H246218   2.762   7.440   5.239
15326WAT      O46219   4.513   5.038   5.400
15326WAT     H146220   4.590   5.081   5.353
15326WAT     H246221   4.535   5.026   5.497
15327WAT      O46222   3.558   2.416   9.387
15327WAT     H146223   3.588   2.359   9.463
15327WAT     H246224   3.632   2.426   9.321
15328WAT      O46225   5.006   0.486   0.154
15328WAT     H146226   4.968   0.501   0.063
15328WAT     H246227   4.943   0.430   0.208
15329WAT      O46228   8.240   0.217   3.178
15329WAT     H146229   8.251   0.266   3.265
15329WAT     H246230   8.219   0.283   3.106
15330WAT      O46231   2.566   1.141   7.554
15330WAT     H146232   2.481   1.184   7.526
15330WAT     H246233   2.549   1.046   7.580
15331WAT      O46234   9.850   7.399   7.240
15331WAT     H146235   9.843   7.388   7.339
15331WAT     H246236   9.944   7.378   7.211
15332WAT      O46237   0.070   8.490   7.086
15332WAT     H146238  -0.023   8.454   7.088
15332WAT     H246239   0.121   8.447   7.011
15333WAT      O46240   1.262   5.103   0.303
15333WAT     H146241   1.186   5.111   0.238
15333WAT     H246242   1.234   5.048   0.381
15334WAT      O46243   5.425   3.119   3.729
15334WAT     H146244   5.487   3.040   3.740
15334WAT     H246245   5.331   3.089   3.742
15335WAT      O46246   6.686   9.466   8.580
15335WAT     H146247   6.633   9.530   8.526
15335WAT     H246248   6.722   9.512   8.661
15336WAT      O46249   5.609   8.723   7.119
15336WAT     H146250   5.684   8.788   7.130
15336WAT     H246251   5.559   8.716   7.205
15337WAT      O46252   2.166   6.371   7.679
15337WAT     H146253   2.131   6.317   7.602
15337WAT     H246254   2.110   6.453   7.690
15338WAT      O46255   8.130   9.749   5.118
15338WAT     H146256   8.084   9.692   5.051
15338WAT     H246257   8.065   9.815   5.156
15339WAT      O46258   3.005   9.756   1.156
15339WAT     H146259   3.035   9.772   1.062
15339WAT     H246260   3.030   9.833   1.213
15340WAT      O46261   5.846   2.337   3.698
15340WAT     H146262   5.767   2.395   3.718
15340WAT     H246263   5.831   2.290   3.610
15341WAT      O46264   3.660   5.780   6.616
15341WAT     H146265   3.565   5.752   6.600
15341WAT     H246266   3.712   5.769   6.532
15342WAT      O46267   1.229   9.741   8.033
15342WAT     H146268   1.234   9.695   7.944
15342WAT     H246269   1.237   9.672   8.105
15343WAT      O46270   2.526   2.249   5.046
15343WAT     H146271   2.450   2.240   5.110
15343WAT     H246272   2.581   2.165   5.048
15344WAT      O46273   6.496   8.868   1.471
15344WAT     H146274   6.401   8.876   1.444
15344WAT     H246275   6.522   8.948   1.526
15345WAT      O46276   6.153   5.241   4.962
15345WAT     H146277   6.135   5.287   4.875
15345WAT     H246278   6.204   5.302   5.023
15346WAT      O46279   8.820   7.614   1.678
15346WAT     H146280   8.776   7.695   1.717
15346WAT     H246281   8.850   7.553   1.751
15347WAT      O46282   7.996   1.781   5.453
15347WAT     H146283   8.091   1.810   5.466
15347WAT     H246284   7.987   1.685   5.480
15348WAT      O46285   4.965   4.017   3.002
15348WAT     H146286   4.981   3.962   2.921
15348WAT     H246287   4.991   4.112   2.983
15349WAT      O46288   0.422   8.377  -0.003
15349WAT     H146289   0.387   8.464   0.031
15349WAT     H246290   0.381   8.302   0.050
15350WAT      O46291   6.601   8.981   4.314
15350WAT     H146292   6.627   9.018   4.403
15350WAT     H246293   6.660   9.021   4.243
15351WAT      O46294   7.331   0.845   8.216
15351WAT     H146295   7.289   0.758   8.239
15351WAT     H246296   7.260   0.913   8.199
15352WAT      O46297   9.656   3.591   0.697
15352WAT     H146298   9.644   3.690   0.699
15352WAT     H246299   9.742   3.568   0.652
15353WAT      O46300   4.265   4.539   2.470
15353WAT     H146301   4.215   4.457   2.496
15353WAT     H246302   4.357   4.537   2.510
15354WAT      O46303   0.011   6.629   4.612
15354WAT     H146304   0.077   6.648   4.539
15354WAT     H246305   0.049   6.659   4.699
15355WAT      O46306   4.365   8.883   3.767
15355WAT     H146307   4.349   8.923   3.677
15355WAT     H246308   4.337   8.948   3.838
15356WAT      O46309   3.635   2.202   3.890
15356WAT     H146310   3.551   2.257   3.899
15356WAT     H246311   3.637   2.160   3.799
15357WAT      O46312   2.217   4.721   0.979
15357WAT     H146313   2.246   4.634   0.940
15357WAT     H246314   2.276   4.794   0.945
15358WAT      O46315   7.439   6.593   0.383
15358WAT     H146316   7.358   6.652   0.382
15358WAT     H246317   7.518   6.645   0.414
15359WAT      O46318   3.427   0.975   2.409
15359WAT     H146319   3.368   0.994   2.488
15359WAT     H246320   3.491   0.901   2.432
15360WAT      O46321   3.802   5.653   5.776
15360WAT     H146322   3.878   5.614   5.724
15360WAT     H246323   3.736   5.694   5.712
15361WAT      O46324   5.439   5.480   3.078
15361WAT     H146325   5.395   5.554   3.128
15361WAT     H246326   5.530   5.464   3.114
15362WAT      O46327   8.519   8.229   7.580
15362WAT     H146328   8.460   8.149   7.578
15362WAT     H246329   8.507   8.282   7.496
15363WAT      O46330   7.586   5.382   0.176
15363WAT     H146331   7.498   5.346   0.144
15363WAT     H246332   7.660   5.323   0.145
15364WAT      O46333   5.128   2.444   8.172
15364WAT     H146334   5.041   2.488   8.196
15364WAT     H246335   5.111   2.346   8.155
15365WAT      O46336   7.798   4.790   0.443
15365WAT     H146337   7.707   4.776   0.404
15365WAT     H246338   7.825   4.885   0.432
15366WAT      O46339   1.546   2.528   5.429
15366WAT     H146340   1.459   2.500   5.470
15366WAT     H246341   1.609   2.450   5.431
15367WAT      O46342   9.294   4.980   6.348
15367WAT     H146343   9.346   4.909   6.396
15367WAT     H246344   9.209   4.941   6.314
15368WAT      O46345   5.370   2.168   9.837
15368WAT     H146346   5.437   2.224   9.887
15368WAT     H246347   5.409   2.077   9.820
15369WAT      O46348   1.389   8.275   9.601
15369WAT     H146349   1.379   8.206   9.530
15369WAT     H246350   1.485   8.280   9.629
15370WAT      O46351   3.157   9.353   0.620
15370WAT     H146352   3.173   9.309   0.709
15370WAT     H246353   3.226   9.322   0.555
15371WAT      O46354   7.122   9.192   5.401
15371WAT     H146355   7.161   9.114   5.351
15371WAT     H246356   7.185   9.218   5.475
15372WAT      O46357   4.476   4.914   7.528
15372WAT     H146358   4.485   4.833   7.469
15372WAT     H246359   4.381   4.943   7.529
15373WAT      O46360   2.528   1.557   2.375
15373WAT     H146361   2.448   1.543   2.434
15373WAT     H246362   2.502   1.611   2.295
15374WAT      O46363   5.884   0.274   8.682
15374WAT     H146364   5.798   0.323   8.673
15374WAT     H246365   5.943   0.296   8.604
15375WAT      O46366   8.143   9.750   5.682
15375WAT     H146367   8.119   9.780   5.590
15375WAT     H246368   8.107   9.815   5.749
15376WAT      O46369   1.249   1.531   0.389
15376WAT     H146370   1.154   1.559   0.374
15376WAT     H246371   1.253   1.433   0.408
15377WAT      O46372   2.061   2.263   6.056
15377WAT     H146373   2.161   2.271   6.064
15377WAT     H246374   2.037   2.170   6.028
15378WAT      O46375   4.033   9.222   7.617
15378WAT     H146376   4.023   9.322   7.621
15378WAT     H246377   3.943   9.179   7.630
15379WAT      O46378   9.781   0.664   3.188
15379WAT     H146379   9.704   0.648   3.249
15379WAT     H246380   9.859   0.608   3.216
15380WAT      O46381   5.194   9.826   5.287
15380WAT     H146382   5.123   9.811   5.356
15380WAT     H246383   5.155   9.810   5.196
15381WAT      O46384   9.013   1.172   0.445
15381WAT     H146385   9.023   1.212   0.536
15381WAT     H246386   8.924   1.197   0.407
15382WAT      O46387   0.962   6.106   2.329
15382WAT     H146388   0.945   6.171   2.403
15382WAT     H246389   0.881   6.050   2.314
15383WAT      O46390   5.013   9.136   4.453
15383WAT     H146391   5.022   9.201   4.378
15383WAT     H246392   4.952   9.062   4.426
15384WAT      O46393   7.811   4.246   4.690
15384WAT     H146394   7.720   4.208   4.673
15384WAT     H246395   7.817   4.337   4.651
15385WAT      O46396   8.893   4.925   8.755
15385WAT     H146397   8.949   4.844   8.768
15385WAT     H246398   8.832   4.912   8.676
15386WAT      O46399   2.004   2.849   8.187
15386WAT     H146400   2.024   2.941   8.220
15386WAT     H246401   1.971   2.854   8.092
15387WAT      O46402   9.790   7.053   6.261
15387WAT     H146403   9.796   6.986   6.334
15387WAT     H246404   9.778   7.006   6.173
15388WAT      O46405   0.550   1.093   9.151
15388WAT     H146406   0.602   1.079   9.235
15388WAT     H246407   0.608   1.141   9.084
15389WAT      O46408   8.332   5.304   2.867
15389WAT     H146409   8.411   5.270   2.816
15389WAT     H246410   8.261   5.334   2.803
15390WAT      O46411   3.648   5.981   0.581
15390WAT     H146412   3.727   5.920   0.590
15390WAT     H246413   3.565   5.926   0.570
15391WAT      O46414   1.147   8.364   3.319
15391WAT     H146415   1.186   8.302   3.386
15391WAT     H246416   1.124   8.451   3.363
15392WAT      O46417   1.396   0.770   3.384
15392WAT     H146418   1.448   0.684   3.379
15392WAT     H246419   1.439   0.831   3.450
15393WAT      O46420   7.528   3.407   0.692
15393WAT     H146421   7.466   3.386   0.768
15393WAT     H246422   7.559   3.322   0.650
15394WAT      O46423   1.199   0.955   2.183
15394WAT     H146424   1.167   1.046   2.208
15394WAT     H246425   1.134   0.887   2.216
15395WAT      O46426   7.126   6.528   3.587
15395WAT     H146427   7.165   6.440   3.614
15395WAT     H246428   7.108   6.582   3.668
15396WAT      O46429   7.752   8.404   0.764
15396WAT     H146430   7.813   8.346   0.817
15396WAT     H246431   7.754   8.377   0.668
15397WAT      O46432   5.549   1.151   8.251
15397WAT     H146433   5.498   1.097   8.318
15397WAT     H246434   5.511   1.135   8.160
15398WAT      O46435   1.925   3.502   1.820
15398WAT     H146436   1.967   3.533   1.905
15398WAT     H246437   1.993   3.454   1.765
15399WAT      O46438   8.034   8.423   1.122
15399WAT     H146439   8.127   8.412   1.155
15399WAT     H246440   8.030   8.501   1.059
15400WAT      O46441   4.355   8.501   8.348
15400WAT     H146442   4.349   8.466   8.441
15400WAT     H246443   4.345   8.425   8.283
15401WAT      O46444   2.669   4.906   9.505
15401WAT     H146445   2.669   4.898   9.605
15401WAT     H246446   2.575   4.908   9.472
15402WAT      O46447   8.520   2.286   6.310
15402WAT     H146448   8.574   2.316   6.389
15402WAT     H246449   8.549   2.195   6.282
15403WAT      O46450   9.879   7.508   8.163
15403WAT     H146451   9.781   7.491   8.149
15403WAT     H246452   9.898   7.506   8.261
15404WAT      O46453   6.198   4.584   3.261
15404WAT     H146454   6.298   4.580   3.251
15404WAT     H246455   6.175   4.586   3.358
15405WAT      O46456   8.259   8.853   2.249
15405WAT     H146457   8.264   8.835   2.347
15405WAT     H246458   8.169   8.891   2.226
15406WAT      O46459   2.617   3.619   1.343
15406WAT     H146460   2.656   3.709   1.327
15406WAT     H246461   2.688   3.549   1.333
15407WAT      O46462   7.569   8.933   3.128
15407WAT     H146463   7.574   8.990   3.046
15407WAT     H246464   7.540   8.989   3.206
15408WAT      O46465   4.199   2.589   7.840
15408WAT     H146466   4.215   2.494   7.811
15408WAT     H246467   4.159   2.640   7.764
15409WAT      O46468   7.654   0.325   5.938
15409WAT     H146469   7.597   0.378   6.001
15409WAT     H246470   7.677   0.381   5.858
15410WAT      O46471   4.898   1.818   7.844
15410WAT     H146472   4.991   1.841   7.817
15410WAT     H246473   4.846   1.787   7.765
15411WAT      O46474   6.939   8.292   3.357
15411WAT     H146475   6.964   8.389   3.346
15411WAT     H246476   6.991   8.237   3.292
15412WAT      O46477   8.168   0.302   2.791
15412WAT     H146478   8.151   0.204   2.803
15412WAT     H246479   8.214   0.317   2.703
15413WAT      O46480   5.408   2.914   8.561
15413WAT     H146481   5.424   2.847   8.633
15413WAT     H246482   5.352   2.989   8.595
15414WAT      O46483   1.423   4.643   2.901
15414WAT     H146484   1.478   4.560   2.913
15414WAT     H246485   1.476   4.723   2.929
15415WAT      O46486   1.829   7.101   4.746
15415WAT     H146487   1.917   7.141   4.770
15415WAT     H246488   1.843   7.016   4.696
15416WAT      O46489   8.304   3.164   2.553
15416WAT     H146490   8.284   3.240   2.492
15416WAT     H246491   8.262   3.181   2.642
15417WAT      O46492   0.952   7.119   3.786
15417WAT     H146493   0.885   7.084   3.721
15417WAT     H246494   0.944   7.069   3.872
15418WAT      O46495   4.454   8.479   3.774
15418WAT     H146496   4.438   8.401   3.713
15418WAT     H246497   4.444   8.449   3.869
15419WAT      O46498   2.576   2.898   6.706
15419WAT     H146499   2.589   2.804   6.672
15419WAT     H246500   2.526   2.896   6.792
15420WAT      O46501   6.066   1.148   7.252
15420WAT     H146502   6.079   1.220   7.320
15420WAT     H246503   6.071   1.059   7.297
15421WAT      O46504   7.414   6.851   0.651
15421WAT     H146505   7.475   6.909   0.597
15421WAT     H246506   7.467   6.809   0.726
15422WAT      O46507   9.056   3.749   5.662
15422WAT     H146508   9.057   3.700   5.575
15422WAT     H246509   8.995   3.827   5.655
15423WAT      O46510   5.691   5.566   9.016
15423WAT     H146511   5.693   5.638   9.086
15423WAT     H246512   5.760   5.586   8.946
15424WAT      O46513   1.964   7.671   9.573
15424WAT     H146514   1.913   7.602   9.624
15424WAT     H246515   2.014   7.627   9.499
15425WAT      O46516   0.627   7.483   0.990
15425WAT     H146517   0.572   7.476   1.073
15425WAT     H246518   0.723   7.471   1.012
15426WAT      O46519   9.764   3.299   8.177
15426WAT     H146520   9.789   3.227   8.113
15426WAT     H246521   9.747   3.259   8.267
15427WAT      O46522   6.972   3.396   5.298
15427WAT     H146523   7.036   3.468   5.270
15427WAT     H246524   7.002   3.309   5.257
15428WAT      O46525   4.593   6.124   5.923
15428WAT     H146526   4.590   6.065   6.004
15428WAT     H246527   4.500   6.146   5.895
15429WAT      O46528   8.663   2.252   6.601
15429WAT     H146529   8.597   2.308   6.650
15429WAT     H246530   8.620   2.166   6.573
15430WAT      O46531   7.220   4.663   7.128
15430WAT     H146532   7.176   4.647   7.040
15430WAT     H246533   7.203   4.758   7.158
15431WAT      O46534   7.946   0.872   2.976
15431WAT     H146535   7.982   0.946   2.918
15431WAT     H246536   7.851   0.892   3.000
15432WAT      O46537   4.936   4.016   1.090
15432WAT     H146538   4.876   3.943   1.121
15432WAT     H246539   5.031   3.984   1.090
15433WAT      O46540   2.190   8.566   1.855
15433WAT     H146541   2.126   8.618   1.911
15433WAT     H246542   2.284   8.593   1.879
15434WAT      O46543   0.992   9.830   6.060
15434WAT     H146544   1.068   9.863   6.116
15434WAT     H246545   1.028   9.778   5.983
15435WAT      O46546   5.737   2.710   4.351
15435WAT     H146547   5.786   2.784   4.396
15435WAT     H246548   5.763   2.623   4.392
15436WAT      O46549   7.985   2.931   2.988
15436WAT     H146550   7.936   2.844   2.986
15436WAT     H246551   8.067   2.922   3.044
15437WAT      O46552   4.967   7.800   5.538
15437WAT     H146553   4.960   7.756   5.448
15437WAT     H246554   4.905   7.878   5.542
15438WAT      O46555   4.054   8.694   7.930
15438WAT     H146556   3.963   8.681   7.890
15438WAT     H246557   4.096   8.605   7.946
15439WAT      O46558   0.972   8.875   2.548
15439WAT     H146559   0.916   8.943   2.501
15439WAT     H246560   0.913   8.801   2.581
15440WAT      O46561   0.111   3.567   5.950
15440WAT     H146562   0.017   3.561   5.984
15440WAT     H246563   0.146   3.475   5.933
15441WAT      O46564   8.492   0.402   1.227
15441WAT     H146565   8.430   0.470   1.186
15441WAT     H246566   8.442   0.348   1.294
15442WAT      O46567   2.782   5.598   4.508
15442WAT     H146568   2.683   5.582   4.503
15442WAT     H246569   2.829   5.510   4.509
15443WAT      O46570   9.627   0.050   8.347
15443WAT     H146571   9.572  -0.033   8.339
15443WAT     H246572   9.574   0.122   8.390
15444WAT      O46573   8.723   1.612   1.584
15444WAT     H146574   8.687   1.699   1.617
15444WAT     H246575   8.729   1.548   1.660
15445WAT      O46576   5.845   2.237   9.653
15445WAT     H146577   5.906   2.212   9.579
15445WAT     H246578   5.765   2.178   9.652
15446WAT      O46579   2.398   5.886   4.375
15446WAT     H146580   2.485   5.838   4.366
15446WAT     H246581   2.412   5.984   4.360
15447WAT      O46582   9.110   5.851   0.257
15447WAT     H146583   9.167   5.922   0.298
15447WAT     H246584   9.164   5.767   0.248
15448WAT      O46585   0.724   2.775   3.778
15448WAT     H146586   0.632   2.796   3.810
15448WAT     H246587   0.749   2.681   3.805
15449WAT      O46588   7.782   7.258   7.727
15449WAT     H146589   7.718   7.296   7.660
15449WAT     H246590   7.732   7.218   7.803
15450WAT      O46591   9.297   8.353   6.607
15450WAT     H146592   9.262   8.265   6.575
15450WAT     H246593   9.392   8.343   6.637
15451WAT      O46594   4.528   5.715   9.574
15451WAT     H146595   4.464   5.788   9.599
15451WAT     H246596   4.548   5.659   9.654
15452WAT      O46597   7.301   2.398   1.923
15452WAT     H146598   7.205   2.379   1.904
15452WAT     H246599   7.345   2.433   1.840
15453WAT      O46600   0.088   1.296   3.063
15453WAT     H146601   0.084   1.367   3.132
15453WAT     H246602   0.150   1.223   3.092
15454WAT      O46603   7.764   9.749   1.454
15454WAT     H146604   7.687   9.764   1.516
15454WAT     H246605   7.817   9.833   1.447
15455WAT      O46606   9.396   7.251   6.764
15455WAT     H146607   9.328   7.234   6.693
15455WAT     H246608   9.377   7.338   6.809
15456WAT      O46609   1.092   7.689   4.717
15456WAT     H146610   1.084   7.783   4.686
15456WAT     H246611   1.041   7.677   4.803
15457WAT      O46612   5.009   6.695   8.218
15457WAT     H146613   5.103   6.665   8.235
15457WAT     H246614   4.945   6.631   8.261
15458WAT      O46615   2.230   0.932   3.436
15458WAT     H146616   2.186   0.853   3.395
15458WAT     H246617   2.255   0.911   3.530
15459WAT      O46618   7.426   6.851   2.394
15459WAT     H146619   7.368   6.804   2.328
15459WAT     H246620   7.373   6.923   2.440
15460WAT      O46621   0.867   4.526   2.345
15460WAT     H146622   0.819   4.497   2.427
15460WAT     H246623   0.865   4.452   2.277
15461WAT      O46624   8.683   3.222   0.575
15461WAT     H146625   8.778   3.209   0.604
15461WAT     H246626   8.654   3.315   0.598
15462WAT      O46627   4.476   9.092   1.473
15462WAT     H146628   4.402   9.127   1.416
15462WAT     H246629   4.438   9.046   1.553
15463WAT      O46630   3.127   4.664   8.225
15463WAT     H146631   3.062   4.589   8.238
15463WAT     H246632   3.190   4.667   8.302
15464WAT      O46633   9.869   5.104   8.337
15464WAT     H146634   9.818   5.175   8.385
15464WAT     H246635   9.835   5.014   8.365
15465WAT      O46636   3.323   4.122   3.341
15465WAT     H146637   3.393   4.076   3.395
15465WAT     H246638   3.305   4.212   3.379
15466WAT      O46639   1.570   0.688   8.521
15466WAT     H146640   1.652   0.635   8.541
15466WAT     H246641   1.572   0.773   8.574
15467WAT      O46642   3.341   1.929   8.134
15467WAT     H146643   3.288   1.856   8.091
15467WAT     H246644   3.289   1.968   8.209
15468WAT      O46645   5.586   9.114   3.187
15468WAT     H146646   5.536   9.072   3.263
15468WAT     H246647   5.675   9.070   3.178
15469WAT      O46648   6.174   4.606   4.213
15469WAT     H146649   6.252   4.636   4.158
15469WAT     H246650   6.201   4.528   4.269
15470WAT      O46651   0.886   6.573   2.562
15470WAT     H146652   0.846   6.550   2.474
15470WAT     H246653   0.972   6.622   2.548
15471WAT      O46654   9.102   8.198   4.806
15471WAT     H146655   9.154   8.124   4.764
15471WAT     H246656   9.127   8.285   4.763
15472WAT      O46657   9.264   9.333   1.209
15472WAT     H146658   9.273   9.416   1.264
15472WAT     H246659   9.351   9.313   1.163
15473WAT      O46660   6.936   3.285   0.722
15473WAT     H146661   6.866   3.291   0.651
15473WAT     H246662   6.894   3.294   0.812
15474WAT      O46663   6.517   0.990   0.186
15474WAT     H146664   6.521   1.085   0.216
15474WAT     H246665   6.547   0.930   0.260
15475WAT      O46666   3.344   8.540   1.869
15475WAT     H146667   3.272   8.604   1.844
15475WAT     H246668   3.309   8.447   1.866
15476WAT      O46669   0.178   8.775   5.851
15476WAT     H146670   0.207   8.679   5.856
15476WAT     H246671   0.081   8.782   5.874
15477WAT      O46672   0.297   6.883   1.843
15477WAT     H146673   0.243   6.874   1.927
15477WAT     H246674   0.370   6.950   1.858
15478WAT      O46675   1.147   6.050   4.667
15478WAT     H146676   1.241   6.028   4.691
15478WAT     H246677   1.146   6.127   4.603
15479WAT      O46678   1.578   3.812   5.917
15479WAT     H146679   1.636   3.818   5.998
15479WAT     H246680   1.600   3.729   5.865
15480WAT      O46681   1.943   2.448   1.177
15480WAT     H146682   1.966   2.353   1.161
15480WAT     H246683   2.017   2.493   1.227
15481WAT      O46684   6.328   8.293   9.187
15481WAT     H146685   6.393   8.368   9.176
15481WAT     H246686   6.346   8.222   9.119
15482WAT      O46687   6.887   8.877   9.890
15482WAT     H146688   6.792   8.855   9.866
15482WAT     H246689   6.947   8.802   9.863
15483WAT      O46690   5.190   6.582   1.576
15483WAT     H146691   5.114   6.645   1.593
15483WAT     H246692   5.182   6.545   1.483
15484WAT      O46693   2.517   4.942   8.861
15484WAT     H146694   2.518   4.957   8.960
15484WAT     H246695   2.511   4.844   8.843
15485WAT      O46696   4.288   8.622   2.469
15485WAT     H146697   4.323   8.674   2.547
15485WAT     H246698   4.193   8.648   2.451
15486WAT      O46699   6.761   1.742   3.038
15486WAT     H146700   6.675   1.715   3.081
15486WAT     H246701   6.754   1.729   2.939
15487WAT      O46702   1.025   3.759   4.912
15487WAT     H146703   0.970   3.718   4.985
15487WAT     H246704   1.017   3.859   4.917
15488WAT      O46705   2.177   5.289   3.614
15488WAT     H146706   2.123   5.293   3.529
15488WAT     H246707   2.121   5.319   3.691
15489WAT      O46708   0.977   8.021   0.406
15489WAT     H146709   0.914   7.985   0.474
15489WAT     H246710   0.986   8.120   0.416
15490WAT      O46711   2.066   9.059   2.881
15490WAT     H146712   2.004   9.118   2.829
15490WAT     H246713   2.021   8.971   2.897
15491WAT      O46714   8.027   2.179   1.600
15491WAT     H146715   8.068   2.267   1.575
15491WAT     H246716   8.006   2.128   1.516
15492WAT      O46717   9.009   0.053   0.019
15492WAT     H146718   9.039   0.146   0.043
15492WAT     H246719   8.918   0.057  -0.022
15493WAT      O46720   6.158   9.826   4.171
15493WAT     H146721   6.235   9.816   4.234
15493WAT     H246722   6.085   9.878   4.215
15494WAT      O46723   2.767   4.968   6.696
15494WAT     H146724   2.789   5.063   6.674
15494WAT     H246725   2.668   4.954   6.690
15495WAT      O46726   6.410   8.096   1.504
15495WAT     H146727   6.465   8.127   1.427
15495WAT     H246728   6.394   8.172   1.566
15496WAT      O46729   3.659   8.840   5.430
15496WAT     H146730   3.647   8.741   5.432
15496WAT     H246731   3.593   8.881   5.366
15497WAT      O46732   5.197   4.305   7.360
15497WAT     H146733   5.188   4.208   7.337
15497WAT     H246734   5.218   4.357   7.277
15498WAT      O46735   5.560   2.335   7.419
15498WAT     H146736   5.514   2.285   7.492
15498WAT     H246737   5.612   2.270   7.363
15499WAT      O46738   5.079   0.086   8.912
15499WAT     H146739   5.087   0.169   8.966
15499WAT     H246740   5.046   0.108   8.820
15500WAT      O46741   2.042   3.334   2.745
15500WAT     H146742   2.075   3.335   2.839
15500WAT     H246743   2.109   3.376   2.685
15501WAT      O46744   8.930   9.553   8.648
15501WAT     H146745   8.979   9.636   8.624
15501WAT     H246746   8.849   9.576   8.702
15502WAT      O46747   0.309   2.566   1.983
15502WAT     H146748   0.305   2.591   2.080
15502WAT     H246749   0.402   2.541   1.959
15503WAT      O46750   6.756   6.446   0.733
15503WAT     H146751   6.679   6.421   0.675
15503WAT     H246752   6.768   6.377   0.804
15504WAT      O46753   6.908   1.923   7.388
15504WAT     H146754   6.901   1.852   7.458
15504WAT     H246755   6.835   1.991   7.402
15505WAT      O46756   0.709   6.536   4.166
15505WAT     H146757   0.749   6.467   4.106
15505WAT     H246758   0.661   6.491   4.241
15506WAT      O46759   7.009   0.026   3.710
15506WAT     H146760   7.085   0.052   3.769
15506WAT     H246761   7.022  -0.067   3.678
15507WAT      O46762   1.218   2.787   7.673
15507WAT     H146763   1.288   2.802   7.603
15507WAT     H246764   1.134   2.756   7.630
15508WAT      O46765   5.910   9.739   2.304
15508WAT     H146766   5.977   9.751   2.377
15508WAT     H246767   5.820   9.717   2.344
15509WAT      O46768   7.345   6.458   4.985
15509WAT     H146769   7.346   6.382   4.920
15509WAT     H246770   7.437   6.472   5.021
15510WAT      O46771   4.120   0.899   5.815
15510WAT     H146772   4.197   0.923   5.874
15510WAT     H246773   4.131   0.943   5.725
15511WAT      O46774   7.117   5.689   5.579
15511WAT     H146775   7.069   5.777   5.571
15511WAT     H246776   7.094   5.647   5.666
15512WAT      O46777   2.189   8.064   5.251
15512WAT     H146778   2.131   7.993   5.291
15512WAT     H246779   2.161   8.153   5.286
15513WAT      O46780   0.986   1.694   6.996
15513WAT     H146781   1.047   1.751   6.941
15513WAT     H246782   0.930   1.637   6.936
15514WAT      O46783   0.244   6.542   0.820
15514WAT     H146784   0.292   6.457   0.839
15514WAT     H246785   0.212   6.582   0.906
15515WAT      O46786   2.274   1.946   2.935
15515WAT     H146787   2.349   1.986   2.986
15515WAT     H246788   2.310   1.879   2.870
15516WAT      O46789   2.554   3.352   7.812
15516WAT     H146790   2.627   3.401   7.860
15516WAT     H246791   2.523   3.407   7.735
15517WAT      O46792   9.816   4.862   3.655
15517WAT     H146793   9.747   4.793   3.673
15517WAT     H246794   9.885   4.825   3.593
15518WAT      O46795   7.735   7.718   2.864
15518WAT     H146796   7.776   7.628   2.877
15518WAT     H246797   7.751   7.774   2.945
15519WAT      O46798   7.847   7.999   7.933
15519WAT     H146799   7.926   7.958   7.888
15519WAT     H246800   7.798   7.930   7.986
15520WAT      O46801   6.877   5.662   4.380
15520WAT     H146802   6.849   5.599   4.452
15520WAT     H246803   6.846   5.755   4.404
15521WAT      O46804   0.066   6.551   3.018
15521WAT     H146805   0.133   6.558   3.092
15521WAT     H246806  -0.024   6.580   3.052
15522WAT      O46807   6.323   8.615   9.340
15522WAT     H146808   6.383   8.584   9.267
15522WAT     H246809   6.235   8.567   9.333
15523WAT      O46810   3.308   3.758   0.847
15523WAT     H146811   3.331   3.680   0.906
15523WAT     H246812   3.346   3.842   0.886
15524WAT      O46813   8.627   9.595   1.012
15524WAT     H146814   8.578   9.508   1.003
15524WAT     H246815   8.711   9.591   0.959
15525WAT      O46816   2.899   1.533   1.475
15525WAT     H146817   2.985   1.560   1.433
15525WAT     H246818   2.911   1.447   1.525
15526WAT      O46819   9.736   3.251   0.549
15526WAT     H146820   9.714   3.271   0.644
15526WAT     H246821   9.714   3.331   0.492
15527WAT      O46822   3.845   4.646   6.869
15527WAT     H146823   3.942   4.624   6.859
15527WAT     H246824   3.792   4.591   6.804
15528WAT      O46825   3.905   1.909   1.639
15528WAT     H146826   3.912   2.004   1.608
15528WAT     H246827   3.958   1.850   1.578
15529WAT      O46828   5.668   1.386   8.159
15529WAT     H146829   5.634   1.310   8.216
15529WAT     H246830   5.756   1.360   8.119
15530WAT      O46831   9.045   6.288   5.204
15530WAT     H146832   8.974   6.316   5.268
15530WAT     H246833   9.047   6.188   5.200
15531WAT      O46834   7.567   1.350   3.431
15531WAT     H146835   7.499   1.349   3.358
15531WAT     H246836   7.542   1.420   3.498
15532WAT      O46837   9.479   6.708   8.215
15532WAT     H146838   9.435   6.619   8.225
15532WAT     H246839   9.516   6.738   8.304
15533WAT      O46840   6.068   5.997   1.963
15533WAT     H146841   5.970   5.983   1.946
15533WAT     H246842   6.108   5.910   1.994
15534WAT      O46843   3.963   3.786   3.902
15534WAT     H146844   3.931   3.814   3.812
15534WAT     H246845   4.058   3.815   3.915
15535WAT      O46846   2.920   0.702   9.104
15535WAT     H146847   3.014   0.703   9.138
15535WAT     H246848   2.857   0.726   9.179
15536WAT      O46849   8.980   9.038   8.995
15536WAT     H146850   8.946   8.950   9.030
15536WAT     H246851   8.914   9.110   9.017
15537WAT      O46852   0.252   2.777   6.947
15537WAT     H146853   0.319   2.774   7.021
15537WAT     H246854   0.177   2.714   6.967
15538WAT      O46855   7.800   9.583   8.291
15538WAT     H146856   7.759   9.673   8.306
15538WAT     H246857   7.820   9.541   8.379
15539WAT      O46858   3.838   6.456   2.085
15539WAT     H146859   3.924   6.404   2.084
15539WAT     H246860   3.790   6.439   2.171
15540WAT      O46861   1.909   6.639   3.192
15540WAT     H146862   1.973   6.637   3.115
15540WAT     H246863   1.823   6.595   3.166
15541WAT      O46864   0.375   4.494   4.217
15541WAT     H146865   0.381   4.508   4.118
15541WAT     H246866   0.397   4.579   4.264
15542WAT      O46867   3.858   9.807   5.409
15542WAT     H146868   3.781   9.769   5.357
15542WAT     H246869   3.942   9.796   5.357
15543WAT      O46870   1.698   2.917   5.225
15543WAT     H146871   1.797   2.917   5.241
15543WAT     H246872   1.677   2.864   5.143
15544WAT      O46873   2.263   0.919   7.008
15544WAT     H146874   2.191   0.856   7.037
15544WAT     H246875   2.221   1.004   6.975
15545WAT      O46876   1.384   8.784   1.869
15545WAT     H146877   1.302   8.840   1.867
15545WAT     H246878   1.464   8.841   1.850
15546WAT      O46879   2.131   8.841   6.871
15546WAT     H146880   2.105   8.802   6.959
15546WAT     H246881   2.186   8.923   6.887
15547WAT      O46882   8.767   2.791   6.049
15547WAT     H146883   8.816   2.741   6.121
15547WAT     H246884   8.814   2.780   5.962
15548WAT      O46885   9.286   7.758   9.262
15548WAT     H146886   9.339   7.679   9.231
15548WAT     H246887   9.244   7.738   9.350
15549WAT      O46888   3.430   7.189   4.441
15549WAT     H146889   3.493   7.225   4.373
15549WAT     H246890   3.358   7.137   4.395
15550WAT      O46891   0.985   6.914   9.413
15550WAT     H146892   0.998   7.005   9.374
15550WAT     H246893   0.906   6.914   9.474
15551WAT      O46894   1.693   0.401   1.662
15551WAT     H146895   1.783   0.439   1.684
15551WAT     H246896   1.695   0.361   1.571
15552WAT      O46897   1.088   0.560   3.981
15552WAT     H146898   1.132   0.523   4.063
15552WAT     H246899   1.120   0.510   3.900
15553WAT      O46900   9.410   0.271   3.856
15553WAT     H146901   9.313   0.253   3.866
15553WAT     H246902   9.437   0.257   3.760
15554WAT      O46903   3.741   4.582   1.829
15554WAT     H146904   3.685   4.665   1.828
15554WAT     H246905   3.834   4.604   1.799
15555WAT      O46906   0.853   5.529   7.852
15555WAT     H146907   0.940   5.499   7.813
15555WAT     H246908   0.847   5.499   7.947
15556WAT      O46909   6.659   5.145   4.674
15556WAT     H146910   6.564   5.115   4.677
15556WAT     H246911   6.719   5.067   4.692
15557WAT      O46912   9.260   6.866   1.671
15557WAT     H146913   9.239   6.928   1.747
15557WAT     H246914   9.360   6.859   1.661
15558WAT      O46915   9.711   1.669   7.713
15558WAT     H146916   9.671   1.669   7.805
15558WAT     H246917   9.766   1.587   7.701
15559WAT      O46918   9.179   1.773   0.371
15559WAT     H146919   9.192   1.830   0.452
15559WAT     H246920   9.265   1.727   0.349
15560WAT      O46921   3.801   8.498   7.526
15560WAT     H146922   3.731   8.568   7.512
15560WAT     H246923   3.762   8.408   7.509
15561WAT      O46924   5.090   3.656   9.713
15561WAT     H146925   5.064   3.641   9.808
15561WAT     H246926   5.185   3.630   9.699
15562WAT      O46927   2.537   5.802   6.875
15562WAT     H146928   2.616   5.754   6.836
15562WAT     H246929   2.485   5.845   6.801
15563WAT      O46930   4.567   0.147   2.016
15563WAT     H146931   4.532   0.075   1.956
15563WAT     H246932   4.541   0.128   2.110
15564WAT      O46933   8.652   9.461   7.584
15564WAT     H146934   8.747   9.435   7.573
15564WAT     H246935   8.594   9.400   7.530
15565WAT      O46936   7.928   4.683   4.013
15565WAT     H146937   7.965   4.607   3.960
15565WAT     H246938   8.003   4.735   4.054
15566WAT      O46939   4.142   8.805   0.078
15566WAT     H146940   4.080   8.883   0.071
15566WAT     H246941   4.207   8.808   0.002
15567WAT      O46942   8.248   8.427   0.807
15567WAT     H146943   8.238   8.457   0.713
15567WAT     H246944   8.286   8.501   0.862
15568WAT      O46945   9.630   3.433   0.374
15568WAT     H146946   9.551   3.424   0.436
15568WAT     H246947   9.599   3.421   0.280
15569WAT      O46948   0.150   3.301   3.437
15569WAT     H146949   0.170   3.308   3.535
15569WAT     H246950   0.216   3.354   3.385
15570WAT      O46951   5.793   8.762   4.732
15570WAT     H146952   5.729   8.686   4.717
15570WAT     H246953   5.882   8.725   4.759
15571WAT      O46954   3.895   7.948   3.889
15571WAT     H146955   3.946   8.009   3.950
15571WAT     H246956   3.949   7.929   3.808
15572WAT      O46957   3.140   5.208   7.035
15572WAT     H146958   3.195   5.166   6.963
15572WAT     H246959   3.183   5.293   7.065
15573WAT      O46960   7.290   3.318   4.595
15573WAT     H146961   7.322   3.378   4.522
15573WAT     H246962   7.209   3.267   4.564
15574WAT      O46963   7.780   1.633   1.775
15574WAT     H146964   7.859   1.692   1.760
15574WAT     H246965   7.719   1.675   1.843
15575WAT      O46966   5.484   0.727   9.232
15575WAT     H146967   5.570   0.759   9.192
15575WAT     H246968   5.493   0.726   9.332
15576WAT      O46969   7.846   5.922   0.564
15576WAT     H146970   7.776   5.893   0.629
15576WAT     H246971   7.832   6.018   0.540
15577WAT      O46972   2.975   2.642   3.444
15577WAT     H146973   3.027   2.557   3.431
15577WAT     H246974   2.878   2.621   3.451
15578WAT      O46975   4.133   7.399   2.677
15578WAT     H146976   4.170   7.339   2.748
15578WAT     H246977   4.205   7.419   2.610
15579WAT      O46978   2.052   9.802   7.372
15579WAT     H146979   1.962   9.839   7.394
15579WAT     H246980   2.084   9.839   7.285
15580WAT      O46981   6.201   5.781   8.675
15580WAT     H146982   6.112   5.822   8.655
15580WAT     H246983   6.202   5.687   8.640
15581WAT      O46984   5.921   3.975   2.107
15581WAT     H146985   5.922   4.022   2.195
15581WAT     H246986   5.997   4.008   2.051
15582WAT      O46987   0.566   8.465   1.998
15582WAT     H146988   0.500   8.539   1.989
15582WAT     H246989   0.549   8.416   2.083
15583WAT      O46990   3.126   6.190   2.451
15583WAT     H146991   3.148   6.109   2.504
15583WAT     H246992   3.184   6.193   2.369
15584WAT      O46993   9.888   9.830   3.672
15584WAT     H146994   9.887   9.760   3.744
15584WAT     H246995   9.810   9.891   3.684
15585WAT      O46996   1.072   0.710   8.191
15585WAT     H146997   1.055   0.766   8.272
15585WAT     H246998   1.043   0.616   8.209
15586WAT      O46999   2.458   8.279   4.120
15586WAT     H147000   2.459   8.354   4.054
15586WAT     H247001   2.516   8.303   4.198
15587WAT      O47002   8.707   9.412   0.509
15587WAT     H147003   8.650   9.495   0.511
15587WAT     H247004   8.790   9.431   0.456
15588WAT      O47005   4.919   2.890   7.081
15588WAT     H147006   5.009   2.909   7.040
15588WAT     H247007   4.928   2.885   7.180
15589WAT      O47008   2.798   4.605   6.498
15589WAT     H147009   2.708   4.573   6.527
15589WAT     H247010   2.789   4.695   6.455
15590WAT      O47011   3.394   4.145   6.248
15590WAT     H147012   3.444   4.191   6.321
15590WAT     H247013   3.457   4.085   6.198
15591WAT      O47014   9.582   6.683   7.965
15591WAT     H147015   9.530   6.705   8.047
15591WAT     H247016   9.526   6.701   7.884
15592WAT      O47017   6.570   3.614   8.727
15592WAT     H147018   6.623   3.699   8.727
15592WAT     H247019   6.585   3.565   8.813
15593WAT      O47020   6.638   8.833   4.714
15593WAT     H147021   6.717   8.773   4.729
15593WAT     H247022   6.563   8.780   4.674
15594WAT      O47023   6.608   9.677   3.656
15594WAT     H147024   6.526   9.723   3.692
15594WAT     H247025   6.649   9.733   3.584
15595WAT      O47026   5.355   8.188   0.555
15595WAT     H147027   5.348   8.139   0.467
15595WAT     H247028   5.446   8.171   0.594
15596WAT      O47029   8.281   3.225   8.672
15596WAT     H147030   8.379   3.206   8.677
15596WAT     H247031   8.268   3.318   8.636
15597WAT      O47032   6.347   6.344   2.175
15597WAT     H147033   6.381   6.385   2.091
15597WAT     H247034   6.374   6.248   2.179
15598WAT      O47035   3.622   6.740   2.259
15598WAT     H147036   3.595   6.804   2.332
15598WAT     H247037   3.624   6.788   2.172
15599WAT      O47038   9.770   3.942   5.196
15599WAT     H147039   9.764   3.861   5.254
15599WAT     H247040   9.805   3.916   5.106
15600WAT      O47041   6.959   5.547   1.739
15600WAT     H147042   6.913   5.470   1.695
15600WAT     H247043   7.046   5.516   1.777
15601WAT      O47044   1.768   6.415   4.372
15601WAT     H147045   1.847   6.445   4.426
15601WAT     H247046   1.781   6.443   4.277
15602WAT      O47047   3.964   2.142   8.405
15602WAT     H147048   4.045   2.086   8.387
15602WAT     H247049   3.935   2.128   8.500
15603WAT      O47050   9.624   7.427   5.340
15603WAT     H147051   9.558   7.404   5.410
15603WAT     H247052   9.712   7.450   5.383
15604WAT      O47053   9.892   0.551   7.581
15604WAT     H147054   9.858   0.497   7.658
15604WAT     H247055   9.852   0.517   7.496
15605WAT      O47056   5.618   4.122   2.844
15605WAT     H147057   5.594   4.188   2.915
15605WAT     H247058   5.704   4.078   2.868
15606WAT      O47059   5.616   2.418   3.836
15606WAT     H147060   5.609   2.464   3.925
15606WAT     H247061   5.536   2.440   3.781
15607WAT      O47062   8.378   0.828   0.076
15607WAT     H147063   8.317   0.750   0.093
15607WAT     H247064   8.389   0.880   0.161
15608WAT      O47065   2.044   4.771   4.630
15608WAT     H147066   1.960   4.825   4.637
15608WAT     H247067   2.034   4.705   4.555
15609WAT      O47068   4.586   7.005   8.953
15609WAT     H147069   4.622   7.011   9.046
15609WAT     H247070   4.571   6.909   8.929
15610WAT      O47071   7.348   3.515   0.471
15610WAT     H147072   7.420   3.493   0.537
15610WAT     H247073   7.279   3.442   0.471
15611WAT      O47074   1.422   1.287   6.572
15611WAT     H147075   1.377   1.207   6.533
15611WAT     H247076   1.360   1.331   6.638
15612WAT      O47077   5.770   5.829   6.834
15612WAT     H147078   5.857   5.836   6.882
15612WAT     H247079   5.775   5.759   6.763
15613WAT      O47080   2.440   7.736   2.795
15613WAT     H147081   2.392   7.820   2.769
15613WAT     H247082   2.533   7.758   2.823
15614WAT      O47083   0.387   3.274   7.407
15614WAT     H147084   0.439   3.360   7.408
15614WAT     H247085   0.320   3.274   7.480
15615WAT      O47086   9.398   1.730   4.358
15615WAT     H147087   9.394   1.689   4.449
15615WAT     H247088   9.312   1.711   4.309
15616WAT      O47089   1.353   4.986   9.307
15616WAT     H147090   1.317   5.078   9.316
15616WAT     H247091   1.452   4.990   9.295
15617WAT      O47092   4.201   2.864   6.795
15617WAT     H147093   4.227   2.767   6.800
15617WAT     H247094   4.125   2.881   6.857
15618WAT      O47095   3.832   5.654   6.964
15618WAT     H147096   3.837   5.664   6.865
15618WAT     H247097   3.922   5.631   7.000
15619WAT      O47098   1.326   8.085   3.307
15619WAT     H147099   1.251   8.062   3.370
15619WAT     H247100   1.404   8.119   3.360
15620WAT      O47101   9.095   1.599   1.907
15620WAT     H147102   8.997   1.606   1.927
15620WAT     H247103   9.145   1.666   1.962
15621WAT      O47104   5.775   0.348   5.420
15621WAT     H147105   5.834   0.429   5.413
15621WAT     H247106   5.833   0.267   5.432
15622WAT      O47107   4.828   9.539   0.272
15622WAT     H147108   4.763   9.605   0.309
15622WAT     H247109   4.815   9.532   0.173
15623WAT      O47110   8.603   6.061   5.950
15623WAT     H147111   8.637   6.096   6.037
15623WAT     H247112   8.505   6.080   5.942
15624WAT      O47113   6.460   1.944   1.417
15624WAT     H147114   6.477   2.039   1.391
15624WAT     H247115   6.378   1.911   1.370
15625WAT      O47116   1.455   6.572   1.571
15625WAT     H147117   1.484   6.536   1.483
15625WAT     H247118   1.520   6.543   1.642
15626WAT      O47119   7.083   5.846   7.264
15626WAT     H147120   7.085   5.941   7.293
15626WAT     H247121   7.168   5.824   7.216
15627WAT      O47122   2.864   7.731   4.080
15627WAT     H147123   2.845   7.815   4.030
15627WAT     H247124   2.788   7.712   4.143
15628WAT      O47125   2.974   7.325   9.642
15628WAT     H147126   2.928   7.413   9.653
15628WAT     H247127   2.996   7.287   9.732
15629WAT      O47128   7.006   9.493   0.408
15629WAT     H147129   7.060   9.436   0.471
15629WAT     H247130   6.909   9.486   0.431
15630WAT      O47131   3.473   2.764   3.948
15630WAT     H147132   3.546   2.726   4.005
15630WAT     H247133   3.428   2.691   3.898
15631WAT      O47134   2.378   8.573   9.251
15631WAT     H147135   2.456   8.530   9.204
15631WAT     H247136   2.294   8.551   9.203
15632WAT      O47137   0.419   6.826   4.388
15632WAT     H147138   0.424   6.925   4.402
15632WAT     H247139   0.456   6.803   4.297
15633WAT      O47140   1.304   0.427   2.674
15633WAT     H147141   1.227   0.449   2.614
15633WAT     H247142   1.328   0.508   2.729
15634WAT      O47143   6.171   4.456   0.970
15634WAT     H147144   6.113   4.388   0.924
15634WAT     H247145   6.258   4.414   0.995
15635WAT      O47146   0.280   5.990   9.200
15635WAT     H147147   0.314   6.016   9.110
15635WAT     H247148   0.227   6.065   9.239
15636WAT      O47149   6.216   5.302   4.320
15636WAT     H147150   6.256   5.235   4.383
15636WAT     H247151   6.290   5.352   4.274
15637WAT      O47152   1.187   4.978   1.753
15637WAT     H147153   1.242   5.061   1.744
15637WAT     H247154   1.218   4.925   1.832
15638WAT      O47155   2.068   0.178   6.096
15638WAT     H147156   2.132   0.105   6.075
15638WAT     H247157   2.078   0.206   6.191
15639WAT      O47158   2.109   1.782   6.823
15639WAT     H147159   2.140   1.831   6.742
15639WAT     H247160   2.140   1.830   6.905
15640WAT      O47161   0.538   4.048   5.672
15640WAT     H147162   0.515   3.973   5.609
15640WAT     H247163   0.544   4.012   5.765
15641WAT      O47164   8.742   3.992   3.099
15641WAT     H147165   8.797   4.075   3.100
15641WAT     H247166   8.769   3.934   3.022
15642WAT      O47167   3.582   1.642   3.386
15642WAT     H147168   3.625   1.572   3.330
15642WAT     H247169   3.574   1.609   3.480
15643WAT      O47170   5.685   9.530   3.708
15643WAT     H147171   5.746   9.560   3.634
15643WAT     H247172   5.680   9.601   3.778
15644WAT      O47173   4.392   8.857   5.954
15644WAT     H147174   4.402   8.791   6.029
15644WAT     H247175   4.351   8.811   5.875
15645WAT      O47176   2.945   0.125   4.184
15645WAT     H147177   2.860   0.123   4.237
15645WAT     H247178   2.930   0.080   4.096
15646WAT      O47179   9.501   4.610   1.726
15646WAT     H147180   9.407   4.615   1.693
15646WAT     H247181   9.559   4.668   1.670
15647WAT      O47182   1.978   8.724   5.316
15647WAT     H147183   2.056   8.738   5.378
15647WAT     H247184   1.906   8.674   5.364
15648WAT      O47185   4.032   8.406   8.484
15648WAT     H147186   3.960   8.417   8.552
15648WAT     H247187   4.070   8.313   8.489
15649WAT      O47188   6.789   4.667   6.445
15649WAT     H147189   6.820   4.572   6.446
15649WAT     H247190   6.785   4.700   6.351
15650WAT      O47191   3.534   2.125   0.459
15650WAT     H147192   3.520   2.224   0.452
15650WAT     H247193   3.497   2.092   0.546
15651WAT      O47194   8.695   7.793   1.070
15651WAT     H147195   8.715   7.853   0.993
15651WAT     H247196   8.770   7.796   1.136
15652WAT      O47197   2.220   6.888   7.300
15652WAT     H147198   2.131   6.859   7.336
15652WAT     H247199   2.206   6.950   7.223
15653WAT      O47200   7.056   0.690   3.541
15653WAT     H147201   7.155   0.699   3.546
15653WAT     H247202   7.029   0.595   3.554
15654WAT      O47203   9.395   6.206   2.234
15654WAT     H147204   9.487   6.192   2.197
15654WAT     H247205   9.349   6.117   2.242
15655WAT      O47206   1.281   4.531   2.337
15655WAT     H147207   1.301   4.619   2.381
15655WAT     H247208   1.270   4.546   2.239
15656WAT      O47209   3.493   3.230   3.421
15656WAT     H147210   3.504   3.294   3.497
15656WAT     H247211   3.483   3.281   3.336
15657WAT      O47212   2.127   9.403   2.624
15657WAT     H147213   2.057   9.459   2.580
15657WAT     H247214   2.126   9.420   2.722
15658WAT      O47215   2.932   7.219   7.463
15658WAT     H147216   2.900   7.205   7.369
15658WAT     H247217   3.010   7.160   7.481
15659WAT      O47218   4.536   2.566   0.830
15659WAT     H147219   4.540   2.479   0.879
15659WAT     H247220   4.458   2.567   0.768
15660WAT      O47221   0.830   1.083   9.712
15660WAT     H147222   0.808   1.181   9.710
15660WAT     H247223   0.928   1.070   9.693
15661WAT      O47224   1.314   8.484   2.720
15661WAT     H147225   1.229   8.467   2.771
15661WAT     H247226   1.338   8.580   2.726
15662WAT      O47227   5.688   2.447   1.397
15662WAT     H147228   5.675   2.522   1.332
15662WAT     H247229   5.690   2.483   1.490
15663WAT      O47230   6.903   7.822   1.003
15663WAT     H147231   6.984   7.766   0.985
15663WAT     H247232   6.860   7.792   1.088
15664WAT      O47233   0.056   7.526   9.579
15664WAT     H147234   0.126   7.564   9.640
15664WAT     H247235   0.064   7.567   9.488
15665WAT      O47236   8.957   9.022   1.206
15665WAT     H147237   8.943   8.935   1.158
15665WAT     H247238   8.910   9.095   1.156
15666WAT      O47239   5.548   8.730   1.608
15666WAT     H147240   5.552   8.672   1.690
15666WAT     H247241   5.636   8.727   1.561
15667WAT      O47242   8.636   1.745   0.829
15667WAT     H147243   8.649   1.712   0.736
15667WAT     H247244   8.620   1.844   0.827
15668WAT      O47245   0.061   8.005   2.951
15668WAT     H147246   0.151   7.975   2.984
15668WAT     H247247  -0.008   7.937   2.976
15669WAT      O47248   3.555   0.013   3.609
15669WAT     H147249   3.480  -0.047   3.635
15669WAT     H247250   3.596  -0.021   3.524
15670WAT      O47251   7.479   8.209   8.673
15670WAT     H147252   7.534   8.246   8.599
15670WAT     H247253   7.501   8.112   8.686
15671WAT      O47254   3.811   3.852   3.643
15671WAT     H147255   3.711   3.847   3.642
15671WAT     H247256   3.839   3.947   3.653
15672WAT      O47257   7.043   7.744   0.637
15672WAT     H147258   7.015   7.778   0.727
15672WAT     H247259   6.972   7.763   0.570
15673WAT      O47260   1.750   7.143   2.602
15673WAT     H147261   1.739   7.056   2.650
15673WAT     H247262   1.837   7.143   2.552
15674WAT      O47263   6.341   4.453   6.935
15674WAT     H147264   6.286   4.400   7.000
15674WAT     H247265   6.376   4.392   6.864
15675WAT      O47266   6.733   9.600   6.117
15675WAT     H147267   6.675   9.593   6.036
15675WAT     H247268   6.738   9.511   6.162
15676WAT      O47269   2.658   1.821   3.067
15676WAT     H147270   2.572   1.869   3.085
15676WAT     H247271   2.637   1.729   3.033
15677WAT      O47272   8.928   9.416   4.479
15677WAT     H147273   8.960   9.455   4.566
15677WAT     H247274   8.991   9.442   4.406
15678WAT      O47275   2.597   4.414   1.655
15678WAT     H147276   2.547   4.346   1.707
15678WAT     H247277   2.634   4.372   1.572
15679WAT      O47278   1.898   4.025   5.201
15679WAT     H147279   1.853   4.099   5.250
15679WAT     H247280   1.877   3.938   5.246
15680WAT      O47281   8.856   1.262   5.164
15680WAT     H147282   8.928   1.245   5.231
15680WAT     H247283   8.839   1.360   5.156
15681WAT      O47284   9.131   5.343   4.918
15681WAT     H147285   9.056   5.387   4.869
15681WAT     H247286   9.193   5.300   4.853
15682WAT      O47287   7.263   6.722   2.210
15682WAT     H147288   7.170   6.739   2.242
15682WAT     H247289   7.264   6.713   2.110
15683WAT      O47290   9.350   6.995   1.235
15683WAT     H147291   9.356   6.997   1.135
15683WAT     H247292   9.326   6.903   1.266
15684WAT      O47293   6.928   1.308   6.232
15684WAT     H147294   6.990   1.354   6.296
15684WAT     H247295   6.934   1.351   6.142
15685WAT      O47296   0.774   1.721   0.847
15685WAT     H147297   0.690   1.740   0.797
15685WAT     H247298   0.840   1.677   0.785
15686WAT      O47299   0.923   1.674   5.699
15686WAT     H147300   0.891   1.765   5.723
15686WAT     H247301   0.861   1.605   5.738
15687WAT      O47302   3.541   5.850   5.085
15687WAT     H147303   3.446   5.849   5.117
15687WAT     H247304   3.589   5.926   5.128
15688WAT      O47305   3.344   1.129   8.178
15688WAT     H147306   3.247   1.114   8.156
15688WAT     H247307   3.351   1.178   8.265
15689WAT      O47308   3.519   9.203   5.127
15689WAT     H147309   3.470   9.290   5.133
15689WAT     H247310   3.456   9.130   5.105
15690WAT      O47311   8.776   0.186   8.405
15690WAT     H147312   8.790   0.182   8.503
15690WAT     H247313   8.836   0.256   8.365
15691WAT      O47314   2.671   5.809   7.584
15691WAT     H147315   2.732   5.849   7.515
15691WAT     H247316   2.725   5.764   7.655
15692WAT      O47317   1.844   9.394   8.773
15692WAT     H147318   1.825   9.296   8.777
15692WAT     H247319   1.943   9.408   8.772
15693WAT      O47320   0.673   4.330   1.887
15693WAT     H147321   0.751   4.338   1.824
15693WAT     H247322   0.661   4.235   1.913
15694WAT      O47323   2.167   8.024   9.626
15694WAT     H147324   2.175   8.109   9.574
15694WAT     H247325   2.257   7.981   9.633
15695WAT      O47326   1.955   6.891   3.270
15695WAT     H147327   1.919   6.807   3.230
15695WAT     H247328   1.890   6.966   3.255
15696WAT      O47329   0.813   7.790   3.386
15696WAT     H147330   0.763   7.729   3.325
15696WAT     H247331   0.748   7.840   3.443
15697WAT      O47332   9.113   0.558   0.949
15697WAT     H147333   9.186   0.555   1.018
15697WAT     H247334   9.131   0.489   0.878
15698WAT      O47335   2.717   5.009   3.622
15698WAT     H147336   2.673   5.022   3.533
15698WAT     H247337   2.759   4.918   3.625
15699WAT      O47338   9.818   8.541   1.485
15699WAT     H147339   9.906   8.587   1.490
15699WAT     H247340   9.824   8.452   1.529
15700WAT      O47341   5.606   6.442   4.631
15700WAT     H147342   5.586   6.360   4.683
15700WAT     H247343   5.703   6.466   4.640
15701WAT      O47344   0.129   1.971   5.215
15701WAT     H147345   0.165   1.920   5.136
15701WAT     H247346   0.148   1.920   5.299
15702WAT      O47347   4.800   2.351   9.046
15702WAT     H147348   4.849   2.304   9.119
15702WAT     H247349   4.815   2.449   9.053
15703WAT      O47350   9.468   2.083   3.583
15703WAT     H147351   9.466   2.180   3.606
15703WAT     H247352   9.558   2.060   3.544
15704WAT      O47353   3.341   8.885   1.030
15704WAT     H147354   3.347   8.821   1.107
15704WAT     H247355   3.389   8.847   0.951
15705WAT      O47356   4.317   8.600   4.138
15705WAT     H147357   4.265   8.636   4.061
15705WAT     H247358   4.365   8.516   4.111
15706WAT      O47359   3.134   5.424   6.445
15706WAT     H147360   3.095   5.495   6.387
15706WAT     H247361   3.063   5.358   6.469
15707WAT      O47362   3.002   6.271   8.243
15707WAT     H147363   2.966   6.294   8.333
15707WAT     H247364   3.001   6.172   8.231
15708WAT      O47365   2.042   0.311   9.661
15708WAT     H147366   1.946   0.290   9.681
15708WAT     H247367   2.053   0.410   9.654
15709WAT      O47368   1.106   3.696   2.727
15709WAT     H147369   1.143   3.783   2.696
15709WAT     H247370   1.012   3.686   2.695
15710WAT      O47371   8.424   2.501   9.589
15710WAT     H147372   8.475   2.572   9.540
15710WAT     H247373   8.368   2.449   9.523
15711WAT      O47374   6.784   7.515   6.060
15711WAT     H147375   6.882   7.497   6.065
15711WAT     H247376   6.747   7.474   5.976
15712WAT      O47377   2.341   5.031   8.091
15712WAT     H147378   2.363   4.940   8.058
15712WAT     H247379   2.398   5.053   8.170
15713WAT      O47380   2.548   5.962   3.155
15713WAT     H147381   2.619   6.015   3.110
15713WAT     H247382   2.560   5.968   3.254
15714WAT      O47383   4.534   8.523   5.014
15714WAT     H147384   4.471   8.462   4.967
15714WAT     H247385   4.491   8.556   5.098
15715WAT      O47386   3.540   7.333   7.003
15715WAT     H147387   3.493   7.421   7.013
15715WAT     H247388   3.490   7.277   6.938
15716WAT      O47389   9.656   8.895   3.489
15716WAT     H147390   9.648   8.923   3.394
15716WAT     H247391   9.663   8.796   3.495
15717WAT      O47392   2.196   7.266   1.914
15717WAT     H147393   2.242   7.278   2.002
15717WAT     H247394   2.147   7.178   1.913
15718WAT      O47395   6.551   6.997   5.523
15718WAT     H147396   6.600   6.933   5.465
15718WAT     H247397   6.457   6.966   5.536
15719WAT      O47398   9.222   5.449   3.114
15719WAT     H147399   9.315   5.478   3.140
15719WAT     H247400   9.228   5.370   3.054
15720WAT      O47401   9.216   3.802   9.616
15720WAT     H147402   9.207   3.709   9.652
15720WAT     H247403   9.231   3.798   9.518
15721WAT      O47404   0.876   0.040   5.086
15721WAT     H147405   0.873  -0.050   5.129
15721WAT     H247406   0.809   0.044   5.012
15722WAT      O47407   1.006   4.014   4.549
15722WAT     H147408   0.911   4.003   4.517
15722WAT     H247409   1.048   4.092   4.503
15723WAT      O47410   6.424   2.545   0.340
15723WAT     H147411   6.431   2.595   0.254
15723WAT     H247412   6.502   2.483   0.349
15724WAT      O47413   1.905   3.203   2.321
15724WAT     H147414   1.947   3.166   2.239
15724WAT     H247415   1.805   3.198   2.313
15725WAT      O47416   2.976   6.065   9.688
15725WAT     H147417   3.025   6.083   9.773
15725WAT     H247418   2.897   6.127   9.682
15726WAT      O47419   1.477   7.241   6.954
15726WAT     H147420   1.540   7.311   6.987
15726WAT     H247421   1.387   7.254   6.997
15727WAT      O47422   3.098   8.747   4.996
15727WAT     H147423   3.024   8.813   4.979
15727WAT     H247424   3.180   8.775   4.944
15728WAT      O47425   0.150   5.356   0.727
15728WAT     H147426   0.055   5.367   0.695
15728WAT     H247427   0.199   5.297   0.663
15729WAT      O47428   8.511   0.947   6.499
15729WAT     H147429   8.433   0.989   6.546
15729WAT     H247430   8.596   0.987   6.533
15730WAT      O47431   9.084   4.973   4.988
15730WAT     H147432   9.000   4.941   5.034
15730WAT     H247433   9.141   5.022   5.054
15731WAT      O47434   3.694   0.813   2.410
15731WAT     H147435   3.710   0.727   2.362
15731WAT     H247436   3.744   0.887   2.365
15732WAT      O47437   2.163   6.043   7.167
15732WAT     H147438   2.200   6.016   7.078
15732WAT     H247439   2.227   6.104   7.213
15733WAT      O47440   0.926   8.403   7.738
15733WAT     H147441   0.931   8.324   7.799
15733WAT     H247442   0.841   8.454   7.756
15734WAT      O47443   9.220   1.046   2.090
15734WAT     H147444   9.265   0.994   2.017
15734WAT     H247445   9.290   1.089   2.147
15735WAT      O47446   5.780   7.131   7.124
15735WAT     H147447   5.843   7.199   7.085
15735WAT     H247448   5.739   7.078   7.050
15736WAT      O47449   8.048   4.506   4.675
15736WAT     H147450   8.123   4.441   4.664
15736WAT     H247451   7.986   4.474   4.748
15737WAT      O47452   2.955   0.316   1.443
15737WAT     H147453   3.004   0.400   1.422
15737WAT     H247454   2.858   0.329   1.424
15738WAT      O47455   6.777   9.586   8.828
15738WAT     H147456   6.743   9.620   8.916
15738WAT     H247457   6.841   9.510   8.845
15739WAT      O47458   7.604   4.953   0.107
15739WAT     H147459   7.594   4.935   0.010
15739WAT     H247460   7.684   5.011   0.123
15740WAT      O47461   7.754   7.672   3.505
15740WAT     H147462   7.807   7.667   3.589
15740WAT     H247463   7.660   7.641   3.523
15741WAT      O47464   4.499   0.343   6.936
15741WAT     H147465   4.530   0.437   6.926
15741WAT     H247466   4.400   0.338   6.921
15742WAT      O47467   7.526   2.838   1.839
15742WAT     H147468   7.547   2.790   1.754
15742WAT     H247469   7.433   2.874   1.834
15743WAT      O47470   9.760   0.994   8.787
15743WAT     H147471   9.732   0.960   8.697
15743WAT     H247472   9.855   0.969   8.804
15744WAT      O47473   6.370   1.537   3.445
15744WAT     H147474   6.369   1.560   3.543
15744WAT     H247475   6.276   1.540   3.410
15745WAT      O47476   8.918   6.588   3.495
15745WAT     H147477   8.829   6.594   3.541
15745WAT     H247478   8.991   6.610   3.560
15746WAT      O47479   5.637   7.871   7.213
15746WAT     H147480   5.550   7.919   7.227
15746WAT     H247481   5.709   7.937   7.194
15747WAT      O47482   8.828   8.186   8.074
15747WAT     H147483   8.762   8.130   8.025
15747WAT     H247484   8.782   8.263   8.117
15748WAT      O47485   7.762   8.184   9.755
15748WAT     H147486   7.727   8.171   9.848
15748WAT     H247487   7.718   8.263   9.713
15749WAT      O47488   4.771   1.467   9.875
15749WAT     H147489   4.804   1.549   9.921
15749WAT     H247490   4.848   1.413   9.842
15750WAT      O47491   9.248   1.092   6.970
15750WAT     H147492   9.251   1.129   7.063
15750WAT     H247493   9.216   0.997   6.973
15751WAT      O47494   3.867   2.212   1.303
15751WAT     H147495   3.842   2.309   1.302
15751WAT     H247496   3.840   2.169   1.217
15752WAT      O47497   3.291   8.896   0.499
15752WAT     H147498   3.214   8.870   0.557
15752WAT     H247499   3.261   8.963   0.431
15753WAT      O47500   6.948   2.610   4.718
15753WAT     H147501   6.978   2.543   4.786
15753WAT     H247502   6.960   2.702   4.755
15754WAT      O47503   8.598   1.701   9.059
15754WAT     H147504   8.696   1.715   9.066
15754WAT     H247505   8.564   1.658   9.143
15755WAT      O47506   8.906   0.425   9.746
15755WAT     H147507   8.951   0.385   9.827
15755WAT     H247508   8.907   0.525   9.753
15756WAT      O47509   8.073   4.014   1.927
15756WAT     H147510   8.148   4.064   1.883
15756WAT     H247511   7.986   4.057   1.904
15757WAT      O47512   6.498   7.191   5.731
15757WAT     H147513   6.534   7.136   5.655
15757WAT     H247514   6.439   7.262   5.694
15758WAT      O47515   7.835   1.244   9.363
15758WAT     H147516   7.930   1.229   9.390
15758WAT     H247517   7.825   1.226   9.265
15759WAT      O47518   1.357   7.208   4.951
15759WAT     H147519   1.402   7.119   4.957
15759WAT     H247520   1.376   7.250   4.862
15760WAT      O47521   3.481   9.445   4.003
15760WAT     H147522   3.428   9.514   4.052
15760WAT     H247523   3.556   9.489   3.954
15761WAT      O47524   2.136   5.523   5.783
15761WAT     H147525   2.109   5.512   5.687
15761WAT     H247526   2.118   5.617   5.811
15762WAT      O47527   8.701   2.799   7.819
15762WAT     H147528   8.607   2.801   7.851
15762WAT     H247529   8.720   2.711   7.775
15763WAT      O47530   7.864   5.012   4.672
15763WAT     H147531   7.804   4.934   4.689
15763WAT     H247532   7.912   5.000   4.585
15764WAT      O47533   8.890   1.016   8.087
15764WAT     H147534   8.951   0.937   8.086
15764WAT     H247535   8.891   1.059   7.997
15765WAT      O47536   8.224   4.283   4.715
15765WAT     H147537   8.311   4.331   4.705
15765WAT     H247538   8.206   4.267   4.812
15766WAT      O47539   7.754   9.339   5.390
15766WAT     H147540   7.792   9.286   5.466
15766WAT     H247541   7.790   9.432   5.393
15767WAT      O47542   0.773   6.983   2.351
15767WAT     H147543   0.766   7.082   2.344
15767WAT     H247544   0.693   6.947   2.398
15768WAT      O47545   5.876   0.076   1.855
15768WAT     H147546   5.915   0.143   1.919
15768WAT     H247547   5.946   0.011   1.828
15769WAT      O47548   7.650   9.801   7.340
15769WAT     H147549   7.655   9.899   7.358
15769WAT     H247550   7.700   9.752   7.411
15770WAT      O47551   1.568   9.128   8.140
15770WAT     H147552   1.481   9.095   8.178
15770WAT     H247553   1.622   9.169   8.213
15771WAT      O47554   7.708   5.550   5.960
15771WAT     H147555   7.724   5.597   5.873
15771WAT     H247556   7.718   5.614   6.035
15772WAT      O47557   1.304   8.059   3.872
15772WAT     H147558   1.229   8.122   3.893
15772WAT     H247559   1.392   8.105   3.885
15773WAT      O47560   3.261   7.448   0.202
15773WAT     H147561   3.222   7.408   0.119
15773WAT     H247562   3.281   7.375   0.267
15774WAT      O47563   2.398   7.876   5.118
15774WAT     H147564   2.313   7.914   5.156
15774WAT     H247565   2.383   7.854   5.021
15775WAT      O47566   2.495   5.139   4.603
15775WAT     H147567   2.508   5.062   4.665
15775WAT     H247568   2.432   5.205   4.645
15776WAT      O47569   8.305   4.749   1.407
15776WAT     H147570   8.383   4.723   1.349
15776WAT     H247571   8.303   4.848   1.418
15777WAT      O47572   7.532   1.097   9.622
15777WAT     H147573   7.556   1.159   9.547
15777WAT     H247574   7.581   1.010   9.611
15778WAT      O47575   0.731   0.885   2.347
15778WAT     H147576   0.642   0.841   2.331
15778WAT     H247577   0.739   0.911   2.443
15779WAT      O47578   7.515   3.359   3.645
15779WAT     H147579   7.519   3.425   3.719
15779WAT     H247580   7.423   3.322   3.637
15780WAT      O47581   5.038   6.777   5.427
15780WAT     H147582   5.092   6.840   5.371
15780WAT     H247583   4.999   6.706   5.369
15781WAT      O47584   1.532   5.747   4.636
15781WAT     H147585   1.608   5.683   4.643
15781WAT     H247586   1.488   5.737   4.547
15782WAT      O47587   0.703   9.615   7.758
15782WAT     H147588   0.769   9.681   7.723
15782WAT     H247589   0.610   9.651   7.747
15783WAT      O47590   3.753   2.169   5.164
15783WAT     H147591   3.781   2.079   5.196
15783WAT     H247592   3.690   2.160   5.087
15784WAT      O47593   6.521   7.075   4.579
15784WAT     H147594   6.555   7.017   4.653
15784WAT     H247595   6.515   7.170   4.609
15785WAT      O47596   7.455   5.830   4.787
15785WAT     H147597   7.554   5.835   4.791
15785WAT     H247598   7.420   5.905   4.731
15786WAT      O47599   9.453   6.419   8.676
15786WAT     H147600   9.420   6.372   8.595
15786WAT     H247601   9.540   6.464   8.655
15787WAT      O47602   7.726   6.446   5.463
15787WAT     H147603   7.653   6.379   5.475
15787WAT     H247604   7.691   6.526   5.415
15788WAT      O47605   0.101   9.109   2.865
15788WAT     H147606   0.124   9.046   2.939
15788WAT     H247607   0.082   9.199   2.903
15789WAT      O47608   1.066   0.236   3.495
15789WAT     H147609   1.050   0.156   3.553
15789WAT     H247610   0.978   0.275   3.467
15790WAT      O47611   3.011   3.175   6.641
15790WAT     H147612   2.922   3.158   6.681
15790WAT     H247613   3.065   3.234   6.702
15791WAT      O47614   6.181   9.038   1.684
15791WAT     H147615   6.225   8.970   1.743
15791WAT     H247616   6.190   9.010   1.588
15792WAT      O47617   0.689   6.093   1.294
15792WAT     H147618   0.759   6.046   1.239
15792WAT     H247619   0.626   6.025   1.331
15793WAT      O47620   5.065   9.237   1.822
15793WAT     H147621   4.976   9.283   1.817
15793WAT     H247622   5.052   9.143   1.851
15794WAT      O47623   2.360   5.676   5.179
15794WAT     H147624   2.438   5.682   5.240
15794WAT     H247625   2.331   5.768   5.152
15795WAT      O47626   7.924   3.433   2.878
15795WAT     H147627   8.009   3.382   2.894
15795WAT     H247628   7.943   3.514   2.824
15796WAT      O47629   2.285   5.670   1.394
15796WAT     H147630   2.270   5.732   1.471
15796WAT     H247631   2.232   5.701   1.315
15797WAT      O47632   7.934   3.980   9.113
15797WAT     H147633   7.981   3.979   9.201
15797WAT     H247634   7.987   3.930   9.045
15798WAT      O47635   6.968   0.833   8.036
15798WAT     H147636   7.058   0.874   8.021
15798WAT     H247637   6.897   0.901   8.019
15799WAT      O47638   5.120   9.320   2.340
15799WAT     H147639   5.114   9.394   2.407
15799WAT     H247640   5.042   9.326   2.277
15800WAT      O47641   1.090   4.320   8.456
15800WAT     H147642   1.176   4.366   8.475
15800WAT     H247643   1.106   4.240   8.398
15801WAT      O47644   3.715   4.273   7.216
15801WAT     H147645   3.701   4.372   7.215
15801WAT     H247646   3.653   4.231   7.282
15802WAT      O47647   9.653   1.092   4.155
15802WAT     H147648   9.642   1.099   4.255
15802WAT     H247649   9.589   1.155   4.110
15803WAT      O47650   5.668   8.155   4.023
15803WAT     H147651   5.736   8.102   4.074
15803WAT     H247652   5.586   8.165   4.078
15804WAT      O47653   8.846   0.220   9.020
15804WAT     H147654   8.921   0.279   8.990
15804WAT     H247655   8.777   0.276   9.067
15805WAT      O47656   7.581   6.999   3.249
15805WAT     H147657   7.514   6.943   3.298
15805WAT     H247658   7.595   6.962   3.157
15806WAT      O47659   9.717   9.655   6.235
15806WAT     H147660   9.792   9.721   6.231
15806WAT     H247661   9.749   9.566   6.203
15807WAT      O47662   9.830   9.596   8.090
15807WAT     H147663   9.873   9.506   8.091
15807WAT     H247664   9.826   9.632   8.184
15808WAT      O47665   2.655   9.380   2.243
15808WAT     H147666   2.624   9.353   2.334
15808WAT     H247667   2.605   9.461   2.213
15809WAT      O47668   5.771   5.591   4.836
15809WAT     H147669   5.724   5.511   4.799
15809WAT     H247670   5.854   5.563   4.883
15810WAT      O47671   6.200   2.534   3.331
15810WAT     H147672   6.253   2.517   3.413
15810WAT     H247673   6.121   2.592   3.353
15811WAT      O47674   5.215   5.913   4.740
15811WAT     H147675   5.130   5.957   4.713
15811WAT     H247676   5.284   5.927   4.669
15812WAT      O47677   6.969   7.575   9.792
15812WAT     H147678   6.926   7.665   9.783
15812WAT     H247679   6.900   7.508   9.820
15813WAT      O47680   9.604   9.810   6.019
15813WAT     H147681   9.672   9.796   6.091
15813WAT     H247682   9.632   9.760   5.936
15814WAT      O47683   4.010   0.431   2.186
15814WAT     H147684   3.945   0.493   2.229
15814WAT     H247685   3.969   0.392   2.104
15815WAT      O47686   1.936   0.005   9.663
15815WAT     H147687   2.035   0.022   9.657
15815WAT     H247688   1.902  -0.023   9.573
15816WAT      O47689   8.977   3.268   7.812
15816WAT     H147690   8.954   3.359   7.847
15816WAT     H247691   8.900   3.207   7.824
15817WAT      O47692   8.186   5.607   5.211
15817WAT     H147693   8.168   5.704   5.195
15817WAT     H247694   8.153   5.554   5.132
15818WAT      O47695   8.192   1.335   4.277
15818WAT     H147696   8.102   1.307   4.309
15818WAT     H247697   8.261   1.270   4.308
15819WAT      O47698   0.334   0.196   6.259
15819WAT     H147699   0.322   0.230   6.166
15819WAT     H247700   0.303   0.265   6.324
15820WAT      O47701   8.755   8.162   1.534
15820WAT     H147702   8.808   8.154   1.618
15820WAT     H247703   8.708   8.251   1.533
15821WAT      O47704   8.383   3.385   7.390
15821WAT     H147705   8.463   3.435   7.425
15821WAT     H247706   8.316   3.450   7.354
15822WAT      O47707   4.423   8.570   1.556
15822WAT     H147708   4.475   8.498   1.510
15822WAT     H247709   4.405   8.543   1.650
15823WAT      O47710   4.837   0.938   0.619
15823WAT     H147711   4.842   0.850   0.666
15823WAT     H247712   4.851   1.012   0.685
15824WAT      O47713   9.570   4.707   5.790
15824WAT     H147714   9.476   4.740   5.795
15824WAT     H247715   9.570   4.612   5.757
15825WAT      O47716   1.702   4.202   9.630
15825WAT     H147717   1.771   4.159   9.689
15825WAT     H247718   1.658   4.132   9.574
15826WAT      O47719   2.329   8.308   7.707
15826WAT     H147720   2.382   8.361   7.774
15826WAT     H247721   2.346   8.345   7.616
15827WAT      O47722   0.604   1.745   2.840
15827WAT     H147723   0.621   1.735   2.742
15827WAT     H247724   0.691   1.749   2.889
15828WAT      O47725   0.092   7.258   5.615
15828WAT     H147726   0.103   7.169   5.660
15828WAT     H247727   0.119   7.331   5.677
15829WAT      O47728   7.992   4.897   8.205
15829WAT     H147729   8.041   4.982   8.186
15829WAT     H247730   8.052   4.819   8.187
15830WAT      O47731   4.827   3.132   6.549
15830WAT     H147732   4.879   3.073   6.486
15830WAT     H247733   4.891   3.190   6.599
15831WAT      O47734   8.370   7.154   1.724
15831WAT     H147735   8.344   7.063   1.757
15831WAT     H247736   8.433   7.144   1.647
15832WAT      O47737   1.155   6.875   2.664
15832WAT     H147738   1.103   6.813   2.606
15832WAT     H247739   1.166   6.835   2.755
15833WAT      O47740   0.042   0.960   4.300
15833WAT     H147741  -0.005   0.906   4.370
15833WAT     H247742  -0.024   0.988   4.230
15834WAT      O47743   0.053   8.184   0.551
15834WAT     H147744   0.131   8.127   0.527
15834WAT     H247745   0.010   8.220   0.468
15835WAT      O47746   8.868   9.290   7.499
15835WAT     H147747   8.818   9.226   7.442
15835WAT     H247748   8.937   9.337   7.444
15836WAT      O47749   0.483   7.774   2.722
15836WAT     H147750   0.560   7.821   2.677
15836WAT     H247751   0.483   7.796   2.819
15837WAT      O47752   9.531   1.075   2.850
15837WAT     H147753   9.484   0.987   2.857
15837WAT     H247754   9.550   1.110   2.942
15838WAT      O47755   6.739   3.586   3.485
15838WAT     H147756   6.645   3.620   3.492
15838WAT     H247757   6.760   3.566   3.389
15839WAT      O47758   5.007   2.647   9.503
15839WAT     H147759   5.045   2.682   9.589
15839WAT     H247760   5.058   2.686   9.426
15840WAT      O47761   3.564   4.289   3.464
15840WAT     H147762   3.527   4.196   3.459
15840WAT     H247763   3.492   4.355   3.444
15841WAT      O47764   3.982   4.508   4.288
15841WAT     H147765   4.039   4.517   4.370
15841WAT     H247766   3.906   4.573   4.293
15842WAT      O47767   9.218   4.808   9.341
15842WAT     H147768   9.182   4.836   9.430
15842WAT     H247769   9.280   4.879   9.306
15843WAT      O47770   3.735   9.080   5.833
15843WAT     H147771   3.652   9.134   5.848
15843WAT     H247772   3.753   9.073   5.735
15844WAT      O47773   2.386   0.909   1.214
15844WAT     H147774   2.389   0.965   1.132
15844WAT     H247775   2.340   0.959   1.288
15845WAT      O47776   4.781   3.717   2.705
15845WAT     H147777   4.866   3.765   2.731
15845WAT     H247778   4.713   3.730   2.777
15846WAT      O47779   5.959   2.380   9.863
15846WAT     H147780   5.964   2.335   9.952
15846WAT     H247781   5.913   2.320   9.797
15847WAT      O47782   3.554   4.224   6.728
15847WAT     H147783   3.457   4.218   6.750
15847WAT     H247784   3.608   4.219   6.813
15848WAT      O47785   0.879   5.829   3.029
15848WAT     H147786   0.963   5.815   3.082
15848WAT     H247787   0.812   5.877   3.086
15849WAT      O47788   6.553   5.810   4.683
15849WAT     H147789   6.558   5.800   4.584
15849WAT     H247790   6.474   5.759   4.718
15850WAT      O47791   1.258   1.413   5.740
15850WAT     H147792   1.233   1.424   5.644
15850WAT     H247793   1.230   1.322   5.771
15851WAT      O47794   5.970   7.430   1.034
15851WAT     H147795   5.888   7.454   0.984
15851WAT     H247796   5.994   7.335   1.015
15852WAT      O47797   4.506   9.204   4.405
15852WAT     H147798   4.540   9.286   4.450
15852WAT     H247799   4.535   9.123   4.456
15853WAT      O47800   8.298   3.071   5.862
15853WAT     H147801   8.282   2.992   5.920
15853WAT     H247802   8.228   3.140   5.878
15854WAT      O47803   2.299   0.090   1.806
15854WAT     H147804   2.338   0.134   1.887
15854WAT     H247805   2.367   0.091   1.732
15855WAT      O47806   2.654   4.275   1.061
15855WAT     H147807   2.579   4.337   1.080
15855WAT     H247808   2.654   4.201   1.129
15856WAT      O47809   0.861   0.654   9.097
15856WAT     H147810   0.821   0.593   9.029
15856WAT     H247811   0.862   0.608   9.186
15857WAT      O47812   4.590   6.585   0.789
15857WAT     H147813   4.498   6.556   0.764
15857WAT     H247814   4.652   6.507   0.787
15858WAT      O47815   5.439   1.938   0.740
15858WAT     H147816   5.510   1.985   0.793
15858WAT     H247817   5.480   1.900   0.656
15859WAT      O47818   1.971   8.895   6.269
15859WAT     H147819   2.004   8.808   6.230
15859WAT     H247820   1.955   8.960   6.195
15860WAT      O47821   6.766   5.124   6.610
15860WAT     H147822   6.673   5.088   6.610
15860WAT     H247823   6.831   5.048   6.605
15861WAT      O47824   7.111   1.676   6.948
15861WAT     H147825   7.072   1.718   6.866
15861WAT     H247826   7.053   1.696   7.027
15862WAT      O47827   5.486   8.361   7.209
15862WAT     H147828   5.583   8.348   7.231
15862WAT     H247829   5.446   8.426   7.273
15863WAT      O47830   7.654   6.725   4.996
15863WAT     H147831   7.710   6.652   4.956
15863WAT     H247832   7.692   6.814   4.972
15864WAT      O47833   8.845   4.077   8.853
15864WAT     H147834   8.837   4.023   8.769
15864WAT     H247835   8.918   4.039   8.910
15865WAT      O47836   2.290   2.676   8.220
15865WAT     H147837   2.376   2.632   8.195
15865WAT     H247838   2.298   2.715   8.312
15866WAT      O47839   0.729   6.702   6.105
15866WAT     H147840   0.711   6.772   6.036
15866WAT     H247841   0.780   6.742   6.181
15867WAT      O47842   1.164   7.761   8.594
15867WAT     H147843   1.237   7.785   8.530
15867WAT     H247844   1.125   7.845   8.632
15868WAT      O47845   2.474   2.988   3.960
15868WAT     H147846   2.552   2.947   4.006
15868WAT     H247847   2.390   2.967   4.011
15869WAT      O47848   4.202   3.880   3.919
15869WAT     H147849   4.211   3.887   3.819
15869WAT     H247850   4.277   3.825   3.955
15870WAT      O47851   8.170   3.162   9.187
15870WAT     H147852   8.233   3.085   9.193
15870WAT     H247853   8.119   3.156   9.101
15871WAT      O47854   9.314   5.400   9.572
15871WAT     H147855   9.392   5.368   9.627
15871WAT     H247856   9.349   5.450   9.493
15872WAT      O47857   5.246   2.686   7.938
15872WAT     H147858   5.334   2.683   7.984
15872WAT     H247859   5.260   2.706   7.841
15873WAT      O47860   2.248   9.757   5.056
15873WAT     H147861   2.225   9.667   5.092
15873WAT     H247862   2.284   9.747   4.963
15874WAT      O47863   1.504   2.531   7.502
15874WAT     H147864   1.456   2.617   7.481
15874WAT     H247865   1.437   2.461   7.528
15875WAT      O47866   6.807   8.609   2.045
15875WAT     H147867   6.745   8.569   2.112
15875WAT     H247868   6.778   8.702   2.023
15876WAT      O47869   4.581   1.248   8.337
15876WAT     H147870   4.614   1.333   8.296
15876WAT     H247871   4.584   1.175   8.268
15877WAT      O47872   3.211   2.710   8.347
15877WAT     H147873   3.188   2.732   8.253
15877WAT     H247874   3.310   2.700   8.356
15878WAT      O47875   8.814   3.869   2.793
15878WAT     H147876   8.747   3.802   2.823
15878WAT     H247877   8.906   3.831   2.802
15879WAT      O47878   4.661   8.125   7.933
15879WAT     H147879   4.615   8.097   8.017
15879WAT     H247880   4.698   8.218   7.945
15880WAT      O47881   5.815   4.510   1.295
15880WAT     H147882   5.812   4.517   1.395
15880WAT     H247883   5.906   4.536   1.263
15881WAT      O47884   0.147   8.870   8.757
15881WAT     H147885   0.157   8.926   8.839
15881WAT     H247886   0.185   8.919   8.678
15882WAT      O47887   4.405   1.171   2.475
15882WAT     H147888   4.351   1.182   2.391
15882WAT     H247889   4.391   1.080   2.512
15883WAT      O47890   9.422   5.074   0.263
15883WAT     H147891   9.489   5.147   0.274
15883WAT     H247892   9.468   4.992   0.228
15884WAT      O47893   6.843   9.297   4.630
15884WAT     H147894   6.865   9.393   4.653
15884WAT     H247895   6.767   9.266   4.688
15885WAT      O47896   4.881   8.232   4.535
15885WAT     H147897   4.874   8.155   4.599
15885WAT     H247898   4.895   8.196   4.442
15886WAT      O47899   9.498   2.277   3.769
15886WAT     H147900   9.578   2.338   3.772
15886WAT     H247901   9.514   2.199   3.829
15887WAT      O47902   8.763   2.199   5.456
15887WAT     H147903   8.788   2.210   5.359
15887WAT     H247904   8.700   2.122   5.465
15888WAT      O47905   9.473   2.224   0.239
15888WAT     H147906   9.524   2.141   0.220
15888WAT     H247907   9.412   2.209   0.317
15889WAT      O47908   9.092   3.931   7.234
15889WAT     H147909   9.113   3.867   7.307
15889WAT     H247910   9.007   3.979   7.256
15890WAT      O47911   1.057   0.313   6.264
15890WAT     H147912   1.139   0.356   6.303
15890WAT     H247913   1.029   0.237   6.323
15891WAT      O47914   6.825   3.358   7.097
15891WAT     H147915   6.881   3.376   7.017
15891WAT     H247916   6.799   3.445   7.140
15892WAT      O47917   3.096   9.780   4.355
15892WAT     H147918   3.031   9.828   4.296
15892WAT     H247919   3.083   9.681   4.346
15893WAT      O47920   7.460   1.013   3.631
15893WAT     H147921   7.550   1.043   3.598
15893WAT     H247922   7.422   0.947   3.567
15894WAT      O47923   2.614   1.217   5.216
15894WAT     H147924   2.665   1.184   5.136
15894WAT     H247925   2.552   1.290   5.188
15895WAT      O47926   8.445   6.313   3.620
15895WAT     H147927   8.346   6.314   3.602
15895WAT     H247928   8.466   6.238   3.683
15896WAT      O47929   9.271   2.642   2.648
15896WAT     H147930   9.361   2.671   2.681
15896WAT     H247931   9.258   2.674   2.555
15897WAT      O47932   1.309   0.377   0.419
15897WAT     H147933   1.298   0.336   0.329
15897WAT     H247934   1.319   0.476   0.409
15898WAT      O47935   7.969   6.589   8.937
15898WAT     H147936   7.941   6.622   9.027
15898WAT     H247937   8.019   6.661   8.888
15899WAT      O47938   1.833   9.386   0.037
15899WAT     H147939   1.803   9.473  -0.001
15899WAT     H247940   1.763   9.316   0.022
15900WAT      O47941   0.196   9.815   8.195
15900WAT     H147942   0.182   9.894   8.135
15900WAT     H247943   0.113   9.798   8.247
15901WAT      O47944   1.298   2.634   7.889
15901WAT     H147945   1.350   2.688   7.955
15901WAT     H247946   1.270   2.693   7.813
15902WAT      O47947   8.353   3.107   4.544
15902WAT     H147948   8.287   3.095   4.618
15902WAT     H247949   8.394   3.199   4.550
15903WAT      O47950   2.352   5.095   2.510
15903WAT     H147951   2.259   5.133   2.513
15903WAT     H247952   2.391   5.098   2.602
15904WAT      O47953   3.872   2.351   3.971
15904WAT     H147954   3.795   2.294   3.942
15904WAT     H247955   3.844   2.447   3.973
15905WAT      O47956   2.280   7.911   1.546
15905WAT     H147957   2.254   7.898   1.450
15905WAT     H247958   2.335   7.833   1.576
15906WAT      O47959   9.825   0.623   0.115
15906WAT     H147960   9.752   0.563   0.083
15906WAT     H247961   9.796   0.718   0.107
15907WAT      O47962   9.329   5.070   6.055
15907WAT     H147963   9.292   5.162   6.069
15907WAT     H247964   9.320   5.018   6.140
15908WAT      O47965   2.000   8.119   0.492
15908WAT     H147966   2.003   8.021   0.510
15908WAT     H247967   2.071   8.144   0.427
15909WAT      O47968   4.841   5.913   9.471
15909WAT     H147969   4.815   5.995   9.420
15909WAT     H247970   4.791   5.834   9.435
15910WAT      O47971   3.373   5.534   1.956
15910WAT     H147972   3.407   5.628   1.958
15910WAT     H247973   3.278   5.533   1.987
15911WAT      O47974   1.648   7.394   3.755
15911WAT     H147975   1.670   7.450   3.835
15911WAT     H247976   1.704   7.311   3.755
15912WAT      O47977   4.463   4.056   9.329
15912WAT     H147978   4.541   4.032   9.271
15912WAT     H247979   4.482   4.030   9.423
15913WAT      O47980   0.688   1.228   0.191
15913WAT     H147981   0.641   1.140   0.179
15913WAT     H247982   0.697   1.248   0.288
15914WAT      O47983   1.801   4.253   4.573
15914WAT     H147984   1.812   4.352   4.587
15914WAT     H247985   1.890   4.208   4.580
15915WAT      O47986   2.879   3.494   4.738
15915WAT     H147987   2.827   3.497   4.653
15915WAT     H247988   2.835   3.553   4.806
15916WAT      O47989   1.493   5.144   5.649
15916WAT     H147990   1.499   5.134   5.549
15916WAT     H247991   1.566   5.091   5.691
15917WAT      O47992   7.305   4.905   5.313
15917WAT     H147993   7.381   4.959   5.350
15917WAT     H247994   7.331   4.868   5.224
15918WAT      O47995   6.766   3.179   8.013
15918WAT     H147996   6.741   3.156   7.919
15918WAT     H247997   6.864   3.164   8.026
15919WAT      O47998   3.897   7.061   1.765
15919WAT     H147999   3.919   6.970   1.731
15919WAT     H248000   3.798   7.074   1.762
15920WAT      O48001   6.669   3.824   3.992
15920WAT     H148002   6.578   3.812   3.951
15920WAT     H248003   6.738   3.825   3.920
15921WAT      O48004   4.827   0.706   3.423
15921WAT     H148005   4.811   0.773   3.350
15921WAT     H248006   4.753   0.639   3.422
15922WAT      O48007   5.814   7.091   9.333
15922WAT     H148008   5.876   7.014   9.323
15922WAT     H248009   5.809   7.119   9.429
15923WAT      O48010   5.811   2.924   5.513
15923WAT     H148011   5.771   3.012   5.488
15923WAT     H248012   5.911   2.929   5.507
15924WAT      O48013   2.347   0.632   7.791
15924WAT     H148014   2.369   0.697   7.864
15924WAT     H248015   2.262   0.660   7.746
15925WAT      O48016   0.884   4.765   2.464
15925WAT     H148017   0.881   4.680   2.411
15925WAT     H248018   0.942   4.752   2.544
15926WAT      O48019   4.803   3.944   5.443
15926WAT     H148020   4.733   3.899   5.498
15926WAT     H248021   4.761   3.980   5.360
15927WAT      O48022   3.792   9.192   2.915
15927WAT     H148023   3.750   9.224   2.830
15927WAT     H248024   3.726   9.199   2.990
15928WAT      O48025   1.905   7.057   1.131
15928WAT     H148026   1.911   6.979   1.193
15928WAT     H248027   1.810   7.069   1.102
15929WAT      O48028   5.392   4.519   9.645
15929WAT     H148029   5.305   4.530   9.693
15929WAT     H248030   5.467   4.520   9.711
15930WAT      O48031   7.237   6.789   2.606
15930WAT     H148032   7.261   6.885   2.587
15930WAT     H248033   7.197   6.748   2.524
15931WAT      O48034   9.740   0.745   9.093
15931WAT     H148035   9.665   0.723   9.155
15931WAT     H248036   9.750   0.844   9.087
15932WAT      O48037   9.754   2.052   3.893
15932WAT     H148038   9.798   2.020   3.976
15932WAT     H248039   9.750   2.152   3.894
15933WAT      O48040   6.339   9.787   4.371
15933WAT     H148041   6.411   9.842   4.414
15933WAT     H248042   6.268   9.767   4.439
15934WAT      O48043   1.616   4.108   4.710
15934WAT     H148044   1.684   4.144   4.645
15934WAT     H248045   1.656   4.104   4.801
15935WAT      O48046   4.756   2.301   2.230
15935WAT     H148047   4.761   2.304   2.130
15935WAT     H248048   4.845   2.324   2.268
15936WAT      O48049   6.344   1.900   2.156
15936WAT     H148050   6.274   1.844   2.200
15936WAT     H248051   6.407   1.842   2.104
15937WAT      O48052   4.245   6.863   0.693
15937WAT     H148053   4.191   6.852   0.776
15937WAT     H248054   4.268   6.959   0.680
15938WAT      O48055   9.792   0.340   8.048
15938WAT     H148056   9.736   0.261   8.071
15938WAT     H248057   9.738   0.423   8.060
15939WAT      O48058   2.235   4.455   2.934
15939WAT     H148059   2.250   4.445   3.032
15939WAT     H248060   2.288   4.534   2.900
15940WAT      O48061   0.662   6.709   2.049
15940WAT     H148062   0.712   6.791   2.075
15940WAT     H248063   0.599   6.683   2.122
15941WAT      O48064   4.917   4.477   1.708
15941WAT     H148065   4.927   4.388   1.663
15941WAT     H248066   4.823   4.489   1.738
15942WAT      O48067   9.727   6.156   5.091
15942WAT     H148068   9.768   6.086   5.033
15942WAT     H248069   9.796   6.191   5.155
15943WAT      O48070   9.550   3.598   2.539
15943WAT     H148071   9.504   3.684   2.561
15943WAT     H248072   9.646   3.615   2.520
15944WAT      O48073   3.775   5.638   5.032
15944WAT     H148074   3.839   5.561   5.028
15944WAT     H248075   3.759   5.663   5.127
15945WAT      O48076   8.194   3.696   6.628
15945WAT     H148077   8.237   3.672   6.715
15945WAT     H248078   8.108   3.745   6.646
15946WAT      O48079   2.319   6.188   7.325
15946WAT     H148080   2.354   6.280   7.339
15946WAT     H248081   2.390   6.121   7.347
15947WAT      O48082   5.296   8.398   2.350
15947WAT     H148083   5.290   8.309   2.395
15947WAT     H248084   5.388   8.435   2.362
15948WAT      O48085   1.557   7.770   0.394
15948WAT     H148086   1.470   7.722   0.409
15948WAT     H248087   1.630   7.703   0.382
15949WAT      O48088   4.867   6.382   9.528
15949WAT     H148089   4.940   6.328   9.570
15949WAT     H248090   4.907   6.456   9.473
15950WAT      O48091   5.502   2.044   1.359
15950WAT     H148092   5.471   2.122   1.305
15950WAT     H248093   5.593   2.017   1.327
15951WAT      O48094   7.318   4.006   6.017
15951WAT     H148095   7.270   4.086   6.054
15951WAT     H248096   7.293   3.925   6.069
15952WAT      O48097   9.772   3.771   0.093
15952WAT     H148098   9.743   3.720   0.173
15952WAT     H248099   9.692   3.804   0.043
15953WAT      O48100   5.545   8.487   6.985
15953WAT     H148101   5.506   8.424   7.052
15953WAT     H248102   5.566   8.574   7.030
15954WAT      O48103   7.791   6.990   0.336
15954WAT     H148104   7.807   6.934   0.255
15954WAT     H248105   7.879   7.020   0.374
15955WAT      O48106   2.741   9.716   0.811
15955WAT     H148107   2.702   9.768   0.736
15955WAT     H248108   2.697   9.626   0.816
15956WAT      O48109   9.645   3.554   8.941
15956WAT     H148110   9.568   3.491   8.947
15956WAT     H248111   9.631   3.615   8.862
15957WAT      O48112   2.079   9.822   1.962
15957WAT     H148113   2.146   9.869   1.906
15957WAT     H248114   2.072   9.726   1.933
15958WAT      O48115   1.225   4.197   0.332
15958WAT     H148116   1.257   4.184   0.238
15958WAT     H248117   1.126   4.210   0.332
15959WAT      O48118   1.962   0.673   3.635
15959WAT     H148119   1.995   0.582   3.611
15959WAT     H248120   1.986   0.738   3.563
15960WAT      O48121   4.736   3.144   2.710
15960WAT     H148122   4.804   3.103   2.772
15960WAT     H248123   4.715   3.080   2.637
15961WAT      O48124   3.855   1.411   5.135
15961WAT     H148125   3.867   1.312   5.139
15961WAT     H248126   3.834   1.438   5.040
15962WAT      O48127   0.827   2.679   1.154
15962WAT     H148128   0.787   2.601   1.105
15962WAT     H248129   0.923   2.661   1.172
15963WAT      O48130   6.010   1.832   6.402
15963WAT     H148131   6.068   1.824   6.484
15963WAT     H248132   6.065   1.811   6.321
15964WAT      O48133   3.419   3.985   4.064
15964WAT     H148134   3.453   4.047   4.134
15964WAT     H248135   3.438   3.890   4.091
15965WAT      O48136   2.812   8.703   3.810
15965WAT     H148137   2.791   8.750   3.724
15965WAT     H248138   2.832   8.770   3.881
15966WAT      O48139   1.898   8.844   9.660
15966WAT     H148140   1.938   8.777   9.722
15966WAT     H248141   1.858   8.919   9.713
15967WAT      O48142   4.401   2.795   0.914
15967WAT     H148143   4.454   2.714   0.889
15967WAT     H248144   4.448   2.877   0.882
15968WAT      O48145   3.271   7.564   9.144
15968WAT     H148146   3.271   7.557   9.244
15968WAT     H248147   3.183   7.532   9.109
15969WAT      O48148   9.881   8.197   7.853
15969WAT     H148149   9.980   8.209   7.856
15969WAT     H248150   9.844   8.240   7.771
15970WAT      O48151   0.801   6.927   6.762
15970WAT     H148152   0.722   6.868   6.746
15970WAT     H248153   0.883   6.883   6.724
15971WAT      O48154   6.570   4.159   0.039
15971WAT     H148155   6.594   4.121  -0.050
15971WAT     H248156   6.638   4.132   0.107
15972WAT      O48157   2.871   7.683   1.966
15972WAT     H148158   2.837   7.777   1.960
15972WAT     H248159   2.907   7.654   1.878
15973WAT      O48160   0.484   6.809   8.777
15973WAT     H148161   0.540   6.792   8.696
15973WAT     H248162   0.520   6.888   8.826
15974WAT      O48163   0.300   5.200   0.408
15974WAT     H148164   0.320   5.163   0.499
15974WAT     H248165   0.214   5.161   0.374
15975WAT      O48166   7.336   0.642   0.681
15975WAT     H148167   7.305   0.736   0.696
15975WAT     H248168   7.418   0.642   0.624
15976WAT      O48169   3.701   5.484   4.023
15976WAT     H148170   3.725   5.535   3.941
15976WAT     H248171   3.784   5.448   4.066
15977WAT      O48172   7.259   9.669   6.829
15977WAT     H148173   7.194   9.597   6.851
15977WAT     H248174   7.316   9.641   6.752
15978WAT      O48175   8.753   8.350   5.707
15978WAT     H148176   8.732   8.359   5.609
15978WAT     H248177   8.693   8.282   5.748
15979WAT      O48178   4.602   1.573   5.627
15979WAT     H148179   4.527   1.635   5.604
15979WAT     H248180   4.572   1.512   5.701
15980WAT      O48181   4.386   2.638   2.866
15980WAT     H148182   4.377   2.726   2.822
15980WAT     H248183   4.447   2.579   2.813
15981WAT      O48184   7.862   2.709   7.334
15981WAT     H148185   7.923   2.635   7.365
15981WAT     H248186   7.915   2.776   7.283
15982WAT      O48187   8.863   5.272   3.798
15982WAT     H148188   8.928   5.305   3.729
15982WAT     H248189   8.898   5.292   3.889
15983WAT      O48190   4.743   9.617   8.951
15983WAT     H148191   4.762   9.715   8.959
15983WAT     H248192   4.787   9.581   8.869
15984WAT      O48193   5.080   3.321   0.087
15984WAT     H148194   5.173   3.285   0.086
15984WAT     H248195   5.081   3.419   0.070
15985WAT      O48196   4.632   5.924   6.606
15985WAT     H148197   4.654   5.830   6.581
15985WAT     H248198   4.585   5.969   6.531
15986WAT      O48199   9.153   0.007   3.625
15986WAT     H148200   9.230   0.010   3.562
15986WAT     H248201   9.069   0.028   3.576
15987WAT      O48202   4.331   1.259   9.667
15987WAT     H148203   4.405   1.315   9.705
15987WAT     H248204   4.368   1.171   9.637
15988WAT      O48205   6.312   8.444   7.670
15988WAT     H148206   6.270   8.390   7.597
15988WAT     H248207   6.286   8.407   7.759
15989WAT      O48208   3.328   1.858   5.573
15989WAT     H148209   3.249   1.821   5.524
15989WAT     H248210   3.296   1.921   5.645
15990WAT      O48211   5.734   9.004   9.393
15990WAT     H148212   5.830   8.986   9.370
15990WAT     H248213   5.677   8.929   9.358
15991WAT      O48214   6.711   3.933   4.975
15991WAT     H148215   6.774   3.858   4.996
15991WAT     H248216   6.660   3.957   5.058
15992WAT      O48217   2.413   5.467   2.469
15992WAT     H148218   2.320   5.451   2.436
15992WAT     H248219   2.416   5.454   2.568
15993WAT      O48220   4.217   7.493   9.026
15993WAT     H148221   4.303   7.451   9.054
15993WAT     H248222   4.226   7.529   8.933
15994WAT      O48223   2.771   6.981   5.769
15994WAT     H148224   2.865   7.002   5.797
15994WAT     H248225   2.748   7.034   5.688
15995WAT      O48226   6.046   2.187   3.814
15995WAT     H148227   6.009   2.094   3.814
15995WAT     H248228   5.982   2.248   3.768
15996WAT      O48229   0.476   7.559   9.518
15996WAT     H148230   0.500   7.626   9.448
15996WAT     H248231   0.538   7.569   9.596
15997WAT      O48232   3.960   9.260   5.919
15997WAT     H148233   4.040   9.215   5.881
15997WAT     H248234   3.880   9.241   5.863
15998WAT      O48235   3.967   7.841   1.879
15998WAT     H148236   3.986   7.750   1.916
15998WAT     H248237   3.972   7.838   1.779
15999WAT      O48238   9.695   6.634   7.029
15999WAT     H148239   9.622   6.662   6.968
15999WAT     H248240   9.737   6.549   6.996
16000WAT      O48241   6.145   7.107   9.862
16000WAT     H148242   6.237   7.066   9.863
16000WAT     H248243   6.084   7.050   9.806
16001WAT      O48244   2.972   6.816   7.455
16001WAT     H148245   2.880   6.783   7.473
16001WAT     H248246   3.038   6.745   7.480
16002WAT      O48247   1.195   1.814   2.651
16002WAT     H148248   1.127   1.878   2.615
16002WAT     H248249   1.261   1.864   2.707
16003WAT      O48250   3.410   7.212   5.048
16003WAT     H148251   3.423   7.117   5.076
16003WAT     H248252   3.479   7.269   5.093
16004WAT      O48253   1.218   0.121   1.247
16004WAT     H148254   1.261   0.048   1.302
16004WAT     H248255   1.126   0.138   1.280
16005WAT      O48256   8.820   0.485   8.626
16005WAT     H148257   8.813   0.386   8.639
16005WAT     H248258   8.755   0.531   8.687
16006WAT      O48259   1.022   3.557   8.029
16006WAT     H148260   1.074   3.487   8.077
16006WAT     H248261   0.970   3.515   7.955
16007WAT      O48262   1.704   0.158   2.136
16007WAT     H148263   1.604   0.158   2.135
16007WAT     H248264   1.736   0.137   2.228
16008WAT      O48265   3.684   3.249   5.253
16008WAT     H148266   3.709   3.265   5.158
16008WAT     H248267   3.595   3.290   5.272
16009WAT      O48268   7.246   3.883   0.605
16009WAT     H148269   7.183   3.960   0.612
16009WAT     H248270   7.277   3.857   0.697
16010WAT      O48271   8.941   7.885   1.192
16010WAT     H148272   8.935   7.911   1.288
16010WAT     H248273   8.916   7.964   1.135
16011WAT      O48274   0.126   3.921   3.693
16011WAT     H148275   0.198   3.955   3.752
16011WAT     H248276   0.160   3.843   3.640
16012WAT      O48277   2.351   8.357   7.450
16012WAT     H148278   2.409   8.292   7.401
16012WAT     H248279   2.258   8.353   7.412
16013WAT      O48280   1.090   0.902   9.306
16013WAT     H148281   1.123   0.828   9.249
16013WAT     H248282   1.010   0.872   9.358
16014WAT      O48283   8.527   5.655   8.701
16014WAT     H148284   8.523   5.736   8.759
16014WAT     H248285   8.473   5.582   8.741
16015WAT      O48286   2.559   2.745   1.342
16015WAT     H148287   2.555   2.844   1.331
16015WAT     H248288   2.628   2.722   1.411
16016WAT      O48289   7.444   8.971   6.816
16016WAT     H148290   7.535   8.931   6.822
16016WAT     H248291   7.452   9.069   6.798
16017WAT      O48292   4.686   2.772   4.705
16017WAT     H148293   4.631   2.719   4.769
16017WAT     H248294   4.636   2.782   4.619
16018WAT      O48295   1.623   1.066   8.438
16018WAT     H148296   1.529   1.032   8.435
16018WAT     H248297   1.655   1.085   8.346
16019WAT      O48298   0.394   8.916   1.035
16019WAT     H148299   0.488   8.893   1.009
16019WAT     H248300   0.337   8.919   0.953
16020WAT      O48301   1.543   6.284   7.904
16020WAT     H148302   1.487   6.256   7.982
16020WAT     H248303   1.619   6.341   7.936
16021WAT      O48304   7.486   0.464   6.105
16021WAT     H148305   7.472   0.531   6.031
16021WAT     H248306   7.469   0.509   6.193
16022WAT      O48307   3.792   4.717   8.784
16022WAT     H148308   3.701   4.744   8.815
16022WAT     H248309   3.861   4.765   8.838
16023WAT      O48310   5.039   9.756   3.711
16023WAT     H148311   5.106   9.701   3.763
16023WAT     H248312   4.998   9.699   3.640
16024WAT      O48313   0.853   4.565   7.203
16024WAT     H148314   0.891   4.490   7.257
16024WAT     H248315   0.805   4.628   7.263
16025WAT      O48316   0.050   6.595   1.629
16025WAT     H148317   0.039   6.637   1.539
16025WAT     H248318   0.145   6.601   1.658
16026WAT      O48319   6.112   4.620   6.201
16026WAT     H148320   6.134   4.632   6.104
16026WAT     H248321   6.019   4.651   6.218
16027WAT      O48322   5.098   3.854   3.502
16027WAT     H148323   5.038   3.844   3.422
16027WAT     H248324   5.069   3.934   3.555
16028WAT      O48325   3.646   7.609   2.005
16028WAT     H148326   3.552   7.630   1.979
16028WAT     H248327   3.702   7.598   1.923
16029WAT      O48328   0.595   1.472   8.995
16029WAT     H148329   0.534   1.413   8.942
16029WAT     H248330   0.675   1.495   8.940
16030WAT      O48331   5.478   4.142   7.720
16030WAT     H148332   5.416   4.200   7.667
16030WAT     H248333   5.424   4.072   7.768
16031WAT      O48334   3.082   1.177   0.390
16031WAT     H148335   3.097   1.230   0.473
16031WAT     H248336   3.028   1.231   0.325
16032WAT      O48337   3.780   5.812   2.724
16032WAT     H148338   3.800   5.815   2.626
16032WAT     H248339   3.781   5.905   2.760
16033WAT      O48340   6.391   5.783   2.221
16033WAT     H148341   6.312   5.764   2.280
16033WAT     H248342   6.473   5.743   2.261
16034WAT      O48343   8.411   0.969   3.808
16034WAT     H148344   8.315   0.963   3.836
16034WAT     H248345   8.436   1.066   3.798
16035WAT      O48346   4.303   8.400   4.872
16035WAT     H148347   4.268   8.494   4.869
16035WAT     H248348   4.273   8.351   4.790
16036WAT      O48349   3.597   2.077   3.425
16036WAT     H148350   3.558   2.169   3.420
16036WAT     H248351   3.661   2.071   3.502
16037WAT      O48352   1.430   2.748   3.498
16037WAT     H148353   1.485   2.822   3.460
16037WAT     H248354   1.370   2.710   3.427
16038WAT      O48355   5.085   9.105   9.116
16038WAT     H148356   5.056   9.044   9.190
16038WAT     H248357   5.022   9.098   9.040
16039WAT      O48358   7.818   5.111   0.118
16039WAT     H148359   7.865   5.036   0.073
16039WAT     H248360   7.881   5.188   0.130
16040WAT      O48361   7.496   0.270   4.112
16040WAT     H148362   7.590   0.276   4.081
16040WAT     H248363   7.434   0.288   4.035
16041WAT      O48364   9.669   2.884   6.631
16041WAT     H148365   9.582   2.873   6.583
16041WAT     H248366   9.724   2.953   6.583
16042WAT      O48367   0.998   4.292   7.770
16042WAT     H148368   0.989   4.201   7.727
16042WAT     H248369   0.998   4.362   7.699
16043WAT      O48370   7.591   3.181   0.575
16043WAT     H148371   7.672   3.123   0.568
16043WAT     H248372   7.531   3.145   0.646
16044WAT      O48373   8.502   3.366   1.164
16044WAT     H148374   8.567   3.346   1.238
16044WAT     H248375   8.467   3.459   1.174
16045WAT      O48376   6.750   0.720   4.293
16045WAT     H148377   6.671   0.701   4.233
16045WAT     H248378   6.724   0.707   4.388
16046WAT      O48379   3.805   4.831   2.193
16046WAT     H148380   3.719   4.790   2.224
16046WAT     H248381   3.791   4.928   2.175
16047WAT      O48382   1.402   7.698   5.259
16047WAT     H148383   1.469   7.755   5.211
16047WAT     H248384   1.449   7.634   5.320
16048WAT      O48385   6.722   1.605   1.273
16048WAT     H148386   6.814   1.567   1.281
16048WAT     H248387   6.700   1.620   1.176
16049WAT      O48388   8.883   1.058   8.497
16049WAT     H148389   8.853   1.086   8.406
16049WAT     H248390   8.804   1.025   8.549
16050WAT      O48391   3.640   1.442   1.287
16050WAT     H148392   3.650   1.536   1.320
16050WAT     H248393   3.639   1.379   1.366
16051WAT      O48394   4.398   7.217   1.646
16051WAT     H148395   4.421   7.313   1.629
16051WAT     H248396   4.464   7.157   1.601
16052WAT      O48397   4.188   6.132   8.066
16052WAT     H148398   4.137   6.047   8.072
16052WAT     H248399   4.155   6.186   7.988
16053WAT      O48400   6.907   5.181   1.159
16053WAT     H148401   6.871   5.132   1.081
16053WAT     H248402   6.867   5.145   1.243
16054WAT      O48403   7.806   3.468   2.491
16054WAT     H148404   7.897   3.504   2.473
16054WAT     H248405   7.813   3.389   2.552
16055WAT      O48406   7.389   2.551   6.600
16055WAT     H148407   7.396   2.499   6.515
16055WAT     H248408   7.454   2.627   6.599
16056WAT      O48409   2.703   5.849   2.679
16056WAT     H148410   2.740   5.931   2.722
16056WAT     H248411   2.632   5.810   2.737
16057WAT      O48412   6.907   6.533   5.021
16057WAT     H148413   6.923   6.450   5.075
16057WAT     H248414   6.993   6.582   5.010
16058WAT      O48415   8.428   5.278   4.931
16058WAT     H148416   8.466   5.272   5.023
16058WAT     H248417   8.330   5.257   4.933
16059WAT      O48418   6.769   6.908   0.320
16059WAT     H148419   6.845   6.877   0.377
16059WAT     H248420   6.683   6.875   0.360
16060WAT      O48421   1.941   4.626   6.073
16060WAT     H148422   1.915   4.590   6.163
16060WAT     H248423   1.944   4.726   6.077
16061WAT      O48424   1.827   7.064   1.995
16061WAT     H148425   1.776   7.019   1.922
16061WAT     H248426   1.778   7.054   2.081
16062WAT      O48427   1.992   5.907   8.752
16062WAT     H148428   2.052   5.983   8.779
16062WAT     H248429   1.899   5.941   8.739
16063WAT      O48430   8.653   2.637   8.996
16063WAT     H148431   8.613   2.728   8.982
16063WAT     H248432   8.680   2.599   8.908
16064WAT      O48433   4.571   0.181   7.140
16064WAT     H148434   4.533   0.233   7.063
16064WAT     H248435   4.657   0.138   7.111
16065WAT      O48436   5.866   4.351   2.996
16065WAT     H148437   5.862   4.362   2.897
16065WAT     H248438   5.773   4.340   3.032
16066WAT      O48439   0.508   1.450   1.654
16066WAT     H148440   0.519   1.357   1.687
16066WAT     H248441   0.440   1.452   1.581
16067WAT      O48442   5.782   0.396   3.156
16067WAT     H148443   5.777   0.298   3.175
16067WAT     H248444   5.717   0.419   3.083
16068WAT      O48445   0.252   7.737   6.494
16068WAT     H148446   0.233   7.806   6.424
16068WAT     H248447   0.231   7.646   6.457
16069WAT      O48448   7.604   0.607   3.592
16069WAT     H148449   7.697   0.602   3.629
16069WAT     H248450   7.599   0.553   3.508
16070WAT      O48451   4.527   8.114   0.618
16070WAT     H148452   4.448   8.175   0.608
16070WAT     H248453   4.517   8.060   0.702
16071WAT      O48454   0.295   2.789   1.651
16071WAT     H148455   0.234   2.756   1.722
16071WAT     H248456   0.345   2.712   1.611
16072WAT      O48457   7.327   4.227   0.369
16072WAT     H148458   7.384   4.154   0.406
16072WAT     H248459   7.295   4.201   0.278
16073WAT      O48460   7.699   3.330   7.927
16073WAT     H148461   7.643   3.405   7.962
16073WAT     H248462   7.645   3.246   7.927
16074WAT      O48463   6.276   5.873   0.218
16074WAT     H148464   6.180   5.874   0.192
16074WAT     H248465   6.332   5.869   0.135
16075WAT      O48466   2.137   6.134   8.757
16075WAT     H148467   2.232   6.142   8.727
16075WAT     H248468   2.087   6.216   8.732
16076WAT      O48469   5.620   1.464   4.791
16076WAT     H148470   5.564   1.536   4.831
16076WAT     H248471   5.610   1.380   4.844
16077WAT      O48472   8.071   0.518   9.471
16077WAT     H148473   8.075   0.608   9.515
16077WAT     H248474   7.989   0.470   9.504
16078WAT      O48475   4.962   0.914   2.258
16078WAT     H148476   4.876   0.963   2.276
16078WAT     H248477   4.974   0.904   2.159
16079WAT      O48478   3.994   7.774   8.649
16079WAT     H148479   3.987   7.874   8.646
16079WAT     H248480   3.922   7.734   8.593
16080WAT      O48481   3.439   2.480   0.087
16080WAT     H148482   3.354   2.486   0.036
16080WAT     H248483   3.484   2.569   0.089
16081WAT      O48484   0.651   5.662   5.814
16081WAT     H148485   0.606   5.651   5.725
16081WAT     H248486   0.716   5.738   5.809
16082WAT      O48487   9.766   5.852   7.752
16082WAT     H148488   9.790   5.782   7.819
16082WAT     H248489   9.830   5.928   7.759
16083WAT      O48490   6.831   9.465   9.534
16083WAT     H148491   6.775   9.426   9.461
16083WAT     H248492   6.915   9.503   9.494
16084WAT      O48493   4.849   2.900   4.481
16084WAT     H148494   4.776   2.956   4.441
16084WAT     H248495   4.810   2.840   4.551
16085WAT      O48496   7.085   2.075   5.663
16085WAT     H148497   7.048   2.167   5.652
16085WAT     H248498   7.038   2.029   5.738
16086WAT      O48499   5.023   4.481   7.540
16086WAT     H148500   5.107   4.446   7.499
16086WAT     H248501   4.958   4.405   7.551
16087WAT      O48502   3.920   4.670   8.388
16087WAT     H148503   3.952   4.765   8.390
16087WAT     H248504   3.842   4.663   8.326
16088WAT      O48505   5.418   9.323   7.941
16088WAT     H148506   5.338   9.373   7.908
16088WAT     H248507   5.500   9.358   7.896
16089WAT      O48508   2.639   0.813   2.267
16089WAT     H148509   2.565   0.783   2.206
16089WAT     H248510   2.624   0.909   2.292
16090WAT      O48511   4.687   6.242   8.429
16090WAT     H148512   4.772   6.275   8.470
16090WAT     H248513   4.706   6.164   8.370
16091WAT      O48514   2.439   5.288   8.031
16091WAT     H148515   2.534   5.261   8.050
16091WAT     H248516   2.377   5.215   8.060
16092WAT      O48517   5.336   3.226   0.596
16092WAT     H148518   5.275   3.244   0.673
16092WAT     H248519   5.351   3.310   0.544
16093WAT      O48520   1.673   8.027   8.329
16093WAT     H148521   1.677   7.966   8.250
16093WAT     H248522   1.754   8.086   8.329
16094WAT      O48523   7.362   3.922   7.710
16094WAT     H148524   7.432   3.870   7.661
16094WAT     H248525   7.333   4.000   7.655
16095WAT      O48526   2.459   1.345   8.404
16095WAT     H148527   2.470   1.263   8.348
16095WAT     H248528   2.401   1.325   8.483
16096WAT      O48529   4.494   8.716   6.987
16096WAT     H148530   4.585   8.728   6.948
16096WAT     H248531   4.501   8.659   7.069
16097WAT      O48532   6.825   7.936   2.619
16097WAT     H148533   6.736   7.891   2.611
16097WAT     H248534   6.831   7.983   2.707
16098WAT      O48535   9.519   0.216   5.968
16098WAT     H148536   9.552   0.129   6.003
16098WAT     H248537   9.595   0.281   5.965
16099WAT      O48538   2.233   6.063   0.099
16099WAT     H148539   2.246   5.993   0.170
16099WAT     H248540   2.145   6.109   0.113
16100WAT      O48541   2.296   5.369   8.776
16100WAT     H148542   2.282   5.399   8.682
16100WAT     H248543   2.270   5.273   8.785
16101WAT      O48544   6.703   2.073   7.445
16101WAT     H148545   6.662   1.996   7.494
16101WAT     H248546   6.631   2.127   7.402
16102WAT      O48547   7.608   3.135   5.541
16102WAT     H148548   7.669   3.164   5.614
16102WAT     H248549   7.618   3.197   5.463
16103WAT      O48550   2.055   7.760   2.936
16103WAT     H148551   1.981   7.728   2.876
16103WAT     H248552   2.120   7.814   2.882
16104WAT      O48553   0.300   4.417   0.699
16104WAT     H148554   0.202   4.405   0.715
16104WAT     H248555   0.351   4.345   0.747
16105WAT      O48556   8.258   7.828   6.315
16105WAT     H148557   8.318   7.807   6.238
16105WAT     H248558   8.305   7.889   6.379
16106WAT      O48559   4.534   7.322   7.085
16106WAT     H148560   4.473   7.264   7.141
16106WAT     H248561   4.623   7.277   7.076
16107WAT      O48562   4.048   7.345   9.415
16107WAT     H148563   4.122   7.408   9.437
16107WAT     H248564   4.031   7.347   9.316
16108WAT      O48565   0.309   5.719   1.853
16108WAT     H148566   0.376   5.646   1.847
16108WAT     H248567   0.219   5.685   1.826
16109WAT      O48568   1.365   6.600   5.123
16109WAT     H148569   1.464   6.608   5.131
16109WAT     H248570   1.326   6.691   5.108
16110WAT      O48571   2.688   2.706   5.121
16110WAT     H148572   2.702   2.778   5.188
16110WAT     H248573   2.718   2.737   5.031
16111WAT      O48574   8.223   1.415   7.140
16111WAT     H148575   8.135   1.383   7.105
16111WAT     H248576   8.209   1.498   7.194
16112WAT      O48577   2.120   9.511   7.386
16112WAT     H148578   2.069   9.597   7.395
16112WAT     H248579   2.058   9.434   7.400
16113WAT      O48580   9.219   9.733   2.848
16113WAT     H148581   9.160   9.787   2.909
16113WAT     H248582   9.265   9.662   2.900
16114WAT      O48583   4.697   1.998   7.607
16114WAT     H148584   4.730   2.090   7.628
16114WAT     H248585   4.609   1.984   7.651
16115WAT      O48586   3.379   8.571   4.057
16115WAT     H148587   3.430   8.604   3.977
16115WAT     H248588   3.358   8.648   4.117
16116WAT      O48589   0.013   4.753   6.078
16116WAT     H148590  -0.036   4.785   6.159
16116WAT     H248591   0.018   4.653   6.078
16117WAT      O48592   1.268   1.398   6.786
16117WAT     H148593   1.259   1.481   6.842
16117WAT     H248594   1.206   1.327   6.822
16118WAT      O48595   5.783   7.068   7.637
16118WAT     H148596   5.785   7.088   7.735
16118WAT     H248597   5.786   7.153   7.585
16119WAT      O48598   3.033   8.503   4.932
16119WAT     H148599   3.081   8.588   4.952
16119WAT     H248600   3.057   8.472   4.840
16120WAT      O48601   0.036   7.256   1.283
16120WAT     H148602   0.113   7.263   1.221
16120WAT     H248603   0.052   7.182   1.348
16121WAT      O48604   9.797   5.114   2.717
16121WAT     H148605   9.787   5.202   2.762
16121WAT     H248606   9.712   5.090   2.671
16122WAT      O48607   7.428   9.640   7.722
16122WAT     H148608   7.350   9.701   7.712
16122WAT     H248609   7.411   9.555   7.671
16123WAT      O48610   9.362   8.627   5.650
16123WAT     H148611   9.392   8.672   5.734
16123WAT     H248612   9.334   8.533   5.671
16124WAT      O48613   7.405   3.562   5.944
16124WAT     H148614   7.470   3.610   6.004
16124WAT     H248615   7.344   3.629   5.903
16125WAT      O48616   1.404   7.627   9.328
16125WAT     H148617   1.455   7.609   9.412
16125WAT     H248618   1.459   7.685   9.268
16126WAT      O48619   1.103   2.606   6.120
16126WAT     H148620   1.186   2.571   6.163
16126WAT     H248621   1.058   2.533   6.069
16127WAT      O48622   3.692   0.785   7.410
16127WAT     H148623   3.649   0.717   7.351
16127WAT     H248624   3.708   0.869   7.358
16128WAT      O48625   9.628   1.097   4.867
16128WAT     H148626   9.616   1.017   4.807
16128WAT     H248627   9.726   1.118   4.874
16129WAT      O48628   9.501   0.777   0.379
16129WAT     H148629   9.524   0.792   0.475
16129WAT     H248630   9.580   0.739   0.331
16130WAT      O48631   2.285   9.614   6.178
16130WAT     H148632   2.225   9.538   6.157
16130WAT     H248633   2.380   9.588   6.161
16131WAT      O48634   5.950   3.719   7.060
16131WAT     H148635   5.902   3.784   7.120
16131WAT     H248636   6.000   3.769   6.990
16132WAT      O48637   9.568   8.637   0.372
16132WAT     H148638   9.607   8.599   0.455
16132WAT     H248639   9.639   8.682   0.318
16133WAT      O48640   1.132   7.522   9.656
16133WAT     H148641   1.148   7.522   9.557
16133WAT     H248642   1.034   7.536   9.674
16134WAT      O48643   3.136   1.678   8.230
16134WAT     H148644   3.073   1.646   8.301
16134WAT     H248645   3.097   1.658   8.140
16135WAT      O48646   3.058   3.984   2.895
16135WAT     H148647   3.051   3.944   2.804
16135WAT     H248648   3.154   4.000   2.917
16136WAT      O48649   9.239   1.963   3.513
16136WAT     H148650   9.324   2.012   3.531
16136WAT     H248651   9.240   1.930   3.418
16137WAT      O48652   9.619   7.223   6.440
16137WAT     H148653   9.665   7.189   6.522
16137WAT     H248654   9.640   7.163   6.363
16138WAT      O48655   3.954   4.760   6.267
16138WAT     H148656   3.867   4.711   6.272
16138WAT     H248657   3.936   4.858   6.255
16139WAT      O48658   1.339   1.841   6.728
16139WAT     H148659   1.302   1.839   6.634
16139WAT     H248660   1.417   1.780   6.734
16140WAT      O48661   0.651   9.589   2.417
16140WAT     H148662   0.584   9.658   2.390
16140WAT     H248663   0.607   9.519   2.473
16141WAT      O48664   0.446   1.669   2.556
16141WAT     H148665   0.416   1.748   2.610
16141WAT     H248666   0.397   1.587   2.587
16142WAT      O48667   0.510   3.284   4.968
16142WAT     H148668   0.448   3.225   4.916
16142WAT     H248669   0.590   3.305   4.913
16143WAT      O48670   9.666   0.896   5.536
16143WAT     H148671   9.597   0.936   5.475
16143WAT     H248672   9.657   0.934   5.628
16144WAT      O48673   0.955   3.753   3.963
16144WAT     H148674   0.952   3.759   4.063
16144WAT     H248675   0.903   3.828   3.923
16145WAT      O48676   7.042   0.147   4.440
16145WAT     H148677   7.074   0.236   4.408
16145WAT     H248678   7.004   0.156   4.532
16146WAT      O48679   6.274   3.137   7.668
16146WAT     H148680   6.322   3.057   7.706
16146WAT     H248681   6.186   3.108   7.631
16147WAT      O48682   7.698   7.260   6.675
16147WAT     H148683   7.791   7.253   6.640
16147WAT     H248684   7.669   7.171   6.712
16148WAT      O48685   5.161   7.951   9.287
16148WAT     H148686   5.139   8.041   9.249
16148WAT     H248687   5.260   7.940   9.292
16149WAT      O48688   6.188   3.672   1.651
16149WAT     H148689   6.232   3.687   1.563
16149WAT     H248690   6.257   3.645   1.719
16150WAT      O48691   5.758   6.454   7.905
16150WAT     H148692   5.711   6.475   7.819
16150WAT     H248693   5.856   6.474   7.894
16151WAT      O48694   7.130   5.050   2.938
16151WAT     H148695   7.160   5.083   2.848
16151WAT     H248696   7.204   5.065   3.004
16152WAT      O48697   7.527   7.436   4.627
16152WAT     H148698   7.528   7.403   4.721
16152WAT     H248699   7.621   7.453   4.597
16153WAT      O48700   0.790   6.774   8.900
16153WAT     H148701   0.802   6.833   8.979
16153WAT     H248702   0.802   6.678   8.928
16154WAT      O48703   6.819   6.634   9.174
16154WAT     H148704   6.809   6.643   9.273
16154WAT     H248705   6.769   6.708   9.129
16155WAT      O48706   4.921   0.018   0.266
16155WAT     H148707   4.972  -0.024   0.341
16155WAT     H248708   4.950   0.113   0.254
16156WAT      O48709   5.336   0.294   5.079
16156WAT     H148710   5.341   0.274   5.177
16156WAT     H248711   5.420   0.340   5.050
16157WAT      O48712   4.093   9.548   0.168
16157WAT     H148713   4.095   9.499   0.081
16157WAT     H248714   4.001   9.583   0.185
16158WAT      O48715   1.053   4.134   1.601
16158WAT     H148716   1.070   4.112   1.505
16158WAT     H248717   1.119   4.202   1.632
16159WAT      O48718   3.830   0.411   7.480
16159WAT     H148719   3.912   0.430   7.425
16159WAT     H248720   3.820   0.482   7.550
16160WAT      O48721   8.446   1.323   5.666
16160WAT     H148722   8.474   1.240   5.714
16160WAT     H248723   8.348   1.339   5.682
16161WAT      O48724   8.829   3.117   0.891
16161WAT     H148725   8.736   3.154   0.896
16161WAT     H248726   8.830   3.040   0.828
16162WAT      O48727   1.635   2.814   4.466
16162WAT     H148728   1.604   2.729   4.508
16162WAT     H248729   1.563   2.883   4.472
16163WAT      O48730   4.786   0.703   5.034
16163WAT     H148731   4.816   0.776   5.096
16163WAT     H248732   4.756   0.624   5.087
16164WAT      O48733   7.356   7.099   6.524
16164WAT     H148734   7.276   7.078   6.468
16164WAT     H248735   7.418   7.021   6.525
16165WAT      O48736   3.050   1.230   4.505
16165WAT     H148737   3.111   1.247   4.583
16165WAT     H248738   3.048   1.132   4.485
16166WAT      O48739   4.773   9.778   4.971
16166WAT     H148740   4.676   9.764   4.953
16166WAT     H248741   4.795   9.875   4.958
16167WAT      O48742   8.117   1.516   1.377
16167WAT     H148743   8.064   1.450   1.430
16167WAT     H248744   8.071   1.605   1.379
16168WAT      O48745   6.069   9.048   9.022
16168WAT     H148746   6.136   8.996   8.970
16168WAT     H248747   6.081   9.146   9.005
16169WAT      O48748   1.551   2.684   1.223
16169WAT     H148749   1.548   2.734   1.137
16169WAT     H248750   1.481   2.613   1.222
16170WAT      O48751   5.004   6.401   6.614
16170WAT     H148752   4.992   6.464   6.690
16170WAT     H248753   5.101   6.384   6.599
16171WAT      O48754   0.182   5.801   1.504
16171WAT     H148755   0.206   5.896   1.525
16171WAT     H248756   0.130   5.798   1.418
16172WAT      O48757   8.668   5.624   0.992
16172WAT     H148758   8.664   5.593   0.897
16172WAT     H248759   8.581   5.606   1.037
16173WAT      O48760   0.603   0.470   2.609
16173WAT     H148761   0.516   0.521   2.610
16173WAT     H248762   0.674   0.526   2.650
16174WAT      O48763   0.673   6.896   9.810
16174WAT     H148764   0.664   6.801   9.781
16174WAT     H248765   0.596   6.949   9.773
16175WAT      O48766   6.622   0.189   4.012
16175WAT     H148767   6.663   0.163   4.099
16175WAT     H248768   6.669   0.142   3.938
16176WAT      O48769   5.231   0.311   7.052
16176WAT     H148770   5.258   0.292   6.958
16176WAT     H248771   5.266   0.401   7.079
16177WAT      O48772   9.692   2.869   0.819
16177WAT     H148773   9.653   2.928   0.748
16177WAT     H248774   9.726   2.924   0.894
16178WAT      O48775   0.114   7.377   3.694
16178WAT     H148776   0.045   7.440   3.658
16178WAT     H248777   0.087   7.283   3.673
16179WAT      O48778   2.029   1.720   7.908
16179WAT     H148779   1.991   1.632   7.936
16179WAT     H248780   1.956   1.777   7.870
16180WAT      O48781   7.427   8.320   9.162
16180WAT     H148782   7.393   8.401   9.115
16180WAT     H248783   7.443   8.247   9.095
16181WAT      O48784   3.081   1.046   5.897
16181WAT     H148785   3.166   1.008   5.861
16181WAT     H248786   3.006   1.026   5.834
16182WAT      O48787   0.778   4.684   9.849
16182WAT     H148788   0.701   4.673   9.786
16182WAT     H248789   0.803   4.594   9.887
16183WAT      O48790   4.929   3.343   7.541
16183WAT     H148791   4.970   3.434   7.550
16183WAT     H248792   4.996   3.279   7.504
16184WAT      O48793   6.130   2.800   7.362
16184WAT     H148794   6.031   2.798   7.357
16184WAT     H248795   6.167   2.718   7.317
16185WAT      O48796   2.327   0.157   4.471
16185WAT     H148797   2.366   0.234   4.421
16185WAT     H248798   2.228   0.166   4.475
16186WAT      O48799   9.883   0.308   1.857
16186WAT     H148800   9.821   0.380   1.890
16186WAT     H248801   9.847   0.272   1.770
16187WAT      O48802   0.883   0.346   1.365
16187WAT     H148803   0.909   0.258   1.405
16187WAT     H248804   0.963   0.387   1.321
16188WAT      O48805   3.872   1.078   3.268
16188WAT     H148806   3.937   1.141   3.225
16188WAT     H248807   3.876   0.989   3.223
16189WAT      O48808   9.798   2.080   7.722
16189WAT     H148809   9.856   2.000   7.704
16189WAT     H248810   9.705   2.061   7.690
16190WAT      O48811   3.493   9.812   7.891
16190WAT     H148812   3.570   9.862   7.932
16190WAT     H248813   3.515   9.715   7.888
16191WAT      O48814   2.308   4.492   0.866
16191WAT     H148815   2.389   4.522   0.817
16191WAT     H248816   2.289   4.396   0.844
16192WAT      O48817   4.990   4.945   0.674
16192WAT     H148818   5.045   4.865   0.699
16192WAT     H248819   4.893   4.922   0.684
16193WAT      O48820   2.129   6.399   6.965
16193WAT     H148821   2.130   6.497   6.984
16193WAT     H248822   2.200   6.378   6.896
16194WAT      O48823   2.399   2.355   2.374
16194WAT     H148824   2.438   2.413   2.303
16194WAT     H248825   2.419   2.395   2.464
16195WAT      O48826   8.870   8.685   8.697
16195WAT     H148827   8.866   8.630   8.780
16195WAT     H248828   8.827   8.635   8.622
16196WAT      O48829   0.332   4.670   9.633
16196WAT     H148830   0.238   4.653   9.605
16196WAT     H248831   0.341   4.764   9.667
16197WAT      O48832   5.370   0.225   2.934
16197WAT     H148833   5.315   0.192   3.010
16197WAT     H248834   5.367   0.325   2.931
16198WAT      O48835   7.122   5.647   4.641
16198WAT     H148836   7.101   5.740   4.673
16198WAT     H248837   7.219   5.628   4.657
16199WAT      O48838   4.878   8.682   5.059
16199WAT     H148839   4.969   8.722   5.042
16199WAT     H248840   4.818   8.701   4.981
16200WAT      O48841   4.052   2.252   9.746
16200WAT     H148842   4.023   2.226   9.838
16200WAT     H248843   4.030   2.348   9.730
16201WAT      O48844   6.126   7.589   7.342
16201WAT     H148845   6.130   7.612   7.245
16201WAT     H248846   6.054   7.642   7.386
16202WAT      O48847   7.962   4.237   3.021
16202WAT     H148848   8.043   4.296   3.025
16202WAT     H248849   7.922   4.228   3.112
16203WAT      O48850   9.764   2.975   7.059
16203WAT     H148851   9.847   3.006   7.013
16203WAT     H248852   9.712   2.915   6.997
16204WAT      O48853   6.027   0.024   6.319
16204WAT     H148854   5.950  -0.033   6.345
16204WAT     H248855   6.103   0.009   6.382
16205WAT      O48856   1.590   1.381   8.435
16205WAT     H148857   1.603   1.287   8.466
16205WAT     H248858   1.493   1.406   8.443
16206WAT      O48859   8.736   5.124   5.238
16206WAT     H148860   8.779   5.046   5.194
16206WAT     H248861   8.806   5.182   5.280
16207WAT      O48862   1.399   5.463   7.671
16207WAT     H148863   1.324   5.473   7.606
16207WAT     H248864   1.451   5.380   7.649
16208WAT      O48865   9.727   1.539   3.477
16208WAT     H148866   9.708   1.473   3.404
16208WAT     H248867   9.664   1.523   3.553
16209WAT      O48868   5.920   2.720   4.919
16209WAT     H148869   5.947   2.763   4.833
16209WAT     H248870   5.837   2.764   4.954
16210WAT      O48871   8.712   4.848   4.449
16210WAT     H148872   8.698   4.777   4.380
16210WAT     H248873   8.801   4.834   4.493
16211WAT      O48874   2.655   9.388   7.913
16211WAT     H148875   2.711   9.408   7.994
16211WAT     H248876   2.559   9.407   7.934
16212WAT      O48877   1.009   4.651   2.678
16212WAT     H148878   0.963   4.655   2.766
16212WAT     H248879   1.026   4.556   2.653
16213WAT      O48880   5.286   9.661   8.215
16213WAT     H148881   5.289   9.571   8.258
16213WAT     H248882   5.219   9.660   8.140
16214WAT      O48883   6.787   5.085   8.682
16214WAT     H148884   6.744   5.050   8.765
16214WAT     H248885   6.718   5.094   8.610
16215WAT      O48886   9.458   6.644   5.332
16215WAT     H148887   9.435   6.608   5.422
16215WAT     H248888   9.428   6.739   5.325
16216WAT      O48889   4.282   9.106   9.273
16216WAT     H148890   4.216   9.036   9.246
16216WAT     H248891   4.305   9.163   9.194
16217WAT      O48892   8.375   2.099   6.688
16217WAT     H148893   8.283   2.090   6.650
16217WAT     H248894   8.442   2.061   6.624
16218WAT      O48895   2.408   0.695   4.570
16218WAT     H148896   2.388   0.619   4.631
16218WAT     H248897   2.368   0.677   4.480
16219WAT      O48898   8.152   3.606   1.202
16219WAT     H148899   8.172   3.518   1.245
16219WAT     H248900   8.165   3.598   1.104
16220WAT      O48901   8.464   0.933   2.101
16220WAT     H148902   8.392   0.945   2.169
16220WAT     H248903   8.512   1.019   2.087
16221WAT      O48904   8.657   5.721   3.166
16221WAT     H148905   8.687   5.788   3.098
16221WAT     H248906   8.643   5.766   3.254
16222WAT      O48907   7.059   8.221   3.583
16222WAT     H148908   7.017   8.266   3.663
16222WAT     H248909   7.013   8.252   3.500
16223WAT      O48910   6.930   9.507   9.144
16223WAT     H148911   6.940   9.598   9.184
16223WAT     H248912   6.986   9.501   9.061
16224WAT      O48913   9.301   1.439   3.559
16224WAT     H148914   9.234   1.493   3.611
16224WAT     H248915   9.301   1.345   3.592
16225WAT      O48916   8.433   3.401   3.309
16225WAT     H148917   8.435   3.501   3.318
16225WAT     H248918   8.524   3.365   3.325
16226WAT      O48919   6.531   6.758   1.826
16226WAT     H148920   6.439   6.785   1.854
16226WAT     H248921   6.539   6.763   1.727
16227WAT      O48922   2.512   0.397   9.159
16227WAT     H148923   2.479   0.303   9.148
16227WAT     H248924   2.449   0.448   9.217
16228WAT      O48925   0.266   1.771   8.936
16228WAT     H148926   0.282   1.854   8.988
16228WAT     H248927   0.228   1.700   8.996
16229WAT      O48928   2.532   4.721   2.030
16229WAT     H148929   2.563   4.816   2.031
16229WAT     H248930   2.456   4.711   1.966
16230WAT      O48931   5.087   6.265   0.213
16230WAT     H148932   5.163   6.315   0.253
16230WAT     H248933   5.096   6.167   0.235
16231WAT      O48934   1.637   4.984   3.248
16231WAT     H148935   1.705   5.043   3.204
16231WAT     H248936   1.678   4.939   3.327
16232WAT      O48937   0.876   8.516   2.380
16232WAT     H148938   0.785   8.545   2.351
16232WAT     H248939   0.893   8.545   2.474
16233WAT      O48940   8.278   0.877   4.189
16233WAT     H148941   8.370   0.839   4.184
16233WAT     H248942   8.260   0.931   4.106
16234WAT      O48943   5.207   0.670   2.045
16234WAT     H148944   5.134   0.736   2.030
16234WAT     H248945   5.254   0.652   1.958
16235WAT      O48946   3.714   8.202   7.876
16235WAT     H148947   3.704   8.290   7.829
16235WAT     H248948   3.673   8.130   7.820
16236WAT      O48949   3.118   2.276   2.691
16236WAT     H148950   3.089   2.183   2.715
16236WAT     H248951   3.164   2.275   2.602
16237WAT      O48952   1.696   5.040   0.514
16237WAT     H148953   1.625   5.023   0.445
16237WAT     H248954   1.653   5.062   0.601
16238WAT      O48955   5.565   0.109   9.668
16238WAT     H148956   5.640   0.174   9.668
16238WAT     H248957   5.535   0.092   9.574
16239WAT      O48958   0.725   9.321   2.103
16239WAT     H148959   0.761   9.271   2.181
16239WAT     H248960   0.752   9.417   2.110
16240WAT      O48961   1.836   2.605   1.927
16240WAT     H148962   1.826   2.610   1.828
16240WAT     H248963   1.756   2.648   1.971
16241WAT      O48964   9.547   1.821   2.248
16241WAT     H148965   9.525   1.904   2.299
16241WAT     H248966   9.510   1.828   2.155
16242WAT      O48967   5.664   1.748   7.432
16242WAT     H148968   5.648   1.652   7.454
16242WAT     H248969   5.588   1.782   7.376
16243WAT      O48970   6.015   6.585   1.301
16243WAT     H148971   5.996   6.508   1.361
16243WAT     H248972   5.998   6.558   1.206
16244WAT      O48973   7.821   5.425   9.688
16244WAT     H148974   7.815   5.523   9.671
16244WAT     H248975   7.916   5.394   9.675
16245WAT      O48976   2.950   4.284   5.488
16245WAT     H148977   2.981   4.352   5.422
16245WAT     H248978   3.012   4.284   5.567
16246WAT      O48979   0.436   2.111   7.430
16246WAT     H148980   0.401   2.162   7.351
16246WAT     H248981   0.536   2.113   7.429
16247WAT      O48982   4.797   5.022   3.051
16247WAT     H148983   4.881   4.971   3.030
16247WAT     H248984   4.718   4.969   3.022
16248WAT      O48985   3.025   1.376   9.263
16248WAT     H148986   3.103   1.356   9.205
16248WAT     H248987   3.055   1.425   9.345
16249WAT      O48988   2.900   7.661   4.764
16249WAT     H148989   2.973   7.729   4.751
16249WAT     H248990   2.834   7.696   4.831
16250WAT      O48991   2.383   8.040   5.459
16250WAT     H148992   2.381   7.947   5.494
16250WAT     H248993   2.321   8.048   5.381
16251WAT      O48994   8.450   3.907   1.092
16251WAT     H148995   8.433   3.892   0.995
16251WAT     H248996   8.488   3.999   1.106
16252WAT      O48997   6.454   1.897   5.356
16252WAT     H148998   6.377   1.876   5.296
16252WAT     H248999   6.534   1.922   5.301
16253WAT      O49000   6.546   7.930   7.264
16253WAT     H149001   6.549   7.899   7.359
16253WAT     H249002   6.577   8.024   7.258
16254WAT      O49003   7.316   7.053   7.312
16254WAT     H149004   7.395   6.994   7.297
16254WAT     H249005   7.346   7.139   7.354
16255WAT      O49006   5.885   9.497   4.856
16255WAT     H149007   5.918   9.435   4.784
16255WAT     H249008   5.934   9.477   4.941
16256WAT      O49009   3.576   6.896   7.124
16256WAT     H149010   3.595   6.954   7.045
16256WAT     H249011   3.482   6.863   7.119
16257WAT      O49012   8.824   7.249   8.016
16257WAT     H149013   8.918   7.281   8.004
16257WAT     H249014   8.823   7.167   8.074
16258WAT      O49015   4.212   5.440   7.787
16258WAT     H149016   4.293   5.449   7.846
16258WAT     H249017   4.191   5.529   7.747
16259WAT      O49018   6.902   4.870   2.952
16259WAT     H149019   6.978   4.933   2.937
16259WAT     H249020   6.872   4.833   2.864
16260WAT      O49021   6.056   3.802   5.943
16260WAT     H149022   6.018   3.878   5.995
16260WAT     H249023   6.110   3.837   5.867
16261WAT      O49024   8.574   3.371   9.153
16261WAT     H149025   8.602   3.295   9.212
16261WAT     H249026   8.652   3.405   9.101
16262WAT      O49027   3.301   7.815   2.418
16262WAT     H149028   3.377   7.757   2.391
16262WAT     H249029   3.222   7.758   2.440
16263WAT      O49030   1.621   4.535   3.760
16263WAT     H149031   1.584   4.576   3.676
16263WAT     H249032   1.578   4.578   3.839
16264WAT      O49033   3.544   6.774   9.713
16264WAT     H149034   3.469   6.834   9.686
16264WAT     H249035   3.514   6.714   9.787
16265WAT      O49036   0.087   8.963   1.860
16265WAT     H149037   0.151   9.028   1.819
16265WAT     H249038  -0.004   8.979   1.823
16266WAT      O49039   8.726   1.942   7.921
16266WAT     H149040   8.718   2.041   7.932
16266WAT     H249041   8.744   1.900   8.010
16267WAT      O49042   1.153   5.439   1.946
16267WAT     H149043   1.131   5.484   2.032
16267WAT     H249044   1.122   5.496   1.869
16268WAT      O49045   8.939   1.379   6.184
16268WAT     H149046   8.952   1.297   6.240
16268WAT     H249047   8.866   1.362   6.117
16269WAT      O49048   0.758   0.872   1.438
16269WAT     H149049   0.677   0.928   1.421
16269WAT     H249050   0.802   0.850   1.351
16270WAT      O49051   7.473   0.277   5.011
16270WAT     H149052   7.492   0.321   5.099
16270WAT     H249053   7.555   0.276   4.955
16271WAT      O49054   1.663   9.110   2.842
16271WAT     H149055   1.730   9.040   2.868
16271WAT     H249056   1.587   9.110   2.907
16272WAT      O49057   8.617   2.612   1.806
16272WAT     H149058   8.703   2.595   1.759
16272WAT     H249059   8.585   2.704   1.784
16273WAT      O49060   8.727   0.657   9.492
16273WAT     H149061   8.801   0.590   9.496
16273WAT     H249062   8.704   0.676   9.396
16274WAT      O49063   2.827   4.899   1.121
16274WAT     H149064   2.753   4.861   1.066
16274WAT     H249065   2.880   4.963   1.066
16275WAT      O49066   2.381   6.182   2.568
16275WAT     H149067   2.281   6.176   2.572
16275WAT     H249068   2.408   6.272   2.537
16276WAT      O49069   5.174   1.695   5.492
16276WAT     H149070   5.170   1.791   5.519
16276WAT     H249071   5.249   1.682   5.427
16277WAT      O49072   6.422   4.618   7.331
16277WAT     H149073   6.351   4.548   7.327
16277WAT     H249074   6.511   4.574   7.339
16278WAT      O49075   9.491   5.703   8.078
16278WAT     H149076   9.459   5.770   8.012
16278WAT     H249077   9.511   5.617   8.032
16279WAT      O49078   5.346   6.728   8.847
16279WAT     H149079   5.322   6.807   8.904
16279WAT     H249080   5.401   6.664   8.900
16280WAT      O49081   2.302   6.799   6.954
16280WAT     H149082   2.282   6.756   6.866
16280WAT     H249083   2.225   6.858   6.980
16281WAT      O49084   4.274   3.983   0.841
16281WAT     H149085   4.237   3.976   0.749
16281WAT     H249086   4.265   4.077   0.874
16282WAT      O49087   8.825   5.675   2.739
16282WAT     H149088   8.735   5.635   2.749
16282WAT     H249089   8.885   5.644   2.813
16283WAT      O49090   8.891   9.649   5.352
16283WAT     H149091   8.986   9.647   5.382
16283WAT     H249092   8.840   9.577   5.399
16284WAT      O49093   7.784   0.315   4.301
16284WAT     H149094   7.783   0.240   4.368
16284WAT     H249095   7.806   0.278   4.211
16285WAT      O49096   3.883   2.728   6.184
16285WAT     H149097   3.842   2.795   6.123
16285WAT     H249098   3.816   2.656   6.204
16286WAT      O49099   3.272   8.451   5.273
16286WAT     H149100   3.357   8.445   5.326
16286WAT     H249101   3.290   8.423   5.179
16287WAT      O49102   1.358   0.219   8.351
16287WAT     H149103   1.318   0.310   8.349
16287WAT     H249104   1.291   0.154   8.387
16288WAT      O49105   2.402   0.624   3.775
16288WAT     H149106   2.499   0.612   3.752
16288WAT     H249107   2.367   0.539   3.815
16289WAT      O49108   1.024   9.261   7.910
16289WAT     H149109   1.044   9.165   7.890
16289WAT     H249110   1.024   9.275   8.009
16290WAT      O49111   6.269   6.487   8.297
16290WAT     H149112   6.236   6.577   8.269
16290WAT     H249113   6.203   6.417   8.269
16291WAT      O49114   8.912   7.100   9.127
16291WAT     H149115   8.908   7.116   9.028
16291WAT     H249116   8.892   7.185   9.175
16292WAT      O49117   0.967   5.538   6.987
16292WAT     H149118   0.923   5.520   6.899
16292WAT     H249119   0.896   5.558   7.056
16293WAT      O49120   7.224   9.812   4.551
16293WAT     H149121   7.308   9.860   4.527
16293WAT     H249122   7.148   9.849   4.497
16294WAT      O49123   2.189   0.102   9.359
16294WAT     H149124   2.223   0.183   9.311
16294WAT     H249125   2.262   0.062   9.414
16295WAT      O49126   4.688   1.737   2.150
16295WAT     H149127   4.689   1.730   2.250
16295WAT     H249128   4.773   1.700   2.113
16296WAT      O49129   0.114   5.502   3.260
16296WAT     H149130   0.199   5.540   3.297
16296WAT     H249131   0.045   5.573   3.255
16297WAT      O49132   7.334   1.867   6.900
16297WAT     H149133   7.309   1.952   6.946
16297WAT     H249134   7.264   1.797   6.917
16298WAT      O49135   5.822   9.838   1.226
16298WAT     H149136   5.843   9.841   1.324
16298WAT     H249137   5.905   9.856   1.173
16299WAT      O49138   9.842   4.353   7.893
16299WAT     H149139   9.935   4.366   7.928
16299WAT     H249140   9.820   4.426   7.828
16300WAT      O49141   0.793   1.515   3.970
16300WAT     H149142   0.755   1.607   3.961
16300WAT     H249143   0.792   1.487   4.066
16301WAT      O49144   9.312   4.266   1.945
16301WAT     H149145   9.347   4.200   2.011
16301WAT     H249146   9.316   4.358   1.984
16302WAT      O49147   9.788   4.242   0.156
16302WAT     H149148   9.828   4.333   0.159
16302WAT     H249149   9.812   4.198   0.069
16303WAT      O49150   0.216   2.340   8.877
16303WAT     H149151   0.217   2.386   8.788
16303WAT     H249152   0.185   2.246   8.866
16304WAT      O49153   5.006   1.214   5.952
16304WAT     H149154   5.048   1.254   6.033
16304WAT     H249155   4.977   1.286   5.890
16305WAT      O49156   3.246   2.684   6.707
16305WAT     H149157   3.279   2.619   6.640
16305WAT     H249158   3.153   2.713   6.682
16306WAT      O49159   8.291   0.468   5.667
16306WAT     H149160   8.278   0.560   5.628
16306WAT     H249161   8.264   0.469   5.763
16307WAT      O49162   8.564   0.470   0.153
16307WAT     H149163   8.473   0.433   0.168
16307WAT     H249164   8.629   0.425   0.214
16308WAT      O49165   2.151   4.313   5.431
16308WAT     H149166   2.224   4.280   5.491
16308WAT     H249167   2.171   4.286   5.337
16309WAT      O49168   1.524   2.192   0.513
16309WAT     H149169   1.622   2.187   0.533
16309WAT     H249170   1.505   2.272   0.458
16310WAT      O49171   6.586   7.439   4.351
16310WAT     H149172   6.594   7.460   4.253
16310WAT     H249173   6.566   7.342   4.363
16311WAT      O49174   2.891   3.172   9.526
16311WAT     H149175   2.981   3.178   9.568
16311WAT     H249176   2.893   3.107   9.451
16312WAT      O49177   1.774   4.942   1.282
16312WAT     H149178   1.806   4.849   1.264
16312WAT     H249179   1.678   4.949   1.253
16313WAT      O49180   4.518   1.307   3.734
16313WAT     H149181   4.470   1.331   3.651
16313WAT     H249182   4.538   1.209   3.735
16314WAT      O49183   8.005   6.406   0.277
16314WAT     H149184   7.974   6.499   0.260
16314WAT     H249185   8.085   6.407   0.338
16315WAT      O49186   4.781   6.858   4.608
16315WAT     H149187   4.736   6.811   4.684
16315WAT     H249188   4.806   6.791   4.538
16316WAT      O49189   7.236   6.987   0.793
16316WAT     H149190   7.193   7.047   0.725
16316WAT     H249191   7.314   6.940   0.753
16317WAT      O49192   5.082   1.860   7.235
16317WAT     H149193   5.013   1.902   7.293
16317WAT     H249194   5.040   1.828   7.150
16318WAT      O49195   2.201   1.430   8.037
16318WAT     H149196   2.161   1.460   8.123
16318WAT     H249197   2.129   1.407   7.972
16319WAT      O49198   9.275   7.901   2.555
16319WAT     H149199   9.336   7.882   2.478
16319WAT     H249200   9.306   7.851   2.635
16320WAT      O49201   4.611   5.331   8.027
16320WAT     H149202   4.523   5.284   8.020
16320WAT     H249203   4.685   5.265   8.015
16321WAT      O49204   2.257   0.369   8.770
16321WAT     H149205   2.235   0.427   8.849
16321WAT     H249206   2.289   0.280   8.803
16322WAT      O49207   2.145   2.519   1.406
16322WAT     H149208   2.116   2.609   1.440
16322WAT     H249209   2.244   2.510   1.417
16323WAT      O49210   3.500   1.937   7.784
16323WAT     H149211   3.422   1.886   7.821
16323WAT     H249212   3.497   2.031   7.818
16324WAT      O49213   7.424   4.207   6.291
16324WAT     H149214   7.514   4.181   6.256
16324WAT     H249215   7.370   4.249   6.217
16325WAT      O49216   8.301   2.644   7.221
16325WAT     H149217   8.289   2.559   7.169
16325WAT     H249218   8.394   2.678   7.206
16326WAT      O49219   5.745   0.546   6.592
16326WAT     H149220   5.665   0.588   6.550
16326WAT     H249221   5.743   0.562   6.691
16327WAT      O49222   1.982   0.412   0.240
16327WAT     H149223   1.944   0.325   0.212
16327WAT     H249224   1.954   0.433   0.333
16328WAT      O49225   1.379   9.435   2.934
16328WAT     H149226   1.316   9.499   2.892
16328WAT     H249227   1.470   9.476   2.941
16329WAT      O49228   5.427   3.548   6.040
16329WAT     H149229   5.494   3.480   6.070
16329WAT     H249230   5.338   3.504   6.032
16330WAT      O49231   7.285   4.045   2.966
16330WAT     H149232   7.240   4.074   2.881
16330WAT     H249233   7.360   4.107   2.987
16331WAT      O49234   5.914   0.688   9.385
16331WAT     H149235   5.875   0.778   9.367
16331WAT     H249236   5.902   0.630   9.305
16332WAT      O49237   6.420   2.683   3.232
16332WAT     H149238   6.339   2.628   3.252
16332WAT     H249239   6.408   2.729   3.144
16333WAT      O49240   2.857   0.117   7.418
16333WAT     H149241   2.899   0.207   7.412
16333WAT     H249242   2.911   0.059   7.478
16334WAT      O49243   2.126   3.749   5.976
16334WAT     H149244   2.065   3.733   6.053
16334WAT     H249245   2.134   3.847   5.958
16335WAT      O49246   3.473   7.955   8.219
16335WAT     H149247   3.493   8.037   8.166
16335WAT     H249248   3.427   7.980   8.304
16336WAT      O49249   6.326   6.985   1.876
16336WAT     H149250   6.291   6.927   1.948
16336WAT     H249251   6.376   7.062   1.916
16337WAT      O49252   2.157   8.039   2.105
16337WAT     H149253   2.253   8.036   2.135
16337WAT     H249254   2.131   7.950   2.068
16338WAT      O49255   7.742   5.706   9.207
16338WAT     H149256   7.750   5.624   9.263
16338WAT     H249257   7.662   5.699   9.147
16339WAT      O49258   2.426   3.513   9.396
16339WAT     H149259   2.351   3.570   9.363
16339WAT     H249260   2.490   3.569   9.449
16340WAT      O49261   2.471   5.995   8.873
16340WAT     H149262   2.428   5.920   8.823
16340WAT     H249263   2.570   5.981   8.876
16341WAT      O49264   9.199   0.397   3.675
16341WAT     H149265   9.114   0.439   3.643
16341WAT     H249266   9.179   0.342   3.756
16342WAT      O49267   9.191   2.064   2.644
16342WAT     H149268   9.268   2.004   2.623
16342WAT     H249269   9.209   2.155   2.606
16343WAT      O49270   3.436   3.368   0.382
16343WAT     H149271   3.355   3.350   0.327
16343WAT     H249272   3.483   3.281   0.400
16344WAT      O49273   3.543   4.511   6.998
16344WAT     H149274   3.615   4.544   7.059
16344WAT     H249275   3.581   4.498   6.906
16345WAT      O49276   3.206   6.926   4.917
16345WAT     H149277   3.261   7.004   4.947
16345WAT     H249278   3.126   6.917   4.976
16346WAT      O49279   4.941   6.248   3.882
16346WAT     H149280   4.882   6.261   3.802
16346WAT     H249281   5.002   6.327   3.890
16347WAT      O49282   5.434   5.391   1.966
16347WAT     H149283   5.507   5.424   2.027
16347WAT     H249284   5.443   5.434   1.877
16348WAT      O49285   7.250   4.199   0.119
16348WAT     H149286   7.280   4.291   0.093
16348WAT     H249287   7.274   4.134   0.047
16349WAT      O49288   9.643   0.722   4.958
16349WAT     H149289   9.642   0.694   5.053
16349WAT     H249290   9.736   0.717   4.922
16350WAT      O49291   6.699   5.251   3.058
16350WAT     H149292   6.612   5.278   3.100
16350WAT     H249293   6.687   5.242   2.959
16351WAT      O49294   5.130   0.386   3.989
16351WAT     H149295   5.098   0.339   4.072
16351WAT     H249296   5.214   0.343   3.957
16352WAT      O49297   1.646   6.455   8.648
16352WAT     H149298   1.591   6.372   8.636
16352WAT     H249299   1.692   6.478   8.562
16353WAT      O49300   3.594   5.676   4.827
16353WAT     H149301   3.663   5.693   4.897
16353WAT     H249302   3.519   5.742   4.838
16354WAT      O49303   7.758   0.051   3.574
16354WAT     H149304   7.774   0.145   3.605
16354WAT     H249305   7.713  -0.001   3.647
16355WAT      O49306   8.770   9.832   7.809
16355WAT     H149307   8.715   9.893   7.866
16355WAT     H249308   8.865   9.863   7.809
16356WAT      O49309   6.392   5.606   1.496
16356WAT     H149310   6.338   5.666   1.555
16356WAT     H249311   6.334   5.535   1.458
16357WAT      O49312   7.941   9.376   0.087
16357WAT     H149313   7.863   9.318   0.064
16357WAT     H249314   7.913   9.472   0.087
16358WAT      O49315   2.585   7.090   4.245
16358WAT     H149316   2.682   7.106   4.260
16358WAT     H249317   2.542   7.064   4.331
16359WAT      O49318   0.856   5.399   9.821
16359WAT     H149319   0.916   5.449   9.758
16359WAT     H249320   0.845   5.305   9.788
16360WAT      O49321   3.150   0.092   1.736
16360WAT     H149322   3.213   0.128   1.805
16360WAT     H249323   3.056   0.108   1.765
16361WAT      O49324   5.330   6.914   6.893
16361WAT     H149325   5.390   6.865   6.956
16361WAT     H249326   5.381   6.988   6.850
16362WAT      O49327   3.632   9.814   3.900
16362WAT     H149328   3.651   9.718   3.916
16362WAT     H249329   3.634   9.832   3.801
16363WAT      O49330   2.828   5.966   6.168
16363WAT     H149331   2.905   5.964   6.104
16363WAT     H249332   2.854   6.015   6.251
16364WAT      O49333   4.584   4.293   8.089
16364WAT     H149334   4.621   4.381   8.059
16364WAT     H249335   4.583   4.289   8.189
16365WAT      O49336   3.272   2.175   9.849
16365WAT     H149337   3.245   2.271   9.854
16365WAT     H249338   3.252   2.139   9.758
16366WAT      O49339   9.045   2.808   0.698
16366WAT     H149340   9.082   2.799   0.605
16366WAT     H249341   9.112   2.854   0.756
16367WAT      O49342   2.216   7.735   7.525
16367WAT     H149343   2.253   7.720   7.616
16367WAT     H249344   2.153   7.661   7.501
16368WAT      O49345   2.279   3.862   9.050
16368WAT     H149346   2.345   3.860   8.975
16368WAT     H249347   2.187   3.845   9.014
16369WAT      O49348   8.398   5.231   1.353
16369WAT     H149349   8.311   5.192   1.324
16369WAT     H249350   8.382   5.324   1.387
16370WAT      O49351   5.090   2.796   4.648
16370WAT     H149352   5.003   2.782   4.602
16370WAT     H249353   5.081   2.774   4.745
16371WAT      O49354   6.238   5.891   3.103
16371WAT     H149355   6.272   5.805   3.140
16371WAT     H249356   6.149   5.912   3.143
16372WAT      O49357   6.007   8.769   5.831
16372WAT     H149358   6.004   8.868   5.842
16372WAT     H249359   6.066   8.746   5.753
16373WAT      O49360   5.529   5.567   3.414
16373WAT     H149361   5.438   5.530   3.429
16373WAT     H249362   5.597   5.494   3.424
16374WAT      O49363   9.574   7.988   2.851
16374WAT     H149364   9.620   7.929   2.918
16374WAT     H249365   9.580   8.083   2.881
16375WAT      O49366   9.552   4.116   9.001
16375WAT     H149367   9.531   4.157   9.090
16375WAT     H249368   9.568   4.018   9.013
16376WAT      O49369   2.627   1.309   7.962
16376WAT     H149370   2.641   1.404   7.990
16376WAT     H249371   2.542   1.275   8.002
16377WAT      O49372   3.326   6.830   1.475
16377WAT     H149373   3.257   6.847   1.545
16377WAT     H249374   3.408   6.884   1.495
16378WAT      O49375   4.995   1.827   0.931
16378WAT     H149376   4.903   1.807   0.964
16378WAT     H249377   5.061   1.772   0.982
16379WAT      O49378   5.276   5.384   7.391
16379WAT     H149379   5.232   5.459   7.342
16379WAT     H249380   5.247   5.297   7.352
16380WAT      O49381   4.531   0.910   1.737
16380WAT     H149382   4.590   0.841   1.779
16380WAT     H249383   4.584   0.993   1.720
16381WAT      O49384   5.502   1.626   9.844
16381WAT     H149385   5.600   1.615   9.826
16381WAT     H249386   5.455   1.653   9.760
16382WAT      O49387   6.021   9.190   6.205
16382WAT     H149388   6.015   9.091   6.198
16382WAT     H249389   6.116   9.219   6.195
16383WAT      O49390   4.287   1.222   9.060
16383WAT     H149391   4.379   1.216   9.020
16383WAT     H249392   4.243   1.306   9.030
16384WAT      O49393   7.110   5.775   1.263
16384WAT     H149394   7.053   5.734   1.335
16384WAT     H249395   7.089   5.731   1.176
16385WAT      O49396   2.915   1.859   6.977
16385WAT     H149397   2.820   1.864   7.006
16385WAT     H249398   2.942   1.763   6.967
16386WAT      O49399   8.649   6.206   5.001
16386WAT     H149400   8.648   6.144   4.924
16386WAT     H249401   8.578   6.276   4.990
16387WAT      O49402   3.304   6.152   2.246
16387WAT     H149403   3.392   6.193   2.270
16387WAT     H249404   3.293   6.153   2.146
16388WAT      O49405   4.036   8.683   2.404
16388WAT     H149406   3.995   8.638   2.483
16388WAT     H249407   3.996   8.646   2.320
16389WAT      O49408   0.083   4.997   6.474
16389WAT     H149409   0.082   4.920   6.410
16389WAT     H249410   0.002   4.991   6.533
16390WAT      O49411   7.153   4.813   2.537
16390WAT     H149412   7.245   4.849   2.553
16390WAT     H249413   7.138   4.803   2.439
16391WAT      O49414   8.068   3.419   7.345
16391WAT     H149415   8.076   3.391   7.249
16391WAT     H249416   7.986   3.378   7.385
16392WAT      O49417   2.448   0.276   1.234
16392WAT     H149418   2.431   0.190   1.283
16392WAT     H249419   2.428   0.263   1.137
16393WAT      O49420   5.381   4.336   0.110
16393WAT     H149421   5.393   4.254   0.055
16393WAT     H249422   5.311   4.394   0.068
16394WAT      O49423   4.209   8.143   4.718
16394WAT     H149424   4.153   8.060   4.729
16394WAT     H249425   4.277   8.128   4.647
16395WAT      O49426   5.600   7.968   6.416
16395WAT     H149427   5.567   7.956   6.510
16395WAT     H249428   5.655   8.052   6.411
16396WAT      O49429   7.535   2.497   6.098
16396WAT     H149430   7.540   2.450   6.010
16396WAT     H249431   7.493   2.587   6.086
16397WAT      O49432   4.298   8.111   6.579
16397WAT     H149433   4.296   8.211   6.579
16397WAT     H249434   4.344   8.079   6.496
16398WAT      O49435   2.390   4.115   3.538
16398WAT     H149436   2.438   4.130   3.624
16398WAT     H249437   2.437   4.164   3.465
16399WAT      O49438   0.185   0.602   0.206
16399WAT     H149439   0.095   0.613   0.164
16399WAT     H249440   0.241   0.540   0.150
16400WAT      O49441   9.104   7.784   6.514
16400WAT     H149442   9.192   7.812   6.553
16400WAT     H249443   9.101   7.810   6.417
16401WAT      O49444   9.781   0.168   2.701
16401WAT     H149445   9.860   0.220   2.734
16401WAT     H249446   9.735   0.220   2.629
16402WAT      O49447   3.909   3.536   2.918
16402WAT     H149448   3.907   3.511   2.821
16402WAT     H249449   3.837   3.603   2.936
16403WAT      O49450   8.525   2.628   0.823
16403WAT     H149451   8.526   2.530   0.844
16403WAT     H249452   8.543   2.680   0.907
16404WAT      O49453   6.859   1.754   7.617
16404WAT     H149454   6.816   1.672   7.579
16404WAT     H249455   6.853   1.751   7.717
16405WAT      O49456   8.187   4.014   7.449
16405WAT     H149457   8.191   4.015   7.349
16405WAT     H249458   8.225   3.927   7.482
16406WAT      O49459   4.486   3.422   6.116
16406WAT     H149460   4.577   3.418   6.160
16406WAT     H249461   4.448   3.330   6.111
16407WAT      O49462   4.978   8.152   2.355
16407WAT     H149463   4.909   8.080   2.344
16407WAT     H249464   4.933   8.240   2.370
16408WAT      O49465   8.672   5.956   8.031
16408WAT     H149466   8.581   5.972   8.069
16408WAT     H249467   8.733   6.031   8.055
16409WAT      O49468   8.897   6.747   0.497
16409WAT     H149469   8.898   6.739   0.397
16409WAT     H249470   8.924   6.660   0.538
16410WAT      O49471   3.734   9.130   0.218
16410WAT     H149472   3.635   9.137   0.226
16410WAT     H249473   3.775   9.221   0.231
16411WAT      O49474   3.123   4.321   9.711
16411WAT     H149475   3.210   4.367   9.698
16411WAT     H249476   3.128   4.229   9.673
16412WAT      O49477   8.994   5.778   5.390
16412WAT     H149478   9.091   5.769   5.371
16412WAT     H249479   8.945   5.698   5.357
16413WAT      O49480   9.132   7.141   5.942
16413WAT     H149481   9.095   7.048   5.944
16413WAT     H249482   9.221   7.141   5.896
16414WAT      O49483   0.556   5.675   4.316
16414WAT     H149484   0.646   5.654   4.277
16414WAT     H249485   0.521   5.759   4.274
16415WAT      O49486   2.517   8.670   3.762
16415WAT     H149487   2.436   8.677   3.704
16415WAT     H249488   2.594   8.715   3.717
16416WAT      O49489   1.528   2.845   1.009
16416WAT     H149490   1.615   2.891   1.024
16416WAT     H249491   1.458   2.912   0.983
16417WAT      O49492   2.479   8.166   1.619
16417WAT     H149493   2.421   8.120   1.552
16417WAT     H249494   2.485   8.264   1.596
16418WAT      O49495   8.812   0.111   2.816
16418WAT     H149496   8.806   0.151   2.907
16418WAT     H249497   8.857   0.175   2.754
16419WAT      O49498   1.070   1.771   9.595
16419WAT     H149499   1.043   1.725   9.679
16419WAT     H249500   1.053   1.711   9.517
16420WAT      O49501   4.373   5.742   4.729
16420WAT     H149502   4.446   5.675   4.739
16420WAT     H249503   4.312   5.714   4.655
16421WAT      O49504   2.741   7.960   4.716
16421WAT     H149505   2.719   7.937   4.621
16421WAT     H249506   2.733   7.878   4.772
16422WAT      O49507   3.189   8.004   6.894
16422WAT     H149508   3.249   7.924   6.887
16422WAT     H249509   3.097   7.979   6.861
16423WAT      O49510   3.603   3.357   8.251
16423WAT     H149511   3.556   3.270   8.269
16423WAT     H249512   3.601   3.376   8.153
16424WAT      O49513   7.544   9.043   8.649
16424WAT     H149514   7.453   9.032   8.689
16424WAT     H249515   7.613   9.019   8.717
16425WAT      O49516   8.267   8.631   2.086
16425WAT     H149517   8.171   8.601   2.088
16425WAT     H249518   8.278   8.710   2.146
16426WAT      O49519   0.664   9.793   2.632
16426WAT     H149520   0.672   9.878   2.579
16426WAT     H249521   0.673   9.715   2.570
16427WAT      O49522   0.808   0.188   4.637
16427WAT     H149523   0.868   0.146   4.569
16427WAT     H249524   0.752   0.258   4.593
16428WAT      O49525   0.175   4.421   8.107
16428WAT     H149526   0.114   4.437   8.184
16428WAT     H249527   0.213   4.508   8.075
16429WAT      O49528   5.109   1.927   9.798
16429WAT     H149529   5.016   1.906   9.769
16429WAT     H249530   5.148   1.997   9.737
16430WAT      O49531   8.991   8.406   2.858
16430WAT     H149532   8.978   8.356   2.772
16430WAT     H249533   9.074   8.461   2.853
16431WAT      O49534   6.603   6.615   9.593
16431WAT     H149535   6.550   6.600   9.677
16431WAT     H249536   6.687   6.664   9.615
16432WAT      O49537   6.386   6.020   2.089
16432WAT     H149538   6.381   5.927   2.124
16432WAT     H249539   6.475   6.060   2.112
16433WAT      O49540   0.687   2.750   4.526
16433WAT     H149541   0.695   2.671   4.588
16433WAT     H249542   0.673   2.833   4.580
16434WAT      O49543   6.256   8.043   7.422
16434WAT     H149544   6.287   7.967   7.479
16434WAT     H249545   6.182   8.012   7.363
16435WAT      O49546   8.799   0.810   6.133
16435WAT     H149547   8.724   0.871   6.107
16435WAT     H249548   8.771   0.754   6.211
16436WAT      O49549   0.863   9.559   6.394
16436WAT     H149550   0.846   9.511   6.308
16436WAT     H249551   0.948   9.610   6.388
16437WAT      O49552   3.259   6.830   5.607
16437WAT     H149553   3.245   6.920   5.566
16437WAT     H249554   3.204   6.822   5.689
16438WAT      O49555   6.257   7.146   3.218
16438WAT     H149556   6.291   7.125   3.126
16438WAT     H249557   6.329   7.129   3.285
16439WAT      O49558   5.393   0.103   9.461
16439WAT     H149559   5.299   0.080   9.485
16439WAT     H249560   5.399   0.199   9.435
16440WAT      O49561   1.580   7.563   4.216
16440WAT     H149562   1.651   7.634   4.223
16440WAT     H249563   1.505   7.586   4.278
16441WAT      O49564   5.665   6.657   0.268
16441WAT     H149565   5.580   6.637   0.316
16441WAT     H249566   5.729   6.581   0.280
16442WAT      O49567   8.626   4.973   1.511
16442WAT     H149568   8.616   4.887   1.560
16442WAT     H249569   8.705   5.024   1.548
16443WAT      O49570   6.964   6.769   6.072
16443WAT     H149571   6.966   6.867   6.054
16443WAT     H249572   6.910   6.752   6.155
16444WAT      O49573   2.857   1.020   5.718
16444WAT     H149574   2.772   0.971   5.697
16444WAT     H249575   2.878   1.083   5.643
16445WAT      O49576   6.769   9.020   6.978
16445WAT     H149577   6.698   8.969   7.027
16445WAT     H249578   6.858   8.975   6.991
16446WAT      O49579   7.581   9.338   0.512
16446WAT     H149580   7.514   9.277   0.555
16446WAT     H249581   7.649   9.283   0.463
16447WAT      O49582   1.629   5.806   1.740
16447WAT     H149583   1.540   5.847   1.760
16447WAT     H249584   1.672   5.854   1.664
16448WAT      O49585   5.281   3.895   3.066
16448WAT     H149586   5.242   3.940   2.986
16448WAT     H249587   5.251   3.942   3.149
16449WAT      O49588   6.351   3.037   1.872
16449WAT     H149589   6.382   3.082   1.955
16449WAT     H249590   6.404   2.953   1.857
16450WAT      O49591   4.181   0.492   1.336
16450WAT     H149592   4.151   0.483   1.431
16450WAT     H249593   4.131   0.427   1.279
16451WAT      O49594   8.408   3.213   3.700
16451WAT     H149595   8.418   3.247   3.794
16451WAT     H249596   8.374   3.286   3.642
16452WAT      O49597   8.744   1.332   5.979
16452WAT     H149598   8.774   1.342   5.885
16452WAT     H249599   8.665   1.392   5.996
16453WAT      O49600   5.689   5.943   5.154
16453WAT     H149601   5.758   5.888   5.199
16453WAT     H249602   5.677   6.029   5.205
16454WAT      O49603   7.335   3.813   9.296
16454WAT     H149604   7.342   3.876   9.219
16454WAT     H249605   7.423   3.770   9.312
16455WAT      O49606   1.677   3.729   9.643
16455WAT     H149607   1.737   3.649   9.647
16455WAT     H249608   1.673   3.772   9.733
16456WAT      O49609   8.043   7.448   3.244
16456WAT     H149610   8.015   7.520   3.306
16456WAT     H249611   7.966   7.424   3.184
16457WAT      O49612   2.235   6.969   0.217
16457WAT     H149613   2.251   6.989   0.121
16457WAT     H249614   2.309   7.007   0.272
16458WAT      O49615   8.694   2.457   5.456
16458WAT     H149616   8.716   2.361   5.443
16458WAT     H249617   8.704   2.481   5.553
16459WAT      O49618   9.205   5.922   1.460
16459WAT     H149619   9.147   5.946   1.537
16459WAT     H249620   9.288   5.877   1.493
16460WAT      O49621   8.403   4.086   6.608
16460WAT     H149622   8.426   4.079   6.705
16460WAT     H249623   8.360   4.175   6.591
16461WAT      O49624   7.527   1.575   4.866
16461WAT     H149625   7.609   1.518   4.872
16461WAT     H249626   7.549   1.669   4.891
16462WAT      O49627   1.713   2.524   6.573
16462WAT     H149628   1.732   2.434   6.533
16462WAT     H249629   1.616   2.530   6.598
16463WAT      O49630   2.271   8.173   0.326
16463WAT     H149631   2.322   8.242   0.378
16463WAT     H249632   2.332   8.132   0.258
16464WAT      O49633   7.393   6.042   2.409
16464WAT     H149634   7.302   6.062   2.375
16464WAT     H249635   7.403   6.077   2.502
16465WAT      O49636   8.594   2.006   0.282
16465WAT     H149637   8.562   2.095   0.249
16465WAT     H249638   8.522   1.937   0.268
16466WAT      O49639   7.636   4.928   1.983
16466WAT     H149640   7.686   4.844   1.960
16466WAT     H249641   7.691   4.982   2.046
16467WAT      O49642   5.095   0.513   8.327
16467WAT     H149643   5.141   0.597   8.357
16467WAT     H249644   5.008   0.504   8.377
16468WAT      O49645   0.909   1.112   4.116
16468WAT     H149646   0.995   1.062   4.125
16468WAT     H249647   0.883   1.150   4.204
16469WAT      O49648   6.391   0.035   3.714
16469WAT     H149649   6.303   0.043   3.668
16469WAT     H249650   6.377   0.028   3.813
16470WAT      O49651   4.121   5.071   3.653
16470WAT     H149652   4.122   5.129   3.735
16470WAT     H249653   4.211   5.029   3.642
16471WAT      O49654   3.668   6.130   7.114
16471WAT     H149655   3.722   6.190   7.055
16471WAT     H249656   3.701   6.036   7.106
16472WAT      O49657   5.893   5.407   2.415
16472WAT     H149658   5.822   5.353   2.370
16472WAT     H249659   5.981   5.390   2.370
16473WAT      O49660   0.683   8.462   9.378
16473WAT     H149661   0.649   8.392   9.441
16473WAT     H249662   0.605   8.504   9.331
16474WAT      O49663   0.483   9.712   2.821
16474WAT     H149664   0.408   9.675   2.766
16474WAT     H249665   0.550   9.754   2.760
16475WAT      O49666   9.317   9.517   3.018
16475WAT     H149667   9.414   9.540   3.010
16475WAT     H249668   9.294   9.503   3.114
16476WAT      O49669   7.137   5.664   7.693
16476WAT     H149670   7.052   5.652   7.642
16476WAT     H249671   7.125   5.631   7.787
16477WAT      O49672   5.995   3.220   9.690
16477WAT     H149673   5.940   3.137   9.683
16477WAT     H249674   6.073   3.204   9.751
16478WAT      O49675   5.242   3.014   0.061
16478WAT     H149676   5.273   3.104   0.091
16478WAT     H249677   5.218   3.017  -0.036
16479WAT      O49678   1.025   5.041   2.052
16479WAT     H149679   1.029   5.025   2.151
16479WAT     H249680   0.996   4.957   2.006
16480WAT      O49681   0.203   7.133   8.362
16480WAT     H149682   0.153   7.217   8.386
16480WAT     H249683   0.184   7.110   8.266
16481WAT      O49684   3.774   1.799   7.488
16481WAT     H149685   3.774   1.794   7.388
16481WAT     H249686   3.736   1.714   7.525
16482WAT      O49687   4.513   9.363   7.388
16482WAT     H149688   4.418   9.363   7.421
16482WAT     H249689   4.532   9.449   7.341
16483WAT      O49690   1.563   2.826   6.618
16483WAT     H149691   1.555   2.925   6.634
16483WAT     H249692   1.659   2.803   6.604
16484WAT      O49693   4.814   2.340   6.285
16484WAT     H149694   4.885   2.343   6.355
16484WAT     H249695   4.761   2.256   6.294
16485WAT      O49696   7.716   4.760   4.720
16485WAT     H149697   7.649   4.770   4.793
16485WAT     H249698   7.669   4.749   4.632
16486WAT      O49699   4.011   4.806   5.705
16486WAT     H149700   4.017   4.733   5.773
16486WAT     H249701   4.085   4.798   5.640
16487WAT      O49702   8.157   6.463   9.570
16487WAT     H149703   8.241   6.418   9.541
16487WAT     H249704   8.085   6.395   9.585
16488WAT      O49705   3.643   9.455   2.134
16488WAT     H149706   3.653   9.400   2.051
16488WAT     H249707   3.546   9.458   2.160
16489WAT      O49708   5.737   2.886   4.683
16489WAT     H149709   5.656   2.828   4.679
16489WAT     H249710   5.731   2.946   4.763
16490WAT      O49711   1.436   3.722   2.255
16490WAT     H149712   1.479   3.640   2.292
16490WAT     H249713   1.505   3.793   2.240
16491WAT      O49714   5.410   3.979   2.461
16491WAT     H149715   5.407   4.058   2.522
16491WAT     H249716   5.501   3.937   2.465
16492WAT      O49717   8.593   2.714   0.576
16492WAT     H149718   8.584   2.680   0.670
16492WAT     H249719   8.682   2.758   0.565
16493WAT      O49720   8.779   4.235   9.324
16493WAT     H149721   8.698   4.194   9.366
16493WAT     H249722   8.767   4.241   9.225
16494WAT      O49723   7.666   6.293   2.510
16494WAT     H149724   7.714   6.372   2.547
16494WAT     H249725   7.585   6.323   2.460
16495WAT      O49726   1.747   7.171   6.507
16495WAT     H149727   1.771   7.268   6.518
16495WAT     H249728   1.829   7.116   6.523
16496WAT      O49729   7.432   2.157   8.106
16496WAT     H149730   7.358   2.097   8.074
16496WAT     H249731   7.510   2.147   8.044
16497WAT      O49732   6.557   5.424   8.237
16497WAT     H149733   6.473   5.385   8.199
16497WAT     H249734   6.635   5.370   8.207
16498WAT      O49735   3.058   3.548   1.506
16498WAT     H149736   3.028   3.498   1.587
16498WAT     H249737   3.133   3.610   1.531
16499WAT      O49738   6.447   1.205   6.473
16499WAT     H149739   6.443   1.198   6.573
16499WAT     H249740   6.411   1.121   6.432
16500WAT      O49741   9.042   0.120   5.657
16500WAT     H149742   8.963   0.069   5.624
16500WAT     H249743   9.010   0.202   5.705
16501WAT      O49744   3.899   0.684   9.634
16501WAT     H149745   3.960   0.720   9.564
16501WAT     H249746   3.868   0.593   9.607
16502WAT      O49747   0.504   1.830   2.322
16502WAT     H149748   0.446   1.755   2.355
16502WAT     H249749   0.583   1.792   2.275
16503WAT      O49750   6.853   9.737   2.511
16503WAT     H149751   6.901   9.688   2.438
16503WAT     H249752   6.771   9.686   2.537
16504WAT      O49753   4.780   8.029   5.525
16504WAT     H149754   4.684   8.027   5.552
16504WAT     H249755   4.810   8.123   5.513
16505WAT      O49756   2.166   3.117   6.727
16505WAT     H149757   2.219   3.050   6.675
16505WAT     H249758   2.161   3.088   6.823
16506WAT      O49759   5.272   3.287   1.382
16506WAT     H149760   5.212   3.222   1.427
16506WAT     H249761   5.235   3.311   1.292
16507WAT      O49762   8.432   9.483   9.693
16507WAT     H149763   8.435   9.582   9.687
16507WAT     H249764   8.369   9.447   9.625
16508WAT      O49765   4.210   1.491   9.080
16508WAT     H149766   4.176   1.561   9.016
16508WAT     H249767   4.307   1.508   9.099
16509WAT      O49768   6.527   8.772   0.078
16509WAT     H149769   6.504   8.857   0.126
16509WAT     H249770   6.457   8.752   0.010
16510WAT      O49771   4.619   0.620   8.899
16510WAT     H149772   4.692   0.682   8.875
16510WAT     H249773   4.539   0.672   8.930
16511WAT      O49774   0.775   0.133   3.190
16511WAT     H149775   0.793   0.197   3.265
16511WAT     H249776   0.856   0.077   3.173
16512WAT      O49777   1.904   4.507   0.114
16512WAT     H149778   1.818   4.466   0.145
16512WAT     H249779   1.938   4.571   0.183
16513WAT      O49780   0.192   0.475   5.889
16513WAT     H149781   0.226   0.387   5.922
16513WAT     H249782   0.170   0.468   5.791
16514WAT      O49783   0.001   8.909   9.556
16514WAT     H149784   0.075   8.973   9.535
16514WAT     H249785  -0.078   8.960   9.590
16515WAT      O49786   6.682   5.747   7.351
16515WAT     H149787   6.658   5.714   7.259
16515WAT     H249788   6.621   5.705   7.418
16516WAT      O49789   3.637   8.228   2.418
16516WAT     H149790   3.706   8.256   2.350
16516WAT     H249791   3.617   8.131   2.408
16517WAT      O49792   4.300   6.455   2.633
16517WAT     H149793   4.212   6.413   2.610
16517WAT     H249794   4.295   6.553   2.615
16518WAT      O49795   4.011   7.956   1.270
16518WAT     H149796   3.997   7.955   1.171
16518WAT     H249797   4.099   7.915   1.291
16519WAT      O49798   1.372   1.117   7.914
16519WAT     H149799   1.296   1.058   7.943
16519WAT     H249800   1.448   1.060   7.884
16520WAT      O49801   5.505   5.063   2.007
16520WAT     H149802   5.489   5.061   1.908
16520WAT     H249803   5.418   5.073   2.055
16521WAT      O49804   0.718   1.674   6.588
16521WAT     H149805   0.674   1.626   6.512
16521WAT     H249806   0.663   1.755   6.612
16522WAT      O49807   8.560   8.132   5.298
16522WAT     H149808   8.481   8.105   5.353
16522WAT     H249809   8.625   8.056   5.292
16523WAT      O49810   7.441   8.046   4.072
16523WAT     H149811   7.441   8.125   4.011
16523WAT     H249812   7.356   7.995   4.061
16524WAT      O49813   7.657   4.859   5.297
16524WAT     H149814   7.635   4.846   5.393
16524WAT     H249815   7.752   4.889   5.289
16525WAT      O49816   0.239   1.119   7.226
16525WAT     H149817   0.315   1.064   7.191
16525WAT     H249818   0.159   1.060   7.239
16526WAT      O49819   8.997   5.292   6.118
16526WAT     H149820   8.967   5.200   6.141
16526WAT     H249821   9.096   5.298   6.124
16527WAT      O49822   0.770   6.194   0.053
16527WAT     H149823   0.711   6.130   0.005
16527WAT     H249824   0.818   6.146   0.127
16528WAT      O49825   6.131   9.593   3.634
16528WAT     H149826   6.169   9.576   3.725
16528WAT     H249827   6.174   9.531   3.568
16529WAT      O49828   3.148   4.630   4.894
16529WAT     H149829   3.095   4.545   4.902
16529WAT     H249830   3.131   4.687   4.975
16530WAT      O49831   9.106   2.119   9.762
16530WAT     H149832   9.093   2.141   9.859
16530WAT     H249833   9.018   2.094   9.721
16531WAT      O49834   3.027   9.263   5.759
16531WAT     H149835   2.960   9.335   5.742
16531WAT     H249836   3.036   9.206   5.677
16532WAT      O49837   4.017   9.487   7.652
16532WAT     H149838   4.044   9.559   7.716
16532WAT     H249839   3.978   9.529   7.570
16533WAT      O49840   9.346   3.291   9.266
16533WAT     H149841   9.366   3.214   9.206
16533WAT     H249842   9.251   3.319   9.255
16534WAT      O49843   1.901   0.060   6.410
16534WAT     H149844   1.834   0.031   6.478
16534WAT     H249845   1.991   0.026   6.435
16535WAT      O49846   3.675   0.912   0.006
16535WAT     H149847   3.607   0.859  -0.046
16535WAT     H249848   3.652   1.009  -0.000
16536WAT      O49849   2.462   0.029   4.785
16536WAT     H149850   2.416  -0.060   4.782
16536WAT     H249851   2.402   0.097   4.826
16537WAT      O49852   9.306   9.580   5.193
16537WAT     H149853   9.278   9.539   5.106
16537WAT     H249854   9.375   9.651   5.175
16538WAT      O49855   2.828   7.738   7.437
16538WAT     H149856   2.870   7.815   7.485
16538WAT     H249857   2.733   7.728   7.467
16539WAT      O49858   8.404   3.550   0.836
16539WAT     H149859   8.317   3.584   0.871
16539WAT     H249860   8.396   3.453   0.815
16540WAT      O49861   3.627   3.607   9.860
16540WAT     H149862   3.537   3.567   9.880
16540WAT     H249863   3.650   3.674   9.931
16541WAT      O49864   4.175   3.639   2.939
16541WAT     H149865   4.087   3.593   2.929
16541WAT     H249866   4.210   3.665   2.849
16542WAT      O49867   1.825   2.509   4.486
16542WAT     H149868   1.787   2.544   4.572
16542WAT     H249869   1.755   2.457   4.438
16543WAT      O49870   8.841   9.710   3.881
16543WAT     H149871   8.823   9.808   3.886
16543WAT     H249872   8.847   9.672   3.973
16544WAT      O49873   7.316   2.862   8.718
16544WAT     H149874   7.393   2.919   8.748
16544WAT     H249875   7.329   2.768   8.749
16545WAT      O49876   4.350   7.398   5.884
16545WAT     H149877   4.339   7.327   5.954
16545WAT     H249878   4.426   7.458   5.909
16546WAT      O49879   6.345   0.330   5.090
16546WAT     H149880   6.276   0.351   5.159
16546WAT     H249881   6.436   0.333   5.131
16547WAT      O49882   5.305   4.333   1.073
16547WAT     H149883   5.340   4.296   0.987
16547WAT     H249884   5.225   4.390   1.055
16548WAT      O49885   6.085   2.113   4.455
16548WAT     H149886   6.129   2.039   4.404
16548WAT     H249887   6.152   2.184   4.474
16549WAT      O49888   4.461   7.411   1.325
16549WAT     H149889   4.547   7.360   1.321
16549WAT     H249890   4.388   7.358   1.283
16550WAT      O49891   7.139   1.477   3.854
16550WAT     H149892   7.119   1.547   3.923
16550WAT     H249893   7.069   1.481   3.783
16551WAT      O49894   6.909   1.036   1.499
16551WAT     H149895   6.990   0.991   1.462
16551WAT     H249896   6.918   1.046   1.598
16552WAT      O49897   9.251   4.563   8.817
16552WAT     H149898   9.340   4.529   8.788
16552WAT     H249899   9.212   4.499   8.884
16553WAT      O49900   5.879   5.841   8.824
16553WAT     H149901   5.898   5.749   8.791
16553WAT     H249902   5.941   5.906   8.780
16554WAT      O49903   2.106   7.967   7.412
16554WAT     H149904   2.143   7.975   7.320
16554WAT     H249905   2.150   7.890   7.459
16555WAT      O49906   1.298   3.939   9.061
16555WAT     H149907   1.282   3.929   8.963
16555WAT     H249908   1.265   4.029   9.091
16556WAT      O49909   8.131   1.784   9.226
16556WAT     H149910   8.222   1.817   9.253
16556WAT     H249911   8.127   1.778   9.126
16557WAT      O49912   3.511   2.751   0.077
16557WAT     H149913   3.473   2.837   0.112
16557WAT     H249914   3.602   2.737   0.116
16558WAT      O49915   4.484   2.443   5.202
16558WAT     H149916   4.414   2.413   5.267
16558WAT     H249917   4.441   2.494   5.128
16559WAT      O49918   9.422   4.399   1.307
16559WAT     H149919   9.407   4.354   1.394
16559WAT     H249920   9.348   4.464   1.289
16560WAT      O49921   1.872   4.976   2.930
16560WAT     H149922   1.854   5.034   3.009
16560WAT     H249923   1.814   4.894   2.934
16561WAT      O49924   1.345   7.603   3.692
16561WAT     H149925   1.279   7.675   3.671
16561WAT     H249926   1.413   7.638   3.756
16562WAT      O49927   5.034   4.165   6.160
16562WAT     H149928   5.114   4.108   6.139
16562WAT     H249929   5.057   4.261   6.143
16563WAT      O49930   9.729   7.123   7.946
16563WAT     H149931   9.821   7.126   7.907
16563WAT     H249932   9.734   7.144   8.043
16564WAT      O49933   7.980   8.385   3.290
16564WAT     H149934   8.054   8.320   3.272
16564WAT     H249935   7.969   8.397   3.389
16565WAT      O49936   7.882   1.424   7.656
16565WAT     H149937   7.927   1.513   7.664
16565WAT     H249938   7.951   1.352   7.654
16566WAT      O49939   4.826   5.975   2.868
16566WAT     H149940   4.760   6.050   2.869
16566WAT     H249941   4.907   6.003   2.817
16567WAT      O49942   3.710   0.995   6.755
16567WAT     H149943   3.772   0.920   6.777
16567WAT     H249944   3.619   0.958   6.736
16568WAT      O49945   3.214   3.148   9.626
16568WAT     H149946   3.161   3.187   9.701
16568WAT     H249947   3.225   3.050   9.639
16569WAT      O49948   2.856   3.080   0.713
16569WAT     H149949   2.821   2.986   0.711
16569WAT     H249950   2.941   3.084   0.766
16570WAT      O49951   0.901   4.957   0.530
16570WAT     H149952   0.815   4.906   0.541
16570WAT     H249953   0.916   5.015   0.610
16571WAT      O49954   4.546   1.273   2.905
16571WAT     H149955   4.643   1.258   2.884
16571WAT     H249956   4.495   1.189   2.889
16572WAT      O49957   8.923   7.734   4.305
16572WAT     H149958   8.957   7.753   4.397
16572WAT     H249959   8.995   7.755   4.238
16573WAT      O49960   5.848   4.059   5.360
16573WAT     H149961   5.844   4.159   5.350
16573WAT     H249962   5.790   4.017   5.291
16574WAT      O49963   7.003   3.014   9.623
16574WAT     H149964   7.077   2.949   9.608
16574WAT     H249965   7.000   3.039   9.720
16575WAT      O49966   3.719   2.573   3.758
16575WAT     H149967   3.711   2.587   3.857
16575WAT     H249968   3.628   2.566   3.718
16576WAT      O49969   5.385   9.246   4.011
16576WAT     H149970   5.415   9.334   3.975
16576WAT     H249971   5.465   9.191   4.036
16577WAT      O49972   2.594   8.816   2.080
16577WAT     H149973   2.654   8.738   2.098
16577WAT     H249974   2.648   8.894   2.048
16578WAT      O49975   8.107   2.090   4.237
16578WAT     H149976   8.067   2.179   4.215
16578WAT     H249977   8.094   2.027   4.161
16579WAT      O49978   5.190   4.209   1.714
16579WAT     H149979   5.091   4.221   1.701
16579WAT     H249980   5.220   4.124   1.672
16580WAT      O49981   2.736   3.069   7.920
16580WAT     H149982   2.822   3.025   7.896
16580WAT     H249983   2.662   3.001   7.917
16581WAT      O49984   3.966   5.457   0.441
16581WAT     H149985   3.867   5.451   0.454
16581WAT     H249986   4.012   5.412   0.517
16582WAT      O49987   1.534   7.817   2.032
16582WAT     H149988   1.507   7.887   1.966
16582WAT     H249989   1.454   7.783   2.080
16583WAT      O49990   5.543   6.226   7.833
16583WAT     H149991   5.569   6.205   7.739
16583WAT     H249992   5.522   6.323   7.841
16584WAT      O49993   3.916   8.938   0.386
16584WAT     H149994   3.974   8.997   0.441
16584WAT     H249995   3.851   8.994   0.334
16585WAT      O49996   4.147   2.966   1.099
16585WAT     H149997   4.175   3.052   1.142
16585WAT     H249998   4.205   2.892   1.133
16586WAT      O49999   4.976   5.516   5.866
16586WAT     H150000   4.952   5.527   5.769
16586WAT     H250001   5.061   5.464   5.873
16587WAT      O50002   7.310   4.809   5.053
16587WAT     H150003   7.211   4.806   5.036
16587WAT     H250004   7.353   4.867   4.984
16588WAT      O50005   7.185   9.386   4.020
16588WAT     H150006   7.209   9.475   3.983
16588WAT     H250007   7.109   9.347   3.967
16589WAT      O50008   5.433   5.000   9.791
16589WAT     H150009   5.465   5.053   9.869
16589WAT     H250010   5.507   4.989   9.724
16590WAT      O50011   4.326   1.081   8.579
16590WAT     H150012   4.371   1.077   8.668
16590WAT     H250013   4.351   1.166   8.532
16591WAT      O50014   1.250   8.006   7.133
16591WAT     H150015   1.185   8.018   7.208
16591WAT     H250016   1.239   7.914   7.094
16592WAT      O50017   5.040   2.936   8.259
16592WAT     H150018   5.081   2.846   8.273
16592WAT     H250019   5.020   2.978   8.347
16593WAT      O50020   2.239   6.582   9.400
16593WAT     H150021   2.247   6.656   9.467
16593WAT     H250022   2.159   6.526   9.421
16594WAT      O50023   6.194   1.032   5.822
16594WAT     H150024   6.134   1.008   5.746
16594WAT     H250025   6.149   1.011   5.908
16595WAT      O50026   5.449   0.176   2.657
16595WAT     H150027   5.423   0.191   2.753
16595WAT     H250028   5.373   0.203   2.598
16596WAT      O50029   6.344   8.373   8.037
16596WAT     H150030   6.313   8.464   8.009
16596WAT     H250031   6.431   8.380   8.085
16597WAT      O50032   0.266   4.544   7.651
16597WAT     H150033   0.284   4.634   7.613
16597WAT     H250034   0.317   4.533   7.737
16598WAT      O50035   0.667   0.798   4.687
16598WAT     H150036   0.747   0.751   4.724
16598WAT     H250037   0.642   0.756   4.599
16599WAT      O50038   6.721   0.221   1.221
16599WAT     H150039   6.801   0.180   1.178
16599WAT     H250040   6.739   0.237   1.318
16600WAT      O50041   0.938   7.127   0.478
16600WAT     H150042   0.865   7.125   0.546
16600WAT     H250043   0.909   7.077   0.396
16601WAT      O50044   1.031   1.146   4.886
16601WAT     H150045   0.981   1.125   4.970
16601WAT     H250046   1.091   1.224   4.901
16602WAT      O50047   1.901   7.964   6.918
16602WAT     H150048   1.870   7.885   6.867
16602WAT     H250049   1.886   7.949   7.016
16603WAT      O50050   4.762   9.560   0.922
16603WAT     H150051   4.838   9.592   0.866
16603WAT     H250052   4.689   9.526   0.863
16604WAT      O50053   8.543   8.739   6.133
16604WAT     H150054   8.475   8.712   6.065
16604WAT     H250055   8.627   8.767   6.086
16605WAT      O50056   5.533   9.133   8.813
16605WAT     H150057   5.615   9.135   8.870
16605WAT     H250058   5.456   9.098   8.866
16606WAT      O50059   6.622   1.752   3.691
16606WAT     H150060   6.676   1.814   3.633
16606WAT     H250061   6.605   1.796   3.779
16607WAT      O50062   2.198   2.593   2.106
16607WAT     H150063   2.122   2.530   2.093
16607WAT     H250064   2.282   2.551   2.073
16608WAT      O50065   8.355   9.454   0.113
16608WAT     H150066   8.299   9.411   0.042
16608WAT     H250067   8.336   9.552   0.116
16609WAT      O50068   0.365   5.336   8.017
16609WAT     H150069   0.274   5.370   7.992
16609WAT     H250070   0.421   5.327   7.934
16610WAT      O50071   7.298   8.091   0.791
16610WAT     H150072   7.296   8.189   0.770
16610WAT     H250073   7.217   8.067   0.844
16611WAT      O50074   0.169   3.050   1.969
16611WAT     H150075   0.265   3.073   1.983
16611WAT     H250076   0.112   3.131   1.985
16612WAT      O50077   5.495   5.405   7.246
16612WAT     H150078   5.406   5.430   7.285
16612WAT     H250079   5.523   5.475   7.180
16613WAT      O50080   0.371   9.493   8.325
16613WAT     H150081   0.356   9.394   8.320
16613WAT     H250082   0.346   9.535   8.238
16614WAT      O50083   3.107   0.306   9.330
16614WAT     H150084   3.011   0.282   9.341
16614WAT     H250085   3.116   0.383   9.266
16615WAT      O50086   1.681   3.508   9.285
16615WAT     H150087   1.775   3.481   9.304
16615WAT     H250088   1.678   3.564   9.202
16616WAT      O50089   4.829   7.398   6.491
16616WAT     H150090   4.857   7.331   6.559
16616WAT     H250091   4.854   7.365   6.400
16617WAT      O50092   7.361   3.586   4.859
16617WAT     H150093   7.277   3.543   4.892
16617WAT     H250094   7.363   3.582   4.759
16618WAT      O50095   2.924   1.005   0.058
16618WAT     H150096   2.997   1.028   0.122
16618WAT     H250097   2.898   0.909   0.070
16619WAT      O50098   8.090   9.756   4.391
16619WAT     H150099   8.058   9.794   4.304
16619WAT     H250100   8.176   9.709   4.376
16620WAT      O50101   4.600   3.127   5.620
16620WAT     H150102   4.594   3.181   5.536
16620WAT     H250103   4.624   3.188   5.696
16621WAT      O50104   2.209   0.776   1.903
16621WAT     H150105   2.111   0.796   1.902
16621WAT     H250106   2.232   0.718   1.824
16622WAT      O50107   4.228   8.975   2.655
16622WAT     H150108   4.172   8.990   2.573
16622WAT     H250109   4.311   9.030   2.649
16623WAT      O50110   3.369   6.252   2.821
16623WAT     H150111   3.344   6.349   2.827
16623WAT     H250112   3.469   6.244   2.820
16624WAT      O50113   5.060   8.932   7.274
16624WAT     H150114   4.991   8.879   7.226
16624WAT     H250115   5.138   8.873   7.296
16625WAT      O50116   4.377   5.529   5.903
16625WAT     H150117   4.324   5.448   5.927
16625WAT     H250118   4.370   5.546   5.805
16626WAT      O50119   0.436   3.923   6.504
16626WAT     H150120   0.379   3.845   6.530
16626WAT     H250121   0.530   3.907   6.535
16627WAT      O50122   5.296   4.769   1.702
16627WAT     H150123   5.363   4.760   1.628
16627WAT     H250124   5.210   4.727   1.673
16628WAT      O50125   7.896   6.307   6.765
16628WAT     H150126   7.947   6.222   6.752
16628WAT     H250127   7.844   6.302   6.851
16629WAT      O50128   7.318   3.825   2.044
16629WAT     H150129   7.298   3.923   2.034
16629WAT     H250130   7.275   3.775   1.968
16630WAT      O50131   2.065   1.986   5.334
16630WAT     H150132   2.038   1.942   5.248
16630WAT     H250133   2.058   1.920   5.409
16631WAT      O50134   9.055   2.679   6.446
16631WAT     H150135   9.017   2.665   6.354
16631WAT     H250136   9.084   2.592   6.484
16632WAT      O50137   3.297   6.364   8.195
16632WAT     H150138   3.206   6.333   8.221
16632WAT     H250139   3.293   6.462   8.172
16633WAT      O50140   0.985   1.261   7.892
16633WAT     H150141   1.038   1.202   7.830
16633WAT     H250142   0.905   1.211   7.925
16634WAT      O50143   7.045   2.095   2.168
16634WAT     H150144   7.091   2.150   2.238
16634WAT     H250145   7.113   2.051   2.111
16635WAT      O50146   2.503   2.379   8.662
16635WAT     H150147   2.439   2.425   8.600
16635WAT     H250148   2.556   2.312   8.610
16636WAT      O50149   8.991   3.002   4.053
16636WAT     H150150   9.027   2.917   4.013
16636WAT     H250151   9.037   3.020   4.140
16637WAT      O50152   4.971   5.608   7.032
16637WAT     H150153   5.071   5.608   7.034
16637WAT     H250154   4.935   5.623   7.124
16638WAT      O50155   3.660   7.771   2.669
16638WAT     H150156   3.747   7.797   2.627
16638WAT     H250157   3.673   7.688   2.723
16639WAT      O50158   1.683   7.648   0.669
16639WAT     H150159   1.598   7.599   0.689
16639WAT     H250160   1.714   7.625   0.577
16640WAT      O50161   7.815   9.313   2.011
16640WAT     H150162   7.728   9.344   2.048
16640WAT     H250163   7.888   9.375   2.041
16641WAT      O50164   5.158   0.304   3.434
16641WAT     H150165   5.189   0.212   3.459
16641WAT     H250166   5.065   0.319   3.468
16642WAT      O50167   6.751   4.822   7.032
16642WAT     H150168   6.817   4.894   7.014
16642WAT     H250169   6.684   4.854   7.099
16643WAT      O50170   0.240   6.471   6.166
16643WAT     H150171   0.264   6.502   6.258
16643WAT     H250172   0.245   6.372   6.162
16644WAT      O50173   3.535   5.525   4.297
16644WAT     H150174   3.523   5.431   4.328
16644WAT     H250175   3.629   5.538   4.264
16645WAT      O50176   1.931   1.646   6.486
16645WAT     H150177   1.925   1.574   6.417
16645WAT     H250178   2.025   1.683   6.487
16646WAT      O50179   4.203   2.934   2.401
16646WAT     H150180   4.104   2.925   2.403
16646WAT     H250181   4.237   2.900   2.313
16647WAT      O50182   8.569   5.237   2.738
16647WAT     H150183   8.648   5.287   2.774
16647WAT     H250184   8.543   5.275   2.649
16648WAT      O50185   7.400   8.940   4.227
16648WAT     H150186   7.392   8.841   4.215
16648WAT     H250187   7.360   8.966   4.315
16649WAT      O50188   4.420   7.261   0.209
16649WAT     H150189   4.427   7.339   0.147
16649WAT     H250190   4.490   7.193   0.186
16650WAT      O50191   7.770   1.600   0.024
16650WAT     H150192   7.672   1.591   0.005
16650WAT     H250193   7.789   1.691   0.060
16651WAT      O50194   6.280   4.841   8.747
16651WAT     H150195   6.335   4.807   8.670
16651WAT     H250196   6.183   4.833   8.724
16652WAT      O50197   9.204   1.533   7.870
16652WAT     H150198   9.198   1.577   7.780
16652WAT     H250199   9.140   1.456   7.873
16653WAT      O50200   3.443   4.775   5.905
16653WAT     H150201   3.450   4.683   5.866
16653WAT     H250202   3.348   4.805   5.901
16654WAT      O50203   6.499   2.645   1.366
16654WAT     H150204   6.421   2.701   1.394
16654WAT     H250205   6.471   2.549   1.362
16655WAT      O50206   0.306   0.655   1.930
16655WAT     H150207   0.375   0.728   1.931
16655WAT     H250208   0.284   0.628   2.024
16656WAT      O50209   5.926   2.677   2.914
16656WAT     H150210   5.878   2.679   2.827
16656WAT     H250211   5.899   2.596   2.966
16657WAT      O50212   5.695   0.316   5.177
16657WAT     H150213   5.698   0.220   5.149
16657WAT     H250214   5.705   0.322   5.276
16658WAT      O50215   1.950   1.743   6.190
16658WAT     H150216   2.011   1.664   6.195
16658WAT     H250217   1.858   1.713   6.162
16659WAT      O50218   4.729   2.114   7.111
16659WAT     H150219   4.748   2.165   7.195
16659WAT     H250220   4.661   2.163   7.057
16660WAT      O50221   4.924   3.246   1.548
16660WAT     H150222   4.849   3.181   1.562
16660WAT     H250223   4.922   3.315   1.621
16661WAT      O50224   9.651   3.499   6.934
16661WAT     H150225   9.571   3.557   6.952
16661WAT     H250226   9.622   3.417   6.885
16662WAT      O50227   4.110   6.625   7.475
16662WAT     H150228   4.109   6.574   7.389
16662WAT     H250229   4.180   6.697   7.470
16663WAT      O50230   0.954   1.234   1.571
16663WAT     H150231   0.867   1.223   1.522
16663WAT     H250232   1.005   1.311   1.533
16664WAT      O50233   9.409   7.451   3.183
16664WAT     H150234   9.488   7.512   3.180
16664WAT     H250235   9.386   7.420   3.091
16665WAT      O50236   9.810   2.743   8.332
16665WAT     H150237   9.715   2.712   8.330
16665WAT     H250238   9.860   2.701   8.257
16666WAT      O50239   3.119   6.810   2.079
16666WAT     H150240   3.076   6.785   1.992
16666WAT     H250241   3.158   6.902   2.071
16667WAT      O50242   7.984   1.135   1.276
16667WAT     H150243   7.893   1.125   1.234
16667WAT     H250244   8.038   1.199   1.222
16668WAT      O50245   0.338   5.604   4.074
16668WAT     H150246   0.360   5.701   4.079
16668WAT     H250247   0.277   5.580   4.150
16669WAT      O50248   9.407   3.814   8.616
16669WAT     H150249   9.460   3.895   8.639
16669WAT     H250250   9.371   3.822   8.524
16670WAT      O50251   7.775   7.275   3.769
16670WAT     H150252   7.748   7.203   3.705
16670WAT     H250253   7.705   7.286   3.839
16671WAT      O50254   6.194   1.399   6.426
16671WAT     H150255   6.213   1.496   6.418
16671WAT     H250256   6.280   1.348   6.425
16672WAT      O50257   7.868   3.484   0.353
16672WAT     H150258   7.867   3.563   0.414
16672WAT     H250259   7.780   3.477   0.306
16673WAT      O50260   3.773   0.572   7.669
16673WAT     H150261   3.851   0.616   7.714
16673WAT     H250262   3.689   0.618   7.697
16674WAT      O50263   3.789   0.145   8.625
16674WAT     H150264   3.739   0.113   8.544
16674WAT     H250265   3.727   0.147   8.703
16675WAT      O50266   1.280   4.745   2.688
16675WAT     H150267   1.185   4.715   2.679
16675WAT     H250268   1.325   4.690   2.758
16676WAT      O50269   2.088   1.552   8.265
16676WAT     H150270   2.014   1.618   8.275
16676WAT     H250271   2.056   1.462   8.292
16677WAT      O50272   9.068   3.134   3.819
16677WAT     H150273   9.139   3.205   3.818
16677WAT     H250274   9.045   3.112   3.914
16678WAT      O50275   8.544   8.382   8.539
16678WAT     H150276   8.620   8.445   8.526
16678WAT     H250277   8.465   8.414   8.486
16679WAT      O50278   2.469   7.785   9.269
16679WAT     H150279   2.506   7.788   9.177
16679WAT     H250280   2.537   7.748   9.332
16680WAT      O50281   8.426   8.906   6.323
16680WAT     H150282   8.465   8.834   6.265
16680WAT     H250283   8.427   8.993   6.273
16681WAT      O50284   9.362   9.507   9.529
16681WAT     H150285   9.349   9.606   9.527
16681WAT     H250286   9.407   9.478   9.445
16682WAT      O50287   6.174   1.615   7.278
16682WAT     H150288   6.098   1.651   7.334
16682WAT     H250289   6.138   1.576   7.194
16683WAT      O50290   8.611   5.883   7.776
16683WAT     H150291   8.598   5.784   7.773
16683WAT     H250292   8.654   5.908   7.863
16684WAT      O50293   8.651   0.168   6.641
16684WAT     H150294   8.699   0.173   6.554
16684WAT     H250295   8.564   0.216   6.634
16685WAT      O50296   9.159   5.589   6.413
16685WAT     H150297   9.088   5.655   6.436
16685WAT     H250298   9.168   5.523   6.488
16686WAT      O50299   5.925   7.410   2.391
16686WAT     H150300   6.001   7.346   2.383
16686WAT     H250301   5.951   7.485   2.452
16687WAT      O50302   4.120   9.402   9.821
16687WAT     H150303   4.033   9.357   9.804
16687WAT     H250304   4.193   9.351   9.774
16688WAT      O50305   5.687   3.354   2.823
16688WAT     H150306   5.676   3.396   2.733
16688WAT     H250307   5.624   3.277   2.832
16689WAT      O50308   1.660   8.906   1.828
16689WAT     H150309   1.704   8.818   1.812
16689WAT     H250310   1.630   8.945   1.741
16690WAT      O50311   8.999   8.313   3.592
16690WAT     H150312   8.985   8.384   3.523
16690WAT     H250313   8.927   8.244   3.584
16691WAT      O50314   0.969   5.701   3.690
16691WAT     H150315   1.039   5.655   3.744
16691WAT     H250316   0.927   5.636   3.627
16692WAT      O50317   6.143   8.376   1.520
16692WAT     H150318   6.177   8.364   1.613
16692WAT     H250319   6.048   8.407   1.523
16693WAT      O50320   7.351   9.348   3.342
16693WAT     H150321   7.398   9.370   3.427
16693WAT     H250322   7.417   9.337   3.268
16694WAT      O50323   0.160   4.764   7.022
16694WAT     H150324   0.109   4.841   6.984
16694WAT     H250325   0.103   4.717   7.090
16695WAT      O50326   8.293   5.431   1.480
16695WAT     H150327   8.370   5.404   1.537
16695WAT     H250328   8.252   5.514   1.517
16696WAT      O50329   8.826   8.049   5.577
16696WAT     H150330   8.749   8.035   5.514
16696WAT     H250331   8.909   8.069   5.524
16697WAT      O50332   7.842   4.604   8.953
16697WAT     H150333   7.821   4.507   8.942
16697WAT     H250334   7.769   4.658   8.911
16698WAT      O50335   9.407   5.208   2.028
16698WAT     H150336   9.336   5.221   1.959
16698WAT     H250337   9.466   5.132   2.001
16699WAT      O50338   6.697   6.111   8.297
16699WAT     H150339   6.612   6.107   8.245
16699WAT     H250340   6.677   6.144   8.390
16700WAT      O50341   8.303   5.395   8.089
16700WAT     H150342   8.302   5.409   7.990
16700WAT     H250343   8.269   5.477   8.135
16701WAT      O50344   4.480   5.448   1.505
16701WAT     H150345   4.483   5.547   1.517
16701WAT     H250346   4.560   5.407   1.548
16702WAT      O50347   8.683   9.827   1.847
16702WAT     H150348   8.771   9.783   1.865
16702WAT     H250349   8.699   9.920   1.813
16703WAT      O50350   5.401   7.258   6.000
16703WAT     H150351   5.500   7.262   5.984
16703WAT     H250352   5.355   7.230   5.916
16704WAT      O50353   8.358   7.586   4.964
16704WAT     H150354   8.439   7.617   5.014
16704WAT     H250355   8.296   7.540   5.027
16705WAT      O50356   7.854   1.988   0.408
16705WAT     H150357   7.849   2.039   0.494
16705WAT     H250358   7.929   1.922   0.412
16706WAT      O50359   5.842   2.373   7.007
16706WAT     H150360   5.824   2.468   7.033
16706WAT     H250361   5.763   2.316   7.030
16707WAT      O50362   4.654   2.025   8.454
16707WAT     H150363   4.686   2.098   8.392
16707WAT     H250364   4.684   2.045   8.547
16708WAT      O50365   1.516   9.777   5.202
16708WAT     H150366   1.511   9.858   5.143
16708WAT     H250367   1.461   9.704   5.162
16709WAT      O50368   6.909   4.248   5.620
16709WAT     H150369   6.938   4.316   5.553
16709WAT     H250370   6.989   4.201   5.657
16710WAT      O50371   0.896   0.786   9.497
16710WAT     H150372   0.806   0.774   9.540
16710WAT     H250373   0.967   0.773   9.566
16711WAT      O50374   7.615   6.000   1.565
16711WAT     H150375   7.669   6.048   1.635
16711WAT     H250376   7.663   5.917   1.537
16712WAT      O50377   3.079   2.178   6.337
16712WAT     H150378   3.113   2.204   6.427
16712WAT     H250379   3.010   2.107   6.346
16713WAT      O50380   6.020   7.810   4.544
16713WAT     H150381   6.097   7.765   4.590
16713WAT     H250382   5.949   7.742   4.526
16714WAT      O50383   2.686   1.352   0.275
16714WAT     H150384   2.614   1.386   0.214
16714WAT     H250385   2.684   1.252   0.275
16715WAT      O50386   7.097   9.605   8.327
16715WAT     H150387   7.193   9.631   8.321
16715WAT     H250388   7.068   9.609   8.423
16716WAT      O50389   6.470   0.502   7.949
16716WAT     H150390   6.523   0.587   7.940
16716WAT     H250391   6.453   0.484   8.046
16717WAT      O50392   6.473   4.507   8.734
16717WAT     H150393   6.520   4.577   8.787
16717WAT     H250394   6.513   4.417   8.753
16718WAT      O50395   6.778   6.551   6.709
16718WAT     H150396   6.837   6.483   6.753
16718WAT     H250397   6.759   6.625   6.772
16719WAT      O50398   8.378   4.191   2.201
16719WAT     H150399   8.425   4.266   2.154
16719WAT     H250400   8.392   4.201   2.300
16720WAT      O50401   1.166   7.743   5.089
16720WAT     H150402   1.254   7.721   5.131
16720WAT     H250403   1.143   7.838   5.108
16721WAT      O50404   7.374   8.823   6.526
16721WAT     H150405   7.339   8.843   6.618
16721WAT     H250406   7.316   8.866   6.458
16722WAT      O50407   3.340   1.011   0.351
16722WAT     H150408   3.250   1.054   0.348
16722WAT     H250409   3.348   0.958   0.435
16723WAT      O50410   3.571   7.347   2.333
16723WAT     H150411   3.547   7.441   2.355
16723WAT     H250412   3.499   7.306   2.277
16724WAT      O50413   3.701   7.847   6.497
16724WAT     H150414   3.726   7.751   6.500
16724WAT     H250415   3.605   7.856   6.470
16725WAT      O50416   4.302   6.703   5.730
16725WAT     H150417   4.299   6.649   5.815
16725WAT     H250418   4.387   6.756   5.727
16726WAT      O50419   3.102   0.093   7.880
16726WAT     H150420   3.059   0.003   7.881
16726WAT     H250421   3.156   0.103   7.797
16727WAT      O50422   7.144   6.955   5.849
16727WAT     H150423   7.100   6.984   5.934
16727WAT     H250424   7.196   7.031   5.810
16728WAT      O50425   0.113   5.668   7.258
16728WAT     H150426   0.176   5.616   7.200
16728WAT     H250427   0.131   5.766   7.247
16729WAT      O50428   3.957   4.952   2.583
16729WAT     H150429   3.971   5.050   2.594
16729WAT     H250430   3.859   4.932   2.578
16730WAT      O50431   4.767   8.199   2.093
16730WAT     H150432   4.692   8.221   2.156
16730WAT     H250433   4.784   8.100   2.096
16731WAT      O50434   3.309   9.599   0.944
16731WAT     H150435   3.307   9.643   0.854
16731WAT     H250436   3.246   9.522   0.945
16732WAT      O50437   9.042   4.776   5.680
16732WAT     H150438   9.088   4.698   5.638
16732WAT     H250439   9.043   4.765   5.780
16733WAT      O50440   4.326   1.313   3.923
16733WAT     H150441   4.388   1.312   3.844
16733WAT     H250442   4.303   1.408   3.946
16734WAT      O50443   6.342   2.802   7.528
16734WAT     H150444   6.330   2.816   7.627
16734WAT     H250445   6.254   2.783   7.486
16735WAT      O50446   7.110   0.849   5.598
16735WAT     H150447   7.204   0.882   5.585
16735WAT     H250448   7.097   0.766   5.544
16736WAT      O50449   2.072   0.306   2.814
16736WAT     H150450   2.033   0.296   2.723
16736WAT     H250451   2.079   0.403   2.837
16737WAT      O50452   6.995   3.287   1.232
16737WAT     H150453   6.995   3.360   1.164
16737WAT     H250454   7.067   3.304   1.299
16738WAT      O50455   2.635   3.898   4.144
16738WAT     H150456   2.629   3.890   4.044
16738WAT     H250457   2.556   3.949   4.178
16739WAT      O50458   2.665   7.969   8.549
16739WAT     H150459   2.663   7.964   8.649
16739WAT     H250460   2.571   7.961   8.514
16740WAT      O50461   1.427   5.065   4.211
16740WAT     H150462   1.420   5.164   4.215
16740WAT     H250463   1.436   5.028   4.304
16741WAT      O50464   6.704   2.404   0.956
16741WAT     H150465   6.774   2.420   1.026
16741WAT     H250466   6.682   2.491   0.911
16742WAT      O50467   3.458   2.770   5.116
16742WAT     H150468   3.508   2.856   5.112
16742WAT     H250469   3.403   2.759   5.033
16743WAT      O50470   8.151   4.088   0.518
16743WAT     H150471   8.071   4.101   0.576
16743WAT     H250472   8.226   4.049   0.572
16744WAT      O50473   3.605   0.359   5.792
16744WAT     H150474   3.597   0.345   5.891
16744WAT     H250475   3.596   0.272   5.745
16745WAT      O50476   7.944   8.228   7.450
16745WAT     H150477   7.863   8.205   7.503
16745WAT     H250478   7.946   8.327   7.432
16746WAT      O50479   1.870   5.793   3.612
16746WAT     H150480   1.778   5.831   3.596
16746WAT     H250481   1.897   5.737   3.534
16747WAT      O50482   7.756   5.292   6.818
16747WAT     H150483   7.695   5.298   6.739
16747WAT     H250484   7.719   5.225   6.883
16748WAT      O50485   6.967   0.277   8.246
16748WAT     H150486   6.967   0.218   8.327
16748WAT     H250487   6.913   0.359   8.265
16749WAT      O50488   9.547   5.538   2.637
16749WAT     H150489   9.479   5.548   2.565
16749WAT     H250490   9.522   5.462   2.697
16750WAT      O50491   2.678   7.723   5.412
16750WAT     H150492   2.741   7.658   5.453
16750WAT     H250493   2.729   7.805   5.383
16751WAT      O50494   8.253   1.401   8.295
16751WAT     H150495   8.187   1.333   8.263
16751WAT     H250496   8.290   1.450   8.216
16752WAT      O50497   4.304   1.993   2.434
16752WAT     H150498   4.381   2.055   2.421
16752WAT     H250499   4.218   2.043   2.425
16753WAT      O50500   8.496   6.136   6.540
16753WAT     H150501   8.585   6.179   6.553
16753WAT     H250502   8.463   6.154   6.447
16754WAT      O50503   6.215   9.377   5.859
16754WAT     H150504   6.278   9.304   5.834
16754WAT     H250505   6.121   9.348   5.844
16755WAT      O50506   6.904   0.675   8.257
16755WAT     H150507   6.951   0.713   8.177
16755WAT     H250508   6.827   0.619   8.227
16756WAT      O50509   9.612   2.654   2.345
16756WAT     H150510   9.659   2.711   2.412
16756WAT     H250511   9.675   2.585   2.309
16757WAT      O50512   6.778   5.844   1.926
16757WAT     H150513   6.816   5.891   1.847
16757WAT     H250514   6.819   5.881   2.010
16758WAT      O50515   8.439   8.508   2.963
16758WAT     H150516   8.517   8.454   2.997
16758WAT     H250517   8.426   8.588   3.022
16759WAT      O50518   4.836   0.692   2.572
16759WAT     H150519   4.797   0.782   2.554
16759WAT     H250520   4.781   0.622   2.525
16760WAT      O50521   5.954   1.563   7.772
16760WAT     H150522   5.873   1.522   7.814
16760WAT     H250523   6.035   1.511   7.799
16761WAT      O50524   7.149   9.585   2.959
16761WAT     H150525   7.069   9.593   2.900
16761WAT     H250526   7.189   9.676   2.974
16762WAT      O50527   2.238   2.417   3.934
16762WAT     H150528   2.220   2.515   3.933
16762WAT     H250529   2.296   2.392   3.857
16763WAT      O50530   2.881   0.124   8.318
16763WAT     H150531   2.886   0.026   8.340
16763WAT     H250532   2.874   0.177   8.403
16764WAT      O50533   2.917   7.487   0.971
16764WAT     H150534   2.985   7.444   1.030
16764WAT     H250535   2.915   7.440   0.883
16765WAT      O50536   0.868   4.239   0.944
16765WAT     H150537   0.782   4.259   0.897
16765WAT     H250538   0.849   4.203   1.035
16766WAT      O50539   8.836   3.992   7.170
16766WAT     H150540   8.782   3.909   7.183
16766WAT     H250541   8.894   3.982   7.089
16767WAT      O50542   6.341   2.574   6.753
16767WAT     H150543   6.334   2.512   6.675
16767WAT     H250544   6.426   2.626   6.746
16768WAT      O50545   3.894   4.654   5.089
16768WAT     H150546   3.818   4.600   5.053
16768WAT     H250547   3.969   4.593   5.114
16769WAT      O50548   7.685   7.301   4.838
16769WAT     H150549   7.667   7.232   4.767
16769WAT     H250550   7.647   7.269   4.925
16770WAT      O50551   3.650   1.433   5.320
16770WAT     H150552   3.654   1.358   5.386
16770WAT     H250553   3.724   1.422   5.254
16771WAT      O50554   5.762   7.547   3.644
16771WAT     H150555   5.762   7.517   3.739
16771WAT     H250556   5.721   7.477   3.586
16772WAT      O50557   8.335   0.341   0.275
16772WAT     H150558   8.343   0.286   0.358
16772WAT     H250559   8.261   0.305   0.217
16773WAT      O50560   1.663   1.728   6.439
16773WAT     H150561   1.760   1.702   6.437
16773WAT     H250562   1.629   1.722   6.533
16774WAT      O50563   0.982   5.809   5.186
16774WAT     H150564   0.943   5.718   5.173
16774WAT     H250565   0.915   5.868   5.230
16775WAT      O50566   7.785   4.971   8.034
16775WAT     H150567   7.856   4.928   8.090
16775WAT     H250568   7.773   4.919   7.949
16776WAT      O50569   5.683   2.547   3.171
16776WAT     H150570   5.646   2.602   3.097
16776WAT     H250571   5.613   2.536   3.242
16777WAT      O50572   9.598   8.692   5.478
16777WAT     H150573   9.627   8.785   5.502
16777WAT     H250574   9.527   8.662   5.542
16778WAT      O50575   1.549   8.815   2.245
16778WAT     H150576   1.640   8.800   2.283
16778WAT     H250577   1.550   8.898   2.188
16779WAT      O50578   4.350   7.780   3.029
16779WAT     H150579   4.315   7.872   3.046
16779WAT     H250580   4.422   7.785   2.960
16780WAT      O50581   1.810   3.577   7.391
16780WAT     H150582   1.743   3.611   7.326
16780WAT     H250583   1.839   3.485   7.364
16781WAT      O50584   0.371   5.491   0.093
16781WAT     H150585   0.453   5.488   0.036
16781WAT     H250586   0.396   5.482   0.189
16782WAT      O50587   8.677   8.045   3.111
16782WAT     H150588   8.631   7.963   3.145
16782WAT     H250589   8.770   8.048   3.147
16783WAT      O50590   4.383   9.041   6.528
16783WAT     H150591   4.422   8.950   6.540
16783WAT     H250592   4.365   9.056   6.431
16784WAT      O50593   5.124   4.347   2.371
16784WAT     H150594   5.054   4.392   2.315
16784WAT     H250595   5.113   4.374   2.467
16785WAT      O50596   0.157   8.820   1.599
16785WAT     H150597   0.194   8.748   1.539
16785WAT     H250598   0.202   8.907   1.577
16786WAT      O50599   8.278   7.154   9.187
16786WAT     H150600   8.273   7.134   9.285
16786WAT     H250601   8.246   7.247   9.171
16787WAT      O50602   7.066   8.238   6.492
16787WAT     H150603   6.991   8.244   6.427
16787WAT     H250604   7.106   8.146   6.488
16788WAT      O50605   9.147   6.122   7.636
16788WAT     H150606   9.200   6.074   7.565
16788WAT     H250607   9.094   6.056   7.689
16789WAT      O50608   4.851   1.451   9.371
16789WAT     H150609   4.892   1.524   9.425
16789WAT     H250610   4.845   1.368   9.427
16790WAT      O50611   3.388   4.236   9.224
16790WAT     H150612   3.455   4.308   9.240
16790WAT     H250613   3.361   4.195   9.311
16791WAT      O50614   5.718   9.271   0.110
16791WAT     H150615   5.665   9.209   0.168
16791WAT     H250616   5.814   9.246   0.114
16792WAT      O50617   2.036   2.328   6.628
16792WAT     H150618   1.980   2.289   6.700
16792WAT     H250619   2.124   2.281   6.625
16793WAT      O50620   7.250   7.397   4.827
16793WAT     H150621   7.153   7.409   4.848
16793WAT     H250622   7.268   7.301   4.805
16794WAT      O50623   7.669   2.524   7.328
16794WAT     H150624   7.638   2.497   7.419
16794WAT     H250625   7.711   2.615   7.333
16795WAT      O50626   6.438   8.689   3.187
16795WAT     H150627   6.486   8.773   3.213
16795WAT     H250628   6.422   8.689   3.088
16796WAT      O50629   6.911   4.985   3.749
16796WAT     H150630   6.948   4.918   3.685
16796WAT     H250631   6.818   5.009   3.721
16797WAT      O50632   4.620   9.449   1.527
16797WAT     H150633   4.661   9.362   1.553
16797WAT     H250634   4.536   9.463   1.579
16798WAT      O50635   6.340   8.765   2.926
16798WAT     H150636   6.340   8.865   2.926
16798WAT     H250637   6.254   8.731   2.963
16799WAT      O50638   3.043   8.500   9.430
16799WAT     H150639   2.966   8.518   9.369
16799WAT     H250640   3.050   8.401   9.446
16800WAT      O50641   4.614   3.729   0.927
16800WAT     H150642   4.523   3.686   0.920
16800WAT     H250643   4.609   3.821   0.887
16801WAT      O50644   0.268   6.270   9.749
16801WAT     H150645   0.229   6.283   9.840
16801WAT     H250646   0.327   6.347   9.726
16802WAT      O50647   2.595   3.849   2.674
16802WAT     H150648   2.648   3.764   2.679
16802WAT     H250649   2.635   3.917   2.736
16803WAT      O50650   1.529   3.495   7.188
16803WAT     H150651   1.499   3.459   7.276
16803WAT     H250652   1.498   3.433   7.115
16804WAT      O50653   0.070   2.588   7.026
16804WAT     H150654   0.075   2.521   6.952
16804WAT     H250655   0.103   2.545   7.111
16805WAT      O50656   8.849   4.615   6.037
16805WAT     H150657   8.931   4.662   6.006
16805WAT     H250658   8.847   4.523   5.998
16806WAT      O50659   6.293   2.038   2.829
16806WAT     H150660   6.239   1.987   2.762
16806WAT     H250661   6.242   2.045   2.915
16807WAT      O50662   2.782   9.307   8.658
16807WAT     H150663   2.709   9.238   8.654
16807WAT     H250664   2.868   9.263   8.684
16808WAT      O50665   0.141   1.686   0.735
16808WAT     H150666   0.091   1.766   0.703
16808WAT     H250667   0.077   1.619   0.772
16809WAT      O50668   5.197   6.916   3.926
16809WAT     H150669   5.196   6.849   3.852
16809WAT     H250670   5.106   6.923   3.966
16810WAT      O50671   4.160   6.277   9.745
16810WAT     H150672   4.219   6.208   9.787
16810WAT     H250673   4.065   6.262   9.773
16811WAT      O50674   0.259   9.636   8.526
16811WAT     H150675   0.285   9.572   8.453
16811WAT     H250676   0.284   9.729   8.498
16812WAT      O50677   4.801   3.622   9.188
16812WAT     H150678   4.794   3.688   9.262
16812WAT     H250679   4.711   3.606   9.148
16813WAT      O50680   8.568   9.824   2.897
16813WAT     H150681   8.524   9.913   2.892
16813WAT     H250682   8.667   9.835   2.888
16814WAT      O50683   9.410   7.935   3.729
16814WAT     H150684   9.334   7.875   3.753
16814WAT     H250685   9.487   7.881   3.697
16815WAT      O50686   1.619   8.279   1.600
16815WAT     H150687   1.716   8.258   1.594
16815WAT     H250688   1.607   8.371   1.637
16816WAT      O50689   5.158   1.493   0.874
16816WAT     H150690   5.146   1.545   0.958
16816WAT     H250691   5.252   1.504   0.841
16817WAT      O50692   5.913   3.871   6.516
16817WAT     H150693   5.819   3.906   6.519
16817WAT     H250694   5.936   3.844   6.423
16818WAT      O50695   4.690   7.051   4.910
16818WAT     H150696   4.632   6.986   4.861
16818WAT     H250697   4.665   7.052   5.007
16819WAT      O50698   3.038   0.903   6.859
16819WAT     H150699   3.063   0.968   6.788
16819WAT     H250700   3.011   0.953   6.942
16820WAT      O50701   9.666   3.357   4.321
16820WAT     H150702   9.639   3.420   4.248
16820WAT     H250703   9.634   3.265   4.300
16821WAT      O50704   4.564   4.666   8.316
16821WAT     H150705   4.614   4.722   8.381
16821WAT     H250706   4.552   4.717   8.231
16822WAT      O50707   7.063   7.381   2.792
16822WAT     H150708   7.151   7.420   2.764
16822WAT     H250709   7.078   7.315   2.866
16823WAT      O50710   2.835   4.237   3.640
16823WAT     H150711   2.752   4.287   3.614
16823WAT     H250712   2.827   4.205   3.734
16824WAT      O50713   7.228   8.387   0.685
16824WAT     H150714   7.256   8.341   0.601
16824WAT     H250715   7.309   8.415   0.737
16825WAT      O50716   4.480   7.391   3.569
16825WAT     H150717   4.385   7.416   3.587
16825WAT     H250718   4.523   7.461   3.513
16826WAT      O50719   7.714   2.387   6.767
16826WAT     H150720   7.768   2.388   6.851
16826WAT     H250721   7.623   2.350   6.786
16827WAT      O50722   5.721   8.233   6.343
16827WAT     H150723   5.637   8.213   6.293
16827WAT     H250724   5.772   8.305   6.296
16828WAT      O50725   3.981   4.726   9.805
16828WAT     H150726   3.944   4.641   9.842
16828WAT     H250727   4.030   4.708   9.720
16829WAT      O50728   2.234   6.592   8.447
16829WAT     H150729   2.262   6.560   8.538
16829WAT     H250730   2.298   6.558   8.379
16830WAT      O50731   8.459   0.693   8.535
16830WAT     H150732   8.556   0.715   8.545
16830WAT     H250733   8.412   0.770   8.492
16831WAT      O50734   7.105   1.091   4.149
16831WAT     H150735   7.039   1.145   4.096
16831WAT     H250736   7.077   0.995   4.149
16832WAT      O50737   9.151   0.146   4.490
16832WAT     H150738   9.144   0.152   4.390
16832WAT     H250739   9.155   0.050   4.517
16833WAT      O50740   3.682   4.432   2.535
16833WAT     H150741   3.667   4.337   2.562
16833WAT     H250742   3.777   4.443   2.503
16834WAT      O50743   7.619   9.804   6.624
16834WAT     H150744   7.659   9.817   6.533
16834WAT     H250745   7.589   9.892   6.660
16835WAT      O50746   6.877   7.025   2.982
16835WAT     H150747   6.782   7.055   2.978
16835WAT     H250748   6.913   7.015   2.889
16836WAT      O50749   6.644   2.324   3.453
16836WAT     H150750   6.610   2.386   3.382
16836WAT     H250751   6.678   2.240   3.410
16837WAT      O50752   4.486   1.844   9.386
16837WAT     H150753   4.459   1.841   9.289
16837WAT     H250754   4.433   1.777   9.437
16838WAT      O50755   5.455   8.362   2.710
16838WAT     H150756   5.479   8.430   2.780
16838WAT     H250757   5.356   8.344   2.714
16839WAT      O50758   8.251   3.495   6.241
16839WAT     H150759   8.264   3.414   6.299
16839WAT     H250760   8.253   3.468   6.145
16840WAT      O50761   4.496   6.573   8.571
16840WAT     H150762   4.503   6.672   8.580
16840WAT     H250763   4.554   6.542   8.495
16841WAT      O50764   8.345   0.649   6.891
16841WAT     H150765   8.432   0.617   6.854
16841WAT     H250766   8.325   0.600   6.976
16842WAT      O50767   3.292   9.791   0.338
16842WAT     H150768   3.338   9.704   0.320
16842WAT     H250769   3.193   9.776   0.339
16843WAT      O50770   8.878   2.657   6.904
16843WAT     H150771   8.785   2.626   6.884
16843WAT     H250772   8.898   2.739   6.850
16844WAT      O50773   7.008   0.197   1.453
16844WAT     H150774   7.052   0.238   1.373
16844WAT     H250775   7.001   0.098   1.441
16845WAT      O50776   8.407   8.344   3.674
16845WAT     H150777   8.397   8.245   3.683
16845WAT     H250778   8.496   8.372   3.710
16846WAT      O50779   6.647   7.741   0.882
16846WAT     H150780   6.633   7.660   0.938
16846WAT     H250781   6.745   7.764   0.880
16847WAT      O50782   8.825   7.721   7.451
16847WAT     H150783   8.851   7.703   7.546
16847WAT     H250784   8.774   7.807   7.446
16848WAT      O50785   2.318   7.324   9.080
16848WAT     H150786   2.362   7.336   8.990
16848WAT     H250787   2.270   7.408   9.105
16849WAT      O50788   2.337   7.235   0.603
16849WAT     H150789   2.365   7.300   0.672
16849WAT     H250790   2.283   7.162   0.645
16850WAT      O50791   9.775   7.746   5.407
16850WAT     H150792   9.842   7.817   5.431
16850WAT     H250793   9.808   7.657   5.439
16851WAT      O50794   1.852   0.705   8.279
16851WAT     H150795   1.832   0.668   8.370
16851WAT     H250796   1.947   0.685   8.254
16852WAT      O50797   7.066   3.604   8.158
16852WAT     H150798   7.019   3.692   8.156
16852WAT     H250799   7.054   3.557   8.070
16853WAT      O50800   4.852   8.780   5.538
16853WAT     H150801   4.761   8.819   5.543
16853WAT     H250802   4.866   8.717   5.615
16854WAT      O50803   4.739   3.316   9.605
16854WAT     H150804   4.778   3.401   9.639
16854WAT     H250805   4.656   3.337   9.553
16855WAT      O50806   7.786   6.576   6.337
16855WAT     H150807   7.778   6.575   6.437
16855WAT     H250808   7.765   6.668   6.303
16856WAT      O50809   8.092   2.438   1.597
16856WAT     H150810   8.167   2.498   1.566
16856WAT     H250811   8.012   2.494   1.619
16857WAT      O50812   3.037   9.712   2.146
16857WAT     H150813   2.970   9.786   2.140
16857WAT     H250814   2.998   9.636   2.198
16858WAT      O50815   5.562   3.136   2.780
16858WAT     H150816   5.562   3.156   2.683
16858WAT     H250817   5.588   3.041   2.795
16859WAT      O50818   5.436   8.085   7.181
16859WAT     H150819   5.364   8.090   7.112
16859WAT     H250820   5.468   8.177   7.202
16860WAT      O50821   1.628   3.017   3.834
16860WAT     H150822   1.575   2.991   3.914
16860WAT     H250823   1.603   3.110   3.806
16861WAT      O50824   1.511   8.830   6.721
16861WAT     H150825   1.479   8.879   6.802
16861WAT     H250826   1.611   8.831   6.720
16862WAT      O50827   5.473   0.061   1.395
16862WAT     H150828   5.539   0.126   1.357
16862WAT     H250829   5.477  -0.025   1.344
16863WAT      O50830   9.629   5.900   8.400
16863WAT     H150831   9.664   5.831   8.336
16863WAT     H250832   9.702   5.925   8.465
16864WAT      O50833   0.603   9.298   8.066
16864WAT     H150834   0.615   9.392   8.033
16864WAT     H250835   0.661   9.236   8.013
16865WAT      O50836   6.692   5.960   2.890
16865WAT     H150837   6.734   5.929   2.975
16865WAT     H250838   6.593   5.953   2.897
16866WAT      O50839   7.595   5.258   5.276
16866WAT     H150840   7.653   5.286   5.353
16866WAT     H250841   7.528   5.191   5.307
16867WAT      O50842   6.623   5.023   8.900
16867WAT     H150843   6.530   5.058   8.914
16867WAT     H250844   6.619   4.924   8.886
16868WAT      O50845   8.446   4.545   6.005
16868WAT     H150846   8.443   4.619   6.072
16868WAT     H250847   8.440   4.583   5.913
16869WAT      O50848   3.242   0.928   4.315
16869WAT     H150849   3.220   0.843   4.362
16869WAT     H250850   3.318   0.973   4.362
16870WAT      O50851   5.852   5.794   5.324
16870WAT     H150852   5.819   5.866   5.386
16870WAT     H250853   5.936   5.755   5.360
16871WAT      O50854   5.374   4.401   1.639
16871WAT     H150855   5.349   4.461   1.562
16871WAT     H250856   5.291   4.360   1.676
16872WAT      O50857   4.739   2.542   4.299
16872WAT     H150858   4.826   2.515   4.342
16872WAT     H250859   4.758   2.595   4.216
16873WAT      O50860   2.489   1.542   3.551
16873WAT     H150861   2.482   1.446   3.575
16873WAT     H250862   2.440   1.559   3.466
16874WAT      O50863   7.451   3.554   2.315
16874WAT     H150864   7.485   3.554   2.221
16874WAT     H250865   7.382   3.625   2.326
16875WAT      O50866   1.033   7.307   4.655
16875WAT     H150867   0.990   7.345   4.736
16875WAT     H250868   0.999   7.354   4.574
16876WAT      O50869   2.878   8.545   0.596
16876WAT     H150870   2.798   8.554   0.537
16876WAT     H250871   2.858   8.478   0.669
16877WAT      O50872   3.625   1.453   9.645
16877WAT     H150873   3.587   1.507   9.719
16877WAT     H250874   3.724   1.465   9.641
16878WAT      O50875   1.580   4.582   6.578
16878WAT     H150876   1.654   4.634   6.619
16878WAT     H250877   1.598   4.484   6.589
16879WAT      O50878   3.414   9.005   6.286
16879WAT     H150879   3.354   9.084   6.297
16879WAT     H250880   3.415   8.952   6.371
16880WAT      O50881   1.423   0.200   3.628
16880WAT     H150882   1.384   0.261   3.559
16880WAT     H250883   1.486   0.136   3.585
16881WAT      O50884   6.968   8.056   6.028
16881WAT     H150885   7.016   7.994   6.090
16881WAT     H250886   6.929   8.003   5.952
16882WAT      O50887   6.633   0.988   0.539
16882WAT     H150888   6.550   0.932   0.535
16882WAT     H250889   6.664   1.008   0.446
16883WAT      O50890   1.584   4.228   2.571
16883WAT     H150891   1.487   4.232   2.596
16883WAT     H250892   1.597   4.267   2.480
16884WAT      O50893   8.702   0.211   7.995
16884WAT     H150894   8.747   0.299   7.982
16884WAT     H250895   8.603   0.226   8.008
16885WAT      O50896   3.133   7.551   7.696
16885WAT     H150897   3.053   7.492   7.695
16885WAT     H250898   3.105   7.645   7.677
16886WAT      O50899   6.036   5.574   6.861
16886WAT     H150900   6.020   5.627   6.778
16886WAT     H250901   5.951   5.569   6.914
16887WAT      O50902   3.913   3.342   8.111
16887WAT     H150903   3.942   3.414   8.050
16887WAT     H250904   3.873   3.267   8.058
16888WAT      O50905   6.610   8.312   0.182
16888WAT     H150906   6.674   8.384   0.157
16888WAT     H250907   6.548   8.293   0.106
16889WAT      O50908   9.741   7.412   4.751
16889WAT     H150909   9.818   7.364   4.794
16889WAT     H250910   9.704   7.479   4.815
16890WAT      O50911   0.150   1.416   4.019
16890WAT     H150912   0.164   1.317   4.012
16890WAT     H250913   0.107   1.437   4.106
16891WAT      O50914   2.476   6.670   0.511
16891WAT     H150915   2.481   6.654   0.610
16891WAT     H250916   2.380   6.677   0.483
16892WAT      O50917   4.948   4.263   0.992
16892WAT     H150918   4.920   4.183   1.045
16892WAT     H250919   4.901   4.344   1.027
16893WAT      O50920   2.833   9.811   6.423
16893WAT     H150921   2.930   9.830   6.414
16893WAT     H250922   2.805   9.745   6.353
16894WAT      O50923   9.234   5.549   1.546
16894WAT     H150924   9.318   5.603   1.550
16894WAT     H250925   9.230   5.488   1.625
16895WAT      O50926   4.473   0.711   4.079
16895WAT     H150927   4.391   0.706   4.135
16895WAT     H250928   4.495   0.620   4.044
16896WAT      O50929   1.396   9.418   0.562
16896WAT     H150930   1.338   9.458   0.633
16896WAT     H250931   1.457   9.488   0.525
16897WAT      O50932   6.884   8.373   9.069
16897WAT     H150933   6.956   8.340   9.130
16897WAT     H250934   6.886   8.320   8.984
16898WAT      O50935   7.209   2.640   9.395
16898WAT     H150936   7.219   2.691   9.480
16898WAT     H250937   7.288   2.579   9.383
16899WAT      O50938   3.054   9.441   7.868
16899WAT     H150939   2.974   9.424   7.811
16899WAT     H250940   3.100   9.354   7.888
16900WAT      O50941   3.396   0.259   8.986
16900WAT     H150942   3.333   0.235   9.061
16900WAT     H250943   3.372   0.350   8.951
16901WAT      O50944   0.542   6.746   4.144
16901WAT     H150945   0.594   6.664   4.121
16901WAT     H250946   0.518   6.795   4.060
16902WAT      O50947   6.144   2.452   8.998
16902WAT     H150948   6.174   2.389   8.927
16902WAT     H250949   6.110   2.536   8.954
16903WAT      O50950   3.440   1.939   6.476
16903WAT     H150951   3.507   1.897   6.415
16903WAT     H250952   3.486   1.977   6.556
16904WAT      O50953   8.726   1.505   7.229
16904WAT     H150954   8.730   1.572   7.155
16904WAT     H250955   8.776   1.540   7.308
16905WAT      O50956   5.053   6.955   5.836
16905WAT     H150957   5.013   6.892   5.770
16905WAT     H250958   5.047   6.916   5.928
16906WAT      O50959   9.061   3.784   5.081
16906WAT     H150960   9.045   3.871   5.126
16906WAT     H250961   9.108   3.721   5.143
16907WAT      O50962   3.910   4.992   5.465
16907WAT     H150963   3.839   4.924   5.483
16907WAT     H250964   3.999   4.957   5.494
16908WAT      O50965   6.479   8.686   0.700
16908WAT     H150966   6.465   8.770   0.754
16908WAT     H250967   6.441   8.699   0.608
16909WAT      O50968   7.243   3.883   8.561
16909WAT     H150969   7.242   3.936   8.476
16909WAT     H250970   7.226   3.786   8.539
16910WAT      O50971   5.205   5.485   1.040
16910WAT     H150972   5.230   5.552   1.109
16910WAT     H250973   5.176   5.532   0.956
16911WAT      O50974   5.968   5.108   3.152
16911WAT     H150975   6.038   5.054   3.105
16911WAT     H250976   5.983   5.205   3.135
16912WAT      O50977   8.914   6.448   7.397
16912WAT     H150978   8.976   6.467   7.321
16912WAT     H250979   8.966   6.417   7.476
16913WAT      O50980   0.093   9.346   0.168
16913WAT     H150981   0.013   9.391   0.207
16913WAT     H250982   0.100   9.368   0.071
16914WAT      O50983   6.839   7.812   9.789
16914WAT     H150984   6.746   7.819   9.753
16914WAT     H250985   6.855   7.888   9.853
16915WAT      O50986   2.631   0.285   2.684
16915WAT     H150987   2.709   0.224   2.677
16915WAT     H250988   2.547   0.231   2.695
16916WAT      O50989   3.519   2.329   4.165
16916WAT     H150990   3.576   2.324   4.247
16916WAT     H250991   3.537   2.251   4.106
16917WAT      O50992   7.813   2.802   4.869
16917WAT     H150993   7.766   2.809   4.782
16917WAT     H250994   7.829   2.893   4.907
16918WAT      O50995   8.161   6.879   2.520
16918WAT     H150996   8.194   6.822   2.444
16918WAT     H250997   8.206   6.968   2.516
16919WAT      O50998   7.135   7.046   4.128
16919WAT     H150999   7.141   7.128   4.184
16919WAT     H251000   7.061   6.987   4.162
16920WAT      O51001   8.590   0.447   5.190
16920WAT     H151002   8.545   0.437   5.101
16920WAT     H251003   8.554   0.528   5.237
16921WAT      O51004   5.448   5.462   8.240
16921WAT     H151005   5.376   5.484   8.306
16921WAT     H251006   5.422   5.380   8.189
16922WAT      O51007   1.322   5.987   2.883
16922WAT     H151008   1.262   5.959   2.959
16922WAT     H251009   1.376   5.909   2.853
16923WAT      O51010   8.665   5.261   9.503
16923WAT     H151011   8.687   5.355   9.531
16923WAT     H251012   8.582   5.262   9.447
16924WAT      O51013   4.873   1.904   6.483
16924WAT     H151014   4.955   1.906   6.540
16924WAT     H251015   4.793   1.932   6.537
16925WAT      O51016   1.993   6.490   4.513
16925WAT     H151017   2.012   6.573   4.565
16925WAT     H251018   2.049   6.489   4.430
16926WAT      O51019   3.879   2.214   3.321
16926WAT     H151020   3.794   2.213   3.269
16926WAT     H251021   3.917   2.307   3.322
16927WAT      O51022   4.988   0.346   6.906
16927WAT     H151023   5.081   0.344   6.942
16927WAT     H251024   4.936   0.268   6.943
16928WAT      O51025   3.426   7.830   2.977
16928WAT     H151026   3.342   7.806   3.024
16928WAT     H251027   3.405   7.863   2.885
16929WAT      O51028   3.642   7.159   8.682
16929WAT     H151029   3.741   7.162   8.665
16929WAT     H251030   3.625   7.110   8.768
16930WAT      O51031   3.334   9.402   2.764
16930WAT     H151032   3.382   9.317   2.742
16930WAT     H251033   3.374   9.443   2.846
16931WAT      O51034   5.843   2.308   7.548
16931WAT     H151035   5.750   2.315   7.513
16931WAT     H251036   5.903   2.368   7.496
16932WAT      O51037   1.495   6.548   4.378
16932WAT     H151038   1.441   6.598   4.310
16932WAT     H251039   1.569   6.499   4.331
16933WAT      O51040   3.352   7.086   9.210
16933WAT     H151041   3.311   6.996   9.227
16933WAT     H251042   3.322   7.121   9.122
16934WAT      O51043   3.793   2.439   6.611
16934WAT     H151044   3.787   2.386   6.527
16934WAT     H251045   3.889   2.461   6.630
16935WAT      O51046   6.287   6.613   7.663
16935WAT     H151047   6.340   6.613   7.748
16935WAT     H251048   6.257   6.520   7.642
16936WAT      O51049   7.903   8.895   8.956
16936WAT     H151050   7.896   8.994   8.965
16936WAT     H251051   7.988   8.871   8.909
16937WAT      O51052   5.078   2.560   7.072
16937WAT     H151053   5.027   2.481   7.108
16937WAT     H251054   5.172   2.556   7.104
16938WAT      O51055   6.621   0.971   6.701
16938WAT     H151056   6.525   0.964   6.674
16938WAT     H251057   6.631   0.954   6.799
16939WAT      O51058   1.100   9.610   4.211
16939WAT     H151059   1.123   9.525   4.257
16939WAT     H251060   1.014   9.645   4.248
16940WAT      O51061   9.239   5.653   2.813
16940WAT     H151062   9.336   5.666   2.837
16940WAT     H251063   9.206   5.568   2.854
16941WAT      O51064   8.959   4.329   5.469
16941WAT     H151065   8.878   4.360   5.418
16941WAT     H251066   8.932   4.296   5.559
16942WAT      O51067   0.573   2.499   1.223
16942WAT     H151068   0.634   2.534   1.294
16942WAT     H251069   0.570   2.399   1.227
16943WAT      O51070   6.844   2.830   7.933
16943WAT     H151071   6.916   2.840   8.003
16943WAT     H251072   6.838   2.913   7.879
16944WAT      O51073   8.676   2.160   5.832
16944WAT     H151074   8.715   2.246   5.800
16944WAT     H251075   8.716   2.084   5.780
16945WAT      O51076   6.260   8.866   4.803
16945WAT     H151077   6.225   8.823   4.887
16945WAT     H251078   6.309   8.797   4.749
16946WAT      O51079   1.026   1.610   5.135
16946WAT     H151080   0.956   1.674   5.104
16946WAT     H251081   1.016   1.594   5.234
16947WAT      O51082   5.610   2.899   5.941
16947WAT     H151083   5.587   2.886   5.845
16947WAT     H251084   5.526   2.902   5.995
16948WAT      O51085   0.098   3.755   2.797
16948WAT     H151086   0.178   3.787   2.746
16948WAT     H251087   0.029   3.723   2.732
16949WAT      O51088   0.460   5.923   3.478
16949WAT     H151089   0.421   5.960   3.563
16949WAT     H251090   0.433   5.827   3.469
16950WAT      O51091   2.173   1.777   2.105
16950WAT     H151092   2.122   1.691   2.109
16950WAT     H251093   2.118   1.851   2.143
16951WAT      O51094   9.815   9.503   0.334
16951WAT     H151095   9.760   9.579   0.300
16951WAT     H251096   9.826   9.511   0.433
16952WAT      O51097   1.437   7.334   5.561
16952WAT     H151098   1.444   7.432   5.579
16952WAT     H251099   1.405   7.286   5.643
16953WAT      O51100   4.713   0.964   8.689
16953WAT     H151101   4.775   0.902   8.737
16953WAT     H251102   4.759   1.052   8.674
16954WAT      O51103   2.217   9.536   5.366
16954WAT     H151104   2.189   9.470   5.437
16954WAT     H251105   2.180   9.626   5.388
16955WAT      O51106   9.513   1.119   5.425
16955WAT     H151107   9.572   1.198   5.444
16955WAT     H251108   9.450   1.142   5.352
16956WAT      O51109   1.117   4.582   3.898
16956WAT     H151110   1.100   4.509   3.965
16956WAT     H251111   1.181   4.648   3.937
16957WAT      O51112   8.052   1.025   9.835
16957WAT     H151113   8.091   1.040   9.926
16957WAT     H251114   8.082   0.937   9.800
16958WAT      O51115   5.581   1.239   5.201
16958WAT     H151116   5.669   1.239   5.248
16958WAT     H251117   5.535   1.326   5.217
16959WAT      O51118   8.102   3.567   2.152
16959WAT     H151119   8.137   3.653   2.115
16959WAT     H251120   8.142   3.491   2.101
16960WAT      O51121   8.579   3.523   7.073
16960WAT     H151122   8.527   3.440   7.095
16960WAT     H251123   8.572   3.542   6.975
16961WAT      O51124   4.304   0.232   7.539
16961WAT     H151125   4.309   0.287   7.456
16961WAT     H251126   4.275   0.290   7.615
16962WAT      O51127   4.931   8.329   1.092
16962WAT     H151128   4.921   8.315   0.994
16962WAT     H251129   4.999   8.401   1.109
16963WAT      O51130   9.046   7.562   7.992
16963WAT     H151131   9.050   7.463   7.985
16963WAT     H251132   9.134   7.601   7.962
16964WAT      O51133   6.786   1.969   4.109
16964WAT     H151134   6.811   1.874   4.126
16964WAT     H251135   6.690   1.974   4.080
16965WAT      O51136   1.139   6.933   7.067
16965WAT     H151137   1.108   6.954   7.159
16965WAT     H251138   1.222   6.877   7.072
16966WAT      O51139   6.031   6.631   8.050
16966WAT     H151140   5.979   6.593   8.126
16966WAT     H251141   6.115   6.673   8.085
16967WAT      O51142   3.959   5.851   9.827
16967WAT     H151143   3.884   5.865   9.892
16967WAT     H251144   3.922   5.817   9.740
16968WAT      O51145   5.876   7.293   6.690
16968WAT     H151146   5.846   7.379   6.730
16968WAT     H251147   5.810   7.264   6.621
16969WAT      O51148   8.055   9.845   1.947
16969WAT     H151149   8.055   9.748   1.924
16969WAT     H251150   8.132   9.865   2.008
16970WAT      O51151   8.581   4.748   1.685
16970WAT     H151152   8.672   4.770   1.721
16970WAT     H251153   8.570   4.649   1.679
16971WAT      O51154   2.083   6.179   9.429
16971WAT     H151155   2.134   6.199   9.346
16971WAT     H251156   1.996   6.135   9.406
16972WAT      O51157   0.771   7.823   5.827
16972WAT     H151158   0.701   7.769   5.873
16972WAT     H251159   0.757   7.920   5.845
16973WAT      O51160   9.516   8.201   0.786
16973WAT     H151161   9.428   8.249   0.780
16973WAT     H251162   9.508   8.124   0.848
16974WAT      O51163   6.662   8.040   0.171
16974WAT     H151164   6.566   8.013   0.183
16974WAT     H251165   6.668   8.140   0.171
16975WAT      O51166   4.084   7.476   6.083
16975WAT     H151167   4.135   7.433   6.008
16975WAT     H251168   4.072   7.573   6.063
16976WAT      O51169   9.215   0.536   7.159
16976WAT     H151170   9.303   0.572   7.128
16976WAT     H251171   9.208   0.439   7.136
16977WAT      O51172   0.209   9.091   1.138
16977WAT     H151173   0.132   9.046   1.183
16977WAT     H251174   0.267   9.022   1.094
16978WAT      O51175   2.684   3.769   9.153
16978WAT     H151176   2.604   3.715   9.180
16978WAT     H251177   2.763   3.708   9.142
16979WAT      O51178   3.464   1.449   6.961
16979WAT     H151179   3.426   1.385   6.894
16979WAT     H251180   3.452   1.543   6.927
16980WAT      O51181   2.200   3.805   8.683
16980WAT     H151182   2.182   3.890   8.633
16980WAT     H251183   2.241   3.738   8.622
16981WAT      O51184   9.140   3.307   7.150
16981WAT     H151185   9.085   3.388   7.128
16981WAT     H251186   9.079   3.229   7.163
16982WAT      O51187   0.649   1.475   6.989
16982WAT     H151188   0.562   1.521   6.971
16982WAT     H251189   0.656   1.454   7.086
16983WAT      O51190   1.400   2.363   4.783
16983WAT     H151191   1.351   2.445   4.751
16983WAT     H251192   1.371   2.341   4.876
16984WAT      O51193   8.496   6.737   8.265
16984WAT     H151194   8.568   6.724   8.196
16984WAT     H251195   8.509   6.826   8.310
16985WAT      O51196   3.696   2.820   4.321
16985WAT     H151197   3.662   2.851   4.410
16985WAT     H251198   3.658   2.877   4.248
16986WAT      O51199   4.998   2.934   6.434
16986WAT     H151200   5.094   2.958   6.417
16986WAT     H251201   4.990   2.896   6.527
16987WAT      O51202   3.058   1.198   8.060
16987WAT     H151203   3.094   1.171   7.971
16987WAT     H251204   2.959   1.185   8.061
16988WAT      O51205   4.965   7.640   5.274
16988WAT     H151206   4.919   7.704   5.213
16988WAT     H251207   4.961   7.548   5.236
16989WAT      O51208   3.806   6.323   9.170
16989WAT     H151209   3.855   6.408   9.157
16989WAT     H251210   3.787   6.282   9.080
16990WAT      O51211   8.452   6.669   8.676
16990WAT     H151212   8.418   6.763   8.671
16990WAT     H251213   8.448   6.627   8.586
16991WAT      O51214   0.834   0.872   5.217
16991WAT     H151215   0.786   0.947   5.171
16991WAT     H251216   0.770   0.798   5.237
16992WAT      O51217   7.809   5.208   7.246
16992WAT     H151218   7.817   5.127   7.306
16992WAT     H251219   7.891   5.215   7.189
16993WAT      O51220   3.941   9.764   3.457
16993WAT     H151221   3.994   9.689   3.417
16993WAT     H251222   3.973   9.782   3.550
16994WAT      O51223   7.919   4.497   1.254
16994WAT     H151224   7.826   4.484   1.288
16994WAT     H251225   7.963   4.408   1.242
16995WAT      O51226   5.060   0.710   9.828
16995WAT     H151227   5.147   0.663   9.836
16995WAT     H251228   5.007   0.669   9.754
16996WAT      O51229   4.034   4.083   6.016
16996WAT     H151230   4.043   4.168   5.963
16996WAT     H251231   4.051   4.103   6.113
16997WAT      O51232   7.632   2.164   4.010
16997WAT     H151233   7.543   2.178   4.054
16997WAT     H251234   7.623   2.098   3.935
16998WAT      O51235   3.383   2.044   2.601
16998WAT     H151236   3.313   1.975   2.584
16998WAT     H251237   3.459   2.030   2.537
16999WAT      O51238   8.919   6.418   1.113
16999WAT     H151239   9.010   6.413   1.072
16999WAT     H251240   8.914   6.499   1.172
17000WAT      O51241   8.125   1.647   8.106
17000WAT     H151242   8.098   1.652   8.202
17000WAT     H251243   8.225   1.657   8.099
17001WAT      O51244   0.247   0.859   7.791
17001WAT     H151245   0.257   0.901   7.881
17001WAT     H251246   0.328   0.806   7.769
17002WAT      O51247   3.512   3.824   3.643
17002WAT     H151248   3.419   3.852   3.667
17002WAT     H251249   3.509   3.736   3.594
17003WAT      O51250   8.730   8.617   0.746
17003WAT     H151251   8.822   8.588   0.771
17003WAT     H251252   8.667   8.594   0.820
17004WAT      O51253   7.662   4.028   9.584
17004WAT     H151254   7.583   4.052   9.527
17004WAT     H251255   7.704   3.944   9.549
17005WAT      O51256   0.529   9.815   2.301
17005WAT     H151257   0.507   9.870   2.220
17005WAT     H251258   0.450   9.761   2.327
17006WAT      O51259   6.593   8.236   3.611
17006WAT     H151260   6.660   8.297   3.654
17006WAT     H251261   6.602   8.241   3.512
17007WAT      O51262   8.899   0.461   1.079
17007WAT     H151263   8.888   0.363   1.063
17007WAT     H251264   8.971   0.497   1.020
17008WAT      O51265   0.236   6.793   5.076
17008WAT     H151266   0.267   6.852   5.151
17008WAT     H251267   0.248   6.697   5.102
17009WAT      O51268   0.780   7.792   3.087
17009WAT     H151269   0.684   7.764   3.097
17009WAT     H251270   0.838   7.710   3.090
17010WAT      O51271   7.701   4.346   8.867
17010WAT     H151272   7.639   4.268   8.867
17010WAT     H251273   7.690   4.397   8.782
17011WAT      O51274   0.129   4.409   2.329
17011WAT     H151275   0.139   4.366   2.239
17011WAT     H251276   0.204   4.380   2.388
17012WAT      O51277   6.727   1.989   2.789
17012WAT     H151278   6.775   1.904   2.772
17012WAT     H251279   6.646   1.971   2.846
17013WAT      O51280   4.161   9.109   1.632
17013WAT     H151281   4.182   9.206   1.641
17013WAT     H251282   4.235   9.054   1.672
17014WAT      O51283   6.714   7.598   2.750
17014WAT     H151284   6.756   7.596   2.659
17014WAT     H251285   6.645   7.525   2.756
17015WAT      O51286   2.235   3.192   5.909
17015WAT     H151287   2.264   3.209   5.815
17015WAT     H251288   2.316   3.177   5.966
17016WAT      O51289   3.496   5.119   3.581
17016WAT     H151290   3.553   5.073   3.513
17016WAT     H251291   3.407   5.141   3.540
17017WAT      O51292   2.706   0.042   0.098
17017WAT     H151293   2.610   0.027   0.121
17017WAT     H251294   2.763   0.012   0.174
17018WAT      O51295   2.853   7.148   3.785
17018WAT     H151296   2.944   7.180   3.812
17018WAT     H251297   2.841   7.054   3.817
17019WAT      O51298   3.114   2.579   1.521
17019WAT     H151299   3.087   2.483   1.526
17019WAT     H251300   3.098   2.622   1.610
17020WAT      O51301   9.418   4.099   7.806
17020WAT     H151302   9.484   4.112   7.881
17020WAT     H251303   9.451   4.146   7.725
17021WAT      O51304   3.437   9.692   6.993
17021WAT     H151305   3.514   9.669   7.053
17021WAT     H251306   3.354   9.650   7.030
17022WAT      O51307   6.724   3.182   3.075
17022WAT     H151308   6.651   3.129   3.033
17022WAT     H251309   6.721   3.170   3.174
17023WAT      O51310   0.338   1.719   6.478
17023WAT     H151311   0.348   1.781   6.556
17023WAT     H251312   0.269   1.754   6.416
17024WAT      O51313   6.528   9.256   8.862
17024WAT     H151314   6.482   9.241   8.774
17024WAT     H251315   6.522   9.353   8.886
17025WAT      O51316   9.082   3.826   2.031
17025WAT     H151317   9.098   3.894   1.960
17025WAT     H251318   9.019   3.863   2.099
17026WAT      O51319   3.797   5.256   3.769
17026WAT     H151320   3.702   5.237   3.794
17026WAT     H251321   3.856   5.246   3.849
17027WAT      O51322   3.077   6.596   5.191
17027WAT     H151323   3.085   6.586   5.290
17027WAT     H251324   3.167   6.581   5.149
17028WAT      O51325   3.548   5.050   0.599
17028WAT     H151326   3.505   5.134   0.564
17028WAT     H251327   3.599   5.006   0.525
17029WAT      O51328   1.174   6.101   8.250
17029WAT     H151329   1.080   6.130   8.270
17029WAT     H251330   1.199   6.130   8.158
17030WAT      O51331   8.100   9.332   1.698
17030WAT     H151332   8.030   9.280   1.746
17030WAT     H251333   8.063   9.421   1.671
17031WAT      O51334   5.186   3.865   8.489
17031WAT     H151335   5.107   3.925   8.505
17031WAT     H251336   5.270   3.914   8.513
17032WAT      O51337   7.054   1.717   0.021
17032WAT     H151338   7.073   1.795  -0.039
17032WAT     H251339   6.956   1.697   0.019
17033WAT      O51340   1.213   7.221   9.196
17033WAT     H151341   1.202   7.188   9.102
17033WAT     H251342   1.254   7.313   9.195
17034WAT      O51343   6.934   8.165   7.547
17034WAT     H151344   7.022   8.120   7.563
17034WAT     H251345   6.938   8.214   7.460
17035WAT      O51346   3.168   3.627   6.382
17035WAT     H151347   3.122   3.630   6.293
17035WAT     H251348   3.244   3.691   6.383
17036WAT      O51349   9.838   4.598   2.892
17036WAT     H151350   9.805   4.507   2.869
17036WAT     H251351   9.877   4.597   2.985
17037WAT      O51352   1.583   2.350   5.717
17037WAT     H151353   1.657   2.415   5.699
17037WAT     H251354   1.602   2.299   5.800
17038WAT      O51355   6.580   1.654   5.465
17038WAT     H151356   6.540   1.610   5.545
17038WAT     H251357   6.540   1.745   5.453
17039WAT      O51358   3.078   4.317   8.326
17039WAT     H151359   3.031   4.398   8.362
17039WAT     H251360   3.119   4.339   8.237
17040WAT      O51361   4.942   4.816   8.085
17040WAT     H151362   5.032   4.847   8.054
17040WAT     H251363   4.886   4.791   8.007
17041WAT      O51364   3.004   7.178   0.033
17041WAT     H151365   2.993   7.250   0.102
17041WAT     H251366   3.100   7.172   0.006
17042WAT      O51367   1.935   9.526   4.207
17042WAT     H151368   1.921   9.433   4.240
17042WAT     H251369   1.855   9.581   4.229
17043WAT      O51370   9.554   3.460   7.359
17043WAT     H151371   9.507   3.520   7.293
17043WAT     H251372   9.498   3.452   7.441
17044WAT      O51373   6.918   1.190   0.272
17044WAT     H151374   6.917   1.122   0.199
17044WAT     H251375   6.953   1.148   0.356
17045WAT      O51376   5.747   4.937   0.423
17045WAT     H151377   5.663   4.934   0.478
17045WAT     H251378   5.771   4.844   0.395
17046WAT      O51379   5.271   4.578   0.622
17046WAT     H151380   5.239   4.672   0.632
17046WAT     H251381   5.213   4.517   0.677
17047WAT      O51382   8.301   7.866   5.066
17047WAT     H151383   8.394   7.874   5.102
17047WAT     H251384   8.298   7.791   4.999
17048WAT      O51385   0.338   5.574   1.189
17048WAT     H151386   0.422   5.623   1.163
17048WAT     H251387   0.318   5.505   1.120
17049WAT      O51388   4.742   5.174   5.296
17049WAT     H151389   4.791   5.091   5.269
17049WAT     H251390   4.730   5.233   5.216
17050WAT      O51391   6.098   0.949   8.952
17050WAT     H151392   6.101   1.019   9.024
17050WAT     H251393   6.048   0.983   8.873
17051WAT      O51394   0.565   2.069   5.464
17051WAT     H151395   0.652   2.074   5.414
17051WAT     H251396   0.509   1.996   5.426
17052WAT      O51397   0.012   6.514   8.202
17052WAT     H151398  -0.026   6.443   8.262
17052WAT     H251399   0.112   6.507   8.201
17053WAT      O51400   5.277   3.558   6.911
17053WAT     H151401   5.238   3.484   6.965
17053WAT     H251402   5.358   3.525   6.863
17054WAT      O51403   2.931   7.936   0.686
17054WAT     H151404   2.887   7.941   0.596
17054WAT     H251405   3.017   7.886   0.679
17055WAT      O51406   7.799   3.696   8.418
17055WAT     H151407   7.722   3.657   8.468
17055WAT     H251408   7.796   3.796   8.424
17056WAT      O51409   4.845   9.733   0.036
17056WAT     H151410   4.846   9.768   0.129
17056WAT     H251411   4.851   9.810  -0.028
17057WAT      O51412   5.285   4.378   5.226
17057WAT     H151413   5.263   4.453   5.289
17057WAT     H251414   5.358   4.409   5.164
17058WAT      O51415   4.668   0.107   8.147
17058WAT     H151416   4.613   0.143   8.072
17058WAT     H251417   4.704   0.183   8.201
17059WAT      O51418   7.899   6.671   9.187
17059WAT     H151419   7.955   6.604   9.237
17059WAT     H251420   7.813   6.686   9.237
17060WAT      O51421   2.189   0.351   1.598
17060WAT     H151422   2.249   0.392   1.530
17060WAT     H251423   2.215   0.256   1.614
17061WAT      O51424   7.593   8.936   0.759
17061WAT     H151425   7.689   8.919   0.779
17061WAT     H251426   7.570   8.899   0.669
17062WAT      O51427   7.649   5.797   9.821
17062WAT     H151428   7.585   5.784   9.896
17062WAT     H251429   7.736   5.753   9.843
17063WAT      O51430   1.129   6.620   5.991
17063WAT     H151431   1.066   6.624   5.914
17063WAT     H251432   1.091   6.561   6.062
17064WAT      O51433   1.666   6.003   4.150
17064WAT     H151434   1.673   5.956   4.238
17064WAT     H251435   1.713   5.950   4.080
17065WAT      O51436   3.203   1.700   7.132
17065WAT     H151437   3.170   1.735   7.220
17065WAT     H251438   3.302   1.687   7.136
17066WAT      O51439   8.169   4.879   1.953
17066WAT     H151440   8.221   4.881   2.038
17066WAT     H251441   8.230   4.857   1.877
17067WAT      O51442   3.387   6.439   3.158
17067WAT     H151443   3.474   6.398   3.131
17067WAT     H251444   3.315   6.370   3.154
17068WAT      O51445   8.874   9.216   3.478
17068WAT     H151446   8.810   9.169   3.539
17068WAT     H251447   8.824   9.276   3.416
17069WAT      O51448   1.548   8.140   5.316
17069WAT     H151449   1.501   8.190   5.243
17069WAT     H251450   1.599   8.203   5.373
17070WAT      O51451   1.564   9.121   8.501
17070WAT     H151452   1.517   9.162   8.580
17070WAT     H251453   1.574   9.190   8.429
17071WAT      O51454   8.840   8.626   7.769
17071WAT     H151455   8.887   8.604   7.854
17071WAT     H251456   8.763   8.563   7.756
17072WAT      O51457   4.559   4.766   8.061
17072WAT     H151458   4.479   4.824   8.073
17072WAT     H251459   4.587   4.766   7.965
17073WAT      O51460   9.710   4.634   7.425
17073WAT     H151461   9.633   4.590   7.380
17073WAT     H251462   9.677   4.702   7.491
17074WAT      O51463   6.145   7.936   6.290
17074WAT     H151464   6.068   7.949   6.227
17074WAT     H251465   6.135   7.998   6.368
17075WAT      O51466   4.122   7.978   2.063
17075WAT     H151467   4.064   7.979   2.144
17075WAT     H251468   4.079   7.925   1.991
17076WAT      O51469   1.056   5.741   9.279
17076WAT     H151470   1.010   5.659   9.312
17076WAT     H251471   0.991   5.817   9.274
17077WAT      O51472   7.845   3.532   6.059
17077WAT     H151473   7.776   3.603   6.073
17077WAT     H251474   7.807   3.443   6.083
17078WAT      O51475   1.928   1.108   6.742
17078WAT     H151476   1.858   1.066   6.800
17078WAT     H251477   1.885   1.167   6.674
17079WAT      O51478   8.010   1.833   3.207
17079WAT     H151479   8.057   1.883   3.280
17079WAT     H251480   8.075   1.772   3.161
17080WAT      O51481   3.120   5.241   3.233
17080WAT     H151482   3.054   5.313   3.254
17080WAT     H251483   3.093   5.195   3.149
17081WAT      O51484   4.813   9.363   0.490
17081WAT     H151485   4.751   9.285   0.480
17081WAT     H251486   4.833   9.401   0.399
17082WAT      O51487   3.959   3.052   0.652
17082WAT     H151488   4.036   3.000   0.688
17082WAT     H251489   3.873   3.011   0.684
17083WAT      O51490   4.692   6.029   3.208
17083WAT     H151491   4.619   6.084   3.166
17083WAT     H251492   4.776   6.084   3.213
17084WAT      O51493   4.873   0.302   6.648
17084WAT     H151494   4.810   0.375   6.623
17084WAT     H251495   4.943   0.337   6.710
17085WAT      O51496   4.882   2.470   0.127
17085WAT     H151497   4.979   2.447   0.141
17085WAT     H251498   4.865   2.490   0.031
17086WAT      O51499   9.807   3.747   5.424
17086WAT     H151500   9.710   3.753   5.444
17086WAT     H251501   9.857   3.722   5.507
17087WAT      O51502   6.583   1.484   8.610
17087WAT     H151503   6.501   1.454   8.658
17087WAT     H251504   6.628   1.404   8.569
17088WAT      O51505   5.026   4.275   2.944
17088WAT     H151506   5.011   4.346   3.013
17088WAT     H251507   5.109   4.296   2.893
17089WAT      O51508   8.296   6.101   8.407
17089WAT     H151509   8.222   6.168   8.412
17089WAT     H251510   8.329   6.094   8.313
17090WAT      O51511   9.814   0.986   6.556
17090WAT     H151512   9.806   0.890   6.526
17090WAT     H251513   9.775   0.995   6.647
17091WAT      O51514   1.457   1.976   1.352
17091WAT     H151515   1.453   1.975   1.252
17091WAT     H251516   1.513   2.053   1.382
17092WAT      O51517   4.712   2.639   9.489
17092WAT     H151518   4.664   2.577   9.426
17092WAT     H251519   4.810   2.639   9.469
17093WAT      O51520   2.511   5.184   7.766
17093WAT     H151521   2.488   5.204   7.861
17093WAT     H251522   2.490   5.089   7.745
17094WAT      O51523   0.971   6.611   3.600
17094WAT     H151524   1.064   6.605   3.564
17094WAT     H251525   0.937   6.704   3.587
17095WAT      O51526   0.504   3.640   0.072
17095WAT     H151527   0.519   3.730   0.114
17095WAT     H251528   0.494   3.571   0.143
17096WAT      O51529   8.446   2.177   0.146
17096WAT     H151530   8.491   2.261   0.173
17096WAT     H251531   8.354   2.174   0.185
17097WAT      O51532   0.506   8.559   9.206
17097WAT     H151533   0.462   8.474   9.179
17097WAT     H251534   0.464   8.635   9.156
17098WAT      O51535   5.188   3.436   2.787
17098WAT     H151536   5.235   3.354   2.822
17098WAT     H251537   5.089   3.425   2.799
17099WAT      O51538   3.352   8.679   4.303
17099WAT     H151539   3.400   8.650   4.386
17099WAT     H251540   3.360   8.778   4.292
17100WAT      O51541   4.547   0.881   4.856
17100WAT     H151542   4.573   0.915   4.765
17100WAT     H251543   4.595   0.796   4.874
17101WAT      O51544   5.142   3.504   6.554
17101WAT     H151545   5.236   3.536   6.538
17101WAT     H251546   5.144   3.419   6.607
17102WAT      O51547   3.471   8.299   6.224
17102WAT     H151548   3.385   8.322   6.178
17102WAT     H251549   3.455   8.295   6.323
17103WAT      O51550   2.736   7.189   5.576
17103WAT     H151551   2.826   7.232   5.578
17103WAT     H251552   2.723   7.144   5.488
17104WAT      O51553   6.576   6.296   2.609
17104WAT     H151554   6.541   6.214   2.563
17104WAT     H251555   6.616   6.357   2.542
17105WAT      O51556   7.870   5.066   1.639
17105WAT     H151557   7.923   5.145   1.669
17105WAT     H251558   7.896   5.042   1.546
17106WAT      O51559   9.053   7.007   4.022
17106WAT     H151560   8.963   7.021   3.981
17106WAT     H251561   9.111   7.087   4.002
17107WAT      O51562   5.394   2.490   3.720
17107WAT     H151563   5.415   2.586   3.705
17107WAT     H251564   5.349   2.453   3.638
17108WAT      O51565   4.788   3.114   1.013
17108WAT     H151566   4.856   3.055   0.971
17108WAT     H251567   4.759   3.076   1.101
17109WAT      O51568   8.555   1.237   8.718
17109WAT     H151569   8.504   1.272   8.639
17109WAT     H251570   8.505   1.259   8.802
17110WAT      O51571   9.193   2.731   4.194
17110WAT     H151572   9.189   2.776   4.105
17110WAT     H251573   9.100   2.719   4.230
17111WAT      O51574   2.593   9.604   8.378
17111WAT     H151575   2.604   9.565   8.469
17111WAT     H251576   2.547   9.538   8.319
17112WAT      O51577   8.249   5.415   0.472
17112WAT     H151578   8.156   5.398   0.505
17112WAT     H251579   8.298   5.328   0.465
17113WAT      O51580   8.090   0.425   2.347
17113WAT     H151581   8.001   0.461   2.377
17113WAT     H251582   8.076   0.338   2.299
17114WAT      O51583   3.460   0.881   0.820
17114WAT     H151584   3.453   0.786   0.851
17114WAT     H251585   3.554   0.898   0.788
17115WAT      O51586   7.059   6.787   8.785
17115WAT     H151587   7.027   6.727   8.859
17115WAT     H251588   6.981   6.834   8.744
17116WAT      O51589   9.564   8.632   7.201
17116WAT     H151590   9.492   8.631   7.132
17116WAT     H251591   9.614   8.718   7.195
17117WAT      O51592   8.001   0.869   5.854
17117WAT     H151593   8.029   0.836   5.764
17117WAT     H251594   7.938   0.947   5.842
17118WAT      O51595   4.718   7.667   3.811
17118WAT     H151596   4.727   7.630   3.719
17118WAT     H251597   4.664   7.604   3.868
17119WAT      O51598   6.736   9.759   5.593
17119WAT     H151599   6.830   9.734   5.568
17119WAT     H251600   6.672   9.706   5.537
17120WAT      O51601   4.482   7.796   0.182
17120WAT     H151602   4.555   7.744   0.137
17120WAT     H251603   4.403   7.802   0.121
17121WAT      O51604   6.744   2.923   3.430
17121WAT     H151605   6.801   2.904   3.349
17121WAT     H251606   6.658   2.874   3.421
17122WAT      O51607   7.508   1.672   5.456
17122WAT     H151608   7.443   1.666   5.532
17122WAT     H251609   7.535   1.768   5.443
17123WAT      O51610   0.796   7.700   8.299
17123WAT     H151611   0.704   7.679   8.333
17123WAT     H251612   0.835   7.775   8.352
17124WAT      O51613   9.558   8.076   6.668
17124WAT     H151614   9.593   8.169   6.658
17124WAT     H251615   9.524   8.044   6.580
17125WAT      O51616   2.791   1.429   3.917
17125WAT     H151617   2.783   1.407   3.820
17125WAT     H251618   2.808   1.527   3.928
17126WAT      O51619   6.838   3.301   8.929
17126WAT     H151620   6.861   3.206   8.910
17126WAT     H251621   6.875   3.360   8.857
17127WAT      O51622   3.176   2.095   8.342
17127WAT     H151623   3.175   2.051   8.432
17127WAT     H251624   3.112   2.171   8.341
17128WAT      O51625   2.952   7.910   2.953
17128WAT     H151626   2.954   8.001   2.993
17128WAT     H251627   2.885   7.908   2.878
17129WAT      O51628   7.711   0.201   7.432
17129WAT     H151629   7.798   0.198   7.384
17129WAT     H251630   7.727   0.212   7.530
17130WAT      O51631   7.019   2.085   4.925
17130WAT     H151632   6.991   2.171   4.882
17130WAT     H251633   7.048   2.103   5.019
17131WAT      O51634   1.712   1.095   1.550
17131WAT     H151635   1.799   1.126   1.589
17131WAT     H251636   1.729   1.025   1.481
17132WAT      O51637   2.485   2.542   5.805
17132WAT     H151638   2.396   2.523   5.763
17132WAT     H251639   2.546   2.464   5.793
17133WAT      O51640   9.513   8.510   2.700
17133WAT     H151641   9.466   8.580   2.645
17133WAT     H251642   9.612   8.521   2.691
17134WAT      O51643   6.440   4.125   1.901
17134WAT     H151644   6.489   4.097   1.983
17134WAT     H251645   6.390   4.047   1.863
17135WAT      O51646   4.210   5.525   3.730
17135WAT     H151647   4.262   5.457   3.679
17135WAT     H251648   4.123   5.541   3.684
17136WAT      O51649   8.495   6.428   5.977
17136WAT     H151650   8.594   6.432   5.994
17136WAT     H251651   8.446   6.452   6.061
17137WAT      O51652   4.468   0.327   1.111
17137WAT     H151653   4.396   0.265   1.142
17137WAT     H251654   4.557   0.284   1.122
17138WAT      O51655   0.738   9.498   5.756
17138WAT     H151656   0.645   9.479   5.788
17138WAT     H251657   0.802   9.434   5.798
17139WAT      O51658   7.374   7.487   0.815
17139WAT     H151659   7.446   7.429   0.854
17139WAT     H251660   7.361   7.464   0.719
17140WAT      O51661   2.025   8.637   9.812
17140WAT     H151662   2.093   8.566   9.828
17140WAT     H251663   1.934   8.596   9.809
17141WAT      O51664   2.600   9.376   2.798
17141WAT     H151665   2.626   9.380   2.894
17141WAT     H251666   2.502   9.357   2.791
17142WAT      O51667   9.523   8.705   9.014
17142WAT     H151668   9.620   8.681   9.010
17142WAT     H251669   9.492   8.706   9.109
17143WAT      O51670   1.052   5.271   4.540
17143WAT     H151671   1.122   5.211   4.579
17143WAT     H251672   0.985   5.217   4.489
17144WAT      O51673   3.177   6.634   7.234
17144WAT     H151674   3.237   6.577   7.178
17144WAT     H251675   3.123   6.576   7.295
17145WAT      O51676   6.268   0.509   0.209
17145WAT     H151677   6.348   0.451   0.196
17145WAT     H251678   6.196   0.457   0.256
17146WAT      O51679   0.932   0.045   1.356
17146WAT     H151680   0.922   0.037   1.455
17146WAT     H251681   0.866  -0.014   1.310
17147WAT      O51682   5.070   5.991   0.295
17147WAT     H151683   5.051   5.983   0.197
17147WAT     H251684   5.156   5.944   0.317
17148WAT      O51685   2.923   5.468   5.502
17148WAT     H151686   2.861   5.497   5.575
17148WAT     H251687   2.887   5.500   5.414
17149WAT      O51688   7.888   9.693   8.738
17149WAT     H151689   7.975   9.715   8.694
17149WAT     H251690   7.906   9.643   8.823
17150WAT      O51691   8.379   0.512   8.746
17150WAT     H151692   8.356   0.421   8.711
17150WAT     H251693   8.395   0.574   8.670
17151WAT      O51694   2.420   2.035   6.863
17151WAT     H151695   2.491   1.974   6.829
17151WAT     H251696   2.449   2.075   6.950
17152WAT      O51697   4.843   1.501   2.608
17152WAT     H151698   4.915   1.501   2.539
17152WAT     H251699   4.757   1.470   2.566
17153WAT      O51700   8.402   1.745   1.883
17153WAT     H151701   8.320   1.802   1.890
17153WAT     H251702   8.456   1.755   1.966
17154WAT      O51703   5.649   1.655   6.560
17154WAT     H151704   5.620   1.561   6.577
17154WAT     H251705   5.685   1.663   6.468
17155WAT      O51706   6.336   4.843   4.946
17155WAT     H151707   6.348   4.926   5.000
17155WAT     H251708   6.425   4.809   4.916
17156WAT      O51709   7.903   1.744   7.966
17156WAT     H151710   7.976   1.697   8.016
17156WAT     H251711   7.845   1.793   8.031
17157WAT      O51712   2.976   5.082   0.987
17157WAT     H151713   2.969   5.064   0.889
17157WAT     H251714   3.033   5.163   1.002
17158WAT      O51715   0.986   6.877   0.666
17158WAT     H151716   0.895   6.890   0.706
17158WAT     H251717   1.022   6.966   0.638
17159WAT      O51718   0.080   3.030   2.681
17159WAT     H151719   0.060   3.119   2.723
17159WAT     H251720   0.120   3.044   2.590
17160WAT      O51721   1.944   4.570   9.744
17160WAT     H151722   1.948   4.548   9.842
17160WAT     H251723   1.974   4.492   9.690
17161WAT      O51724   7.252   4.106   1.392
17161WAT     H151725   7.352   4.101   1.394
17161WAT     H251726   7.223   4.187   1.443
17162WAT      O51727   7.235   7.570   2.450
17162WAT     H151728   7.247   7.557   2.548
17162WAT     H251729   7.164   7.508   2.417
17163WAT      O51730   2.180   2.811   5.561
17163WAT     H151731   2.225   2.783   5.476
17163WAT     H251732   2.224   2.894   5.596
17164WAT      O51733   3.434   0.548   9.541
17164WAT     H151734   3.360   0.512   9.597
17164WAT     H251735   3.456   0.482   9.469
17165WAT      O51736   6.786   5.995   0.486
17165WAT     H151737   6.883   5.979   0.503
17165WAT     H251738   6.763   6.090   0.506
17166WAT      O51739   7.753   7.293   1.898
17166WAT     H151740   7.662   7.309   1.861
17166WAT     H251741   7.783   7.375   1.947
17167WAT      O51742   4.128   1.672   3.253
17167WAT     H151743   4.079   1.622   3.325
17167WAT     H251744   4.065   1.695   3.179
17168WAT      O51745   2.546   7.820   6.947
17168WAT     H151746   2.473   7.791   7.009
17168WAT     H251747   2.608   7.881   6.995
17169WAT      O51748   5.571   6.605   2.343
17169WAT     H151749   5.557   6.640   2.250
17169WAT     H251750   5.548   6.508   2.345
17170WAT      O51751   1.128   7.301   5.777
17170WAT     H151752   1.140   7.236   5.852
17170WAT     H251753   1.094   7.253   5.696
17171WAT      O51754   4.164   0.275   5.833
17171WAT     H151755   4.255   0.274   5.876
17171WAT     H251756   4.098   0.317   5.896
17172WAT      O51757   6.426   4.343   2.854
17172WAT     H151758   6.520   4.310   2.845
17172WAT     H251759   6.398   4.339   2.950
17173WAT      O51760   0.441   2.800   0.089
17173WAT     H151761   0.385   2.869   0.135
17173WAT     H251762   0.538   2.817   0.109
17174WAT      O51763   7.604   4.455   1.762
17174WAT     H151764   7.620   4.415   1.672
17174WAT     H251765   7.523   4.513   1.759
17175WAT      O51766   3.787   8.655   1.631
17175WAT     H151767   3.765   8.621   1.539
17175WAT     H251768   3.744   8.596   1.699
17176WAT      O51769   7.154   1.746   7.603
17176WAT     H151770   7.054   1.742   7.607
17176WAT     H251771   7.192   1.725   7.693
17177WAT      O51772   1.289   2.276   3.611
17177WAT     H151773   1.209   2.274   3.550
17177WAT     H251774   1.303   2.368   3.646
17178WAT      O51775   5.589   9.266   4.325
17178WAT     H151776   5.618   9.185   4.376
17178WAT     H251777   5.670   9.321   4.301
17179WAT      O51778   5.075   7.944   5.157
17179WAT     H151779   5.005   7.910   5.220
17179WAT     H251780   5.108   7.870   5.100
17180WAT      O51781   8.650   5.284   0.473
17180WAT     H151782   8.724   5.351   0.462
17180WAT     H251783   8.671   5.223   0.550
17181WAT      O51784   2.206   2.562   5.691
17181WAT     H151785   2.222   2.505   5.610
17181WAT     H251786   2.173   2.652   5.662
17182WAT      O51787   7.052   3.654   2.402
17182WAT     H151788   7.016   3.592   2.332
17182WAT     H251789   7.131   3.703   2.366
17183WAT      O51790   2.438   0.228   8.504
17183WAT     H151791   2.495   0.306   8.528
17183WAT     H251792   2.495   0.156   8.464
17184WAT      O51793   9.605   9.714   7.983
17184WAT     H151794   9.525   9.656   7.967
17184WAT     H251795   9.679   9.659   8.020
17185WAT      O51796   3.787   2.407   7.112
17185WAT     H151797   3.792   2.324   7.057
17185WAT     H251798   3.828   2.391   7.202
17186WAT      O51799   1.493   9.241   1.097
17186WAT     H151800   1.467   9.322   1.045
17186WAT     H251801   1.591   9.226   1.088
17187WAT      O51802   2.427   1.684   0.435
17187WAT     H151803   2.497   1.714   0.371
17187WAT     H251804   2.407   1.587   0.419
17188WAT      O51805   6.318   3.059   7.975
17188WAT     H151806   6.385   3.117   8.021
17188WAT     H251807   6.230   3.105   7.973
17189WAT      O51808   5.015   7.591   6.902
17189WAT     H151809   5.075   7.513   6.881
17189WAT     H251810   4.995   7.593   6.999
17190WAT      O51811   6.159   0.860   3.480
17190WAT     H151812   6.141   0.785   3.417
17190WAT     H251813   6.121   0.944   3.444
17191WAT      O51814   2.215   1.439   7.069
17191WAT     H151815   2.284   1.378   7.109
17191WAT     H251816   2.196   1.513   7.133
17192WAT      O51817   7.007   2.333   1.957
17192WAT     H151818   6.984   2.246   2.001
17192WAT     H251819   6.953   2.343   1.873
17193WAT      O51820   3.125   3.650   9.831
17193WAT     H151821   3.209   3.595   9.836
17193WAT     H251822   3.125   3.718   9.904
17194WAT      O51823   6.875   7.415   9.242
17194WAT     H151824   6.839   7.356   9.170
17194WAT     H251825   6.949   7.368   9.290
17195WAT      O51826   2.377   1.903   4.053
17195WAT     H151827   2.453   1.844   4.082
17195WAT     H251828   2.295   1.880   4.105
17196WAT      O51829   6.568   5.048   1.740
17196WAT     H151830   6.547   5.118   1.672
17196WAT     H251831   6.522   4.962   1.715
17197WAT      O51832   7.962   8.412   3.567
17197WAT     H151833   7.896   8.352   3.612
17197WAT     H251834   8.040   8.427   3.627
17198WAT      O51835   8.532   9.597   6.617
17198WAT     H151836   8.573   9.649   6.542
17198WAT     H251837   8.461   9.652   6.661
17199WAT      O51838   7.888   5.669   5.778
17199WAT     H151839   7.967   5.615   5.807
17199WAT     H251840   7.903   5.705   5.686
17200WAT      O51841   1.121   9.266   6.179
17200WAT     H151842   1.166   9.209   6.110
17200WAT     H251843   1.151   9.360   6.170
17201WAT      O51844   5.712   3.767   0.740
17201WAT     H151845   5.765   3.705   0.797
17201WAT     H251846   5.654   3.825   0.797
17202WAT      O51847   9.154   2.140   5.687
17202WAT     H151848   9.193   2.156   5.596
17202WAT     H251849   9.225   2.153   5.756
17203WAT      O51850   2.737   9.174   2.056
17203WAT     H151851   2.731   9.243   2.128
17203WAT     H251852   2.646   9.137   2.037
17204WAT      O51853   6.101   3.990   0.887
17204WAT     H151854   6.196   4.015   0.870
17204WAT     H251855   6.042   4.069   0.871
17205WAT      O51856   5.003   7.860   9.084
17205WAT     H151857   5.062   7.882   9.006
17205WAT     H251858   5.040   7.900   9.167
17206WAT      O51859   9.273   8.417   7.095
17206WAT     H151860   9.264   8.483   7.170
17206WAT     H251861   9.182   8.397   7.058
17207WAT      O51862   9.439   1.054   2.410
17207WAT     H151863   9.376   0.977   2.417
17207WAT     H251864   9.396   1.129   2.359
17208WAT      O51865   1.513   2.447   0.413
17208WAT     H151866   1.580   2.521   0.401
17208WAT     H251867   1.462   2.435   0.328
17209WAT      O51868   1.024   4.803   9.795
17209WAT     H151869   0.930   4.772   9.806
17209WAT     H251870   1.054   4.849   9.879
17210WAT      O51871   7.016   6.535   1.632
17210WAT     H151872   6.951   6.607   1.606
17210WAT     H251873   6.965   6.453   1.659
17211WAT      O51874   0.020   6.625   1.233
17211WAT     H151875  -0.024   6.564   1.298
17211WAT     H251876   0.065   6.700   1.282
17212WAT      O51877   0.786   8.716   8.187
17212WAT     H151878   0.721   8.674   8.124
17212WAT     H251879   0.755   8.808   8.211
17213WAT      O51880   1.129   9.566   0.452
17213WAT     H151881   1.091   9.519   0.371
17213WAT     H251882   1.228   9.555   0.453
17214WAT      O51883   9.255   4.351   5.721
17214WAT     H151884   9.352   4.357   5.699
17214WAT     H251885   9.203   4.412   5.661
17215WAT      O51886   9.531   9.606   6.630
17215WAT     H151887   9.543   9.679   6.563
17215WAT     H251888   9.471   9.638   6.703
17216WAT      O51889   1.000   2.469   9.083
17216WAT     H151890   1.048   2.556   9.076
17216WAT     H251891   0.910   2.483   9.124
17217WAT      O51892   1.774   2.071   8.069
17217WAT     H151893   1.821   1.984   8.051
17217WAT     H251894   1.676   2.059   8.056
17218WAT      O51895   4.845   1.924   5.888
17218WAT     H151896   4.783   1.863   5.936
17218WAT     H251897   4.933   1.878   5.872
17219WAT      O51898   3.286   7.927   5.602
17219WAT     H151899   3.208   7.968   5.650
17219WAT     H251900   3.284   7.955   5.506
17220WAT      O51901   2.142   6.061   1.453
17220WAT     H151902   2.179   6.148   1.483
17220WAT     H251903   2.078   6.026   1.522
17221WAT      O51904   3.864   9.357   6.802
17221WAT     H151905   3.939   9.328   6.742
17221WAT     H251906   3.803   9.279   6.817
17222WAT      O51907   7.449   7.772   8.538
17222WAT     H151908   7.465   7.841   8.608
17222WAT     H251909   7.355   7.739   8.544
17223WAT      O51910   2.942   2.691   8.582
17223WAT     H151911   2.896   2.765   8.531
17223WAT     H251912   2.901   2.603   8.557
17224WAT      O51913   4.803   7.507   7.354
17224WAT     H151914   4.711   7.544   7.339
17224WAT     H251915   4.798   7.408   7.361
17225WAT      O51916   3.269   7.539   9.443
17225WAT     H151917   3.231   7.448   9.428
17225WAT     H251918   3.323   7.539   9.527
17226WAT      O51919   6.844   5.136   5.980
17226WAT     H151920   6.745   5.124   5.989
17226WAT     H251921   6.886   5.139   6.071
17227WAT      O51922   6.314   1.588   6.863
17227WAT     H151923   6.338   1.682   6.842
17227WAT     H251924   6.340   1.567   6.958
17228WAT      O51925   1.983   9.588   7.051
17228WAT     H151926   2.056   9.520   7.045
17228WAT     H251927   1.926   9.569   7.131
17229WAT      O51928   2.425   0.235   3.789
17229WAT     H151929   2.405   0.173   3.864
17229WAT     H251930   2.524   0.244   3.779
17230WAT      O51931   9.541   2.112   2.329
17230WAT     H151932   9.625   2.125   2.276
17230WAT     H251933   9.527   2.191   2.388
17231WAT      O51934   6.240   3.153   2.726
17231WAT     H151935   6.261   3.195   2.814
17231WAT     H251936   6.151   3.108   2.730
17232WAT      O51937   7.835   0.010   2.158
17232WAT     H151938   7.754  -0.045   2.175
17232WAT     H251939   7.854   0.011   2.060
17233WAT      O51940   7.798   0.458   7.866
17233WAT     H151941   7.824   0.534   7.806
17233WAT     H251942   7.757   0.495   7.949
17234WAT      O51943   0.372   4.558   0.016
17234WAT     H151944   0.333   4.467   0.033
17234WAT     H251945   0.368   4.578  -0.082
17235WAT      O51946   5.069   0.914   8.246
17235WAT     H151947   5.122   0.856   8.309
17235WAT     H251948   4.977   0.925   8.282
17236WAT      O51949   5.546   5.778   3.929
17236WAT     H151950   5.460   5.744   3.891
17236WAT     H251951   5.567   5.730   4.014
17237WAT      O51952   8.309   1.678   1.230
17237WAT     H151953   8.219   1.700   1.193
17237WAT     H251954   8.299   1.636   1.321
17238WAT      O51955   2.060   4.132   8.837
17238WAT     H151956   2.028   4.225   8.854
17238WAT     H251957   2.004   4.090   8.765
17239WAT      O51958   4.778   8.645   5.323
17239WAT     H151959   4.806   8.682   5.235
17239WAT     H251960   4.804   8.709   5.396
17240WAT      O51961   9.814   3.909   8.834
17240WAT     H151962   9.833   3.951   8.923
17240WAT     H251963   9.873   3.829   8.822
17241WAT      O51964   6.145   9.037   8.565
17241WAT     H151965   6.177   8.949   8.532
17241WAT     H251966   6.061   9.025   8.618
17242WAT      O51967   9.717   7.783   9.339
17242WAT     H151968   9.726   7.877   9.306
17242WAT     H251969   9.666   7.784   9.426
17243WAT      O51970   1.482   0.909   5.144
17243WAT     H151971   1.544   0.876   5.073
17243WAT     H251972   1.517   0.885   5.234
17244WAT      O51973   2.704   2.612   3.449
17244WAT     H151974   2.657   2.693   3.413
17244WAT     H251975   2.662   2.529   3.411
17245WAT      O51976   2.489   2.025   2.204
17245WAT     H151977   2.587   2.041   2.211
17245WAT     H251978   2.455   1.983   2.288
17246WAT      O51979   6.767   4.160   7.036
17246WAT     H151980   6.674   4.182   7.062
17246WAT     H251981   6.766   4.103   6.953
17247WAT      O51982   5.118   9.509   4.033
17247WAT     H151983   5.034   9.463   4.003
17247WAT     H251984   5.130   9.495   4.132
17248WAT      O51985   7.592   5.408   1.482
17248WAT     H151986   7.549   5.431   1.395
17248WAT     H251987   7.611   5.492   1.532
17249WAT      O51988   2.558   9.227   9.262
17249WAT     H151989   2.480   9.280   9.295
17249WAT     H251990   2.633   9.234   9.328
17250WAT      O51991   6.959   4.688   7.582
17250WAT     H151992   6.972   4.594   7.550
17250WAT     H251993   6.941   4.688   7.680
17251WAT      O51994   0.384   0.074   9.370
17251WAT     H151995   0.389   0.144   9.299
17251WAT     H251996   0.325  -0.001   9.339
17252WAT      O51997   1.586   5.545   6.861
17252WAT     H151998   1.678   5.573   6.892
17252WAT     H251999   1.550   5.614   6.798
17253WAT      O52000   8.076   6.281   6.034
17253WAT     H152001   8.089   6.356   5.969
17253WAT     H252002   8.053   6.317   6.124
17254WAT      O52003   4.255   1.568   3.950
17254WAT     H152004   4.305   1.655   3.947
17254WAT     H252005   4.214   1.557   4.041
17255WAT      O52006   6.903   0.409   9.795
17255WAT     H152007   6.962   0.332   9.820
17255WAT     H252008   6.829   0.376   9.736
17256WAT      O52009   5.223   1.601   6.330
17256WAT     H152010   5.187   1.694   6.334
17256WAT     H252011   5.304   1.599   6.270
17257WAT      O52012   3.632   4.009   6.227
17257WAT     H152013   3.644   3.936   6.295
17257WAT     H252014   3.690   3.991   6.148
17258WAT      O52015   3.755   8.286   4.108
17258WAT     H152016   3.662   8.287   4.072
17258WAT     H252017   3.780   8.378   4.138
17259WAT      O52018   5.436   2.562   0.303
17259WAT     H152019   5.447   2.628   0.229
17259WAT     H252020   5.377   2.602   0.374
17260WAT      O52021   1.444   5.612   7.383
17260WAT     H152022   1.380   5.612   7.306
17260WAT     H252023   1.500   5.528   7.380
17261WAT      O52024   2.884   9.794   3.979
17261WAT     H152025   2.906   9.704   4.016
17261WAT     H252026   2.927   9.804   3.889
17262WAT      O52027   2.204   7.111   7.676
17262WAT     H152028   2.295   7.098   7.635
17262WAT     H252029   2.140   7.048   7.633
17263WAT      O52030   5.603   7.287   3.067
17263WAT     H152031   5.702   7.294   3.079
17263WAT     H252032   5.557   7.349   3.131
17264WAT      O52033   9.821   6.324   2.181
17264WAT     H152034   9.894   6.262   2.211
17264WAT     H252035   9.861   6.398   2.127
17265WAT      O52036   5.403   1.533   0.737
17265WAT     H152037   5.409   1.528   0.637
17265WAT     H252038   5.480   1.586   0.772
17266WAT      O52039   4.273   7.862   0.831
17266WAT     H152040   4.302   7.949   0.873
17266WAT     H252041   4.173   7.859   0.825
17267WAT      O52042   9.377   8.124   1.260
17267WAT     H152043   9.314   8.071   1.203
17267WAT     H252044   9.440   8.176   1.201
17268WAT      O52045   6.426   5.937   2.917
17268WAT     H152046   6.384   5.940   2.827
17268WAT     H252047   6.357   5.909   2.985
17269WAT      O52048   3.437   4.406   8.019
17269WAT     H152049   3.535   4.397   8.037
17269WAT     H252050   3.387   4.341   8.075
17270WAT      O52051   1.160   2.184   0.912
17270WAT     H152052   1.154   2.247   0.835
17270WAT     H252053   1.068   2.153   0.936
17271WAT      O52054   6.418   9.161   9.450
17271WAT     H152055   6.422   9.173   9.351
17271WAT     H252056   6.503   9.118   9.482
17272WAT      O52057   3.909   1.067   1.977
17272WAT     H152058   3.921   1.151   1.924
17272WAT     H252059   3.965   0.994   1.937
17273WAT      O52060   6.337   7.816   7.540
17273WAT     H152061   6.366   7.839   7.633
17273WAT     H252062   6.323   7.718   7.532
17274WAT      O52063   0.583   8.633   0.937
17274WAT     H152064   0.567   8.603   1.031
17274WAT     H252065   0.497   8.635   0.887
17275WAT      O52066   6.741   6.306   0.967
17275WAT     H152067   6.695   6.219   0.984
17275WAT     H252068   6.684   6.381   1.001
17276WAT      O52069   7.968   5.362   5.466
17276WAT     H152070   7.991   5.458   5.482
17276WAT     H252071   7.871   5.347   5.484
17277WAT      O52072   1.410   2.437   4.310
17277WAT     H152073   1.502   2.411   4.339
17277WAT     H252074   1.416   2.500   4.232
17278WAT      O52075   6.883   8.749   6.116
17278WAT     H152076   6.932   8.836   6.108
17278WAT     H252077   6.941   8.675   6.083
17279WAT      O52078   0.403   0.303   4.398
17279WAT     H152079   0.324   0.275   4.453
17279WAT     H252080   0.484   0.305   4.456
17280WAT      O52081   3.300   3.474   2.648
17280WAT     H152082   3.251   3.403   2.698
17280WAT     H252083   3.282   3.563   2.689
17281WAT      O52084   7.851   7.739   1.284
17281WAT     H152085   7.854   7.697   1.375
17281WAT     H252086   7.944   7.760   1.253
17282WAT      O52087   2.240   0.825   6.755
17282WAT     H152088   2.288   0.842   6.841
17282WAT     H252089   2.289   0.870   6.680
17283WAT      O52090   5.547   7.681   3.104
17283WAT     H152091   5.488   7.679   3.185
17283WAT     H252092   5.495   7.649   3.024
17284WAT      O52093   9.565   1.444   3.039
17284WAT     H152094   9.574   1.538   3.070
17284WAT     H252095   9.469   1.418   3.037
17285WAT      O52096   5.942   7.426   5.054
17285WAT     H152097   5.852   7.451   5.019
17285WAT     H252098   5.947   7.327   5.066
17286WAT      O52099   4.850   0.541   8.455
17286WAT     H152100   4.830   0.532   8.553
17286WAT     H252101   4.832   0.636   8.427
17287WAT      O52102   8.905   6.286   3.791
17287WAT     H152103   8.989   6.337   3.808
17287WAT     H252104   8.893   6.218   3.862
17288WAT      O52105   4.406   1.968   0.043
17288WAT     H152106   4.451   1.884   0.013
17288WAT     H252107   4.330   1.989  -0.019
17289WAT      O52108   5.636   1.138   0.505
17289WAT     H152109   5.553   1.175   0.462
17289WAT     H252110   5.643   1.040   0.485
17290WAT      O52111   6.851   0.588   5.246
17290WAT     H152112   6.835   0.684   5.226
17290WAT     H252113   6.788   0.531   5.193
17291WAT      O52114   8.799   9.480   1.973
17291WAT     H152115   8.848   9.407   1.926
17291WAT     H252116   8.700   9.463   1.966
17292WAT      O52117   1.151   4.487   5.008
17292WAT     H152118   1.105   4.398   5.011
17292WAT     H252119   1.187   4.509   5.098
17293WAT      O52120   5.304   2.576   8.622
17293WAT     H152121   5.239   2.643   8.587
17293WAT     H252122   5.271   2.484   8.602
17294WAT      O52123   1.336   2.318   0.220
17294WAT     H152124   1.251   2.356   0.257
17294WAT     H252125   1.324   2.300   0.122
17295WAT      O52126   3.987   2.033   5.836
17295WAT     H152127   3.956   1.944   5.800
17295WAT     H252128   3.920   2.067   5.902
17296WAT      O52129   0.274   1.629   8.291
17296WAT     H152130   0.243   1.664   8.203
17296WAT     H252131   0.362   1.670   8.314
17297WAT      O52132   7.487   6.727   4.346
17297WAT     H152133   7.469   6.644   4.399
17297WAT     H252134   7.563   6.778   4.387
17298WAT      O52135   7.129   7.645   0.943
17298WAT     H152136   7.055   7.578   0.952
17298WAT     H252137   7.209   7.600   0.904
17299WAT      O52138   4.811   6.152   9.750
17299WAT     H152139   4.752   6.131   9.828
17299WAT     H252140   4.864   6.071   9.726
17300WAT      O52141   5.317   0.702   1.611
17300WAT     H152142   5.405   0.746   1.629
17300WAT     H252143   5.245   0.771   1.608
17301WAT      O52144   2.319   9.727   2.387
17301WAT     H152145   2.277   9.780   2.460
17301WAT     H252146   2.290   9.631   2.395
17302WAT      O52147   6.548   8.521   7.777
17302WAT     H152148   6.606   8.588   7.731
17302WAT     H252149   6.477   8.490   7.715
17303WAT      O52150   9.057   9.618   8.954
17303WAT     H152151   9.001   9.700   8.963
17303WAT     H252152   9.053   9.565   9.039
17304WAT      O52153   8.725   2.911   7.526
17304WAT     H152154   8.736   2.818   7.561
17304WAT     H252155   8.725   2.976   7.602
17305WAT      O52156   6.251   9.033   9.620
17305WAT     H152157   6.283   9.071   9.707
17305WAT     H252158   6.304   9.072   9.545
17306WAT      O52159   3.567   0.354   6.319
17306WAT     H152160   3.561   0.322   6.225
17306WAT     H252161   3.611   0.284   6.375
17307WAT      O52162   2.965   0.847   8.677
17307WAT     H152163   2.918   0.881   8.759
17307WAT     H252164   3.039   0.910   8.653
17308WAT      O52165   5.369   3.232   0.100
17308WAT     H152166   5.406   3.192   0.184
17308WAT     H252167   5.433   3.300   0.064
17309WAT      O52168   7.493   3.184   1.572
17309WAT     H152169   7.586   3.169   1.541
17309WAT     H252170   7.493   3.198   1.671
17310WAT      O52171   8.895   5.336   7.085
17310WAT     H152172   8.843   5.276   7.144
17310WAT     H252173   8.833   5.380   7.019
17311WAT      O52174   6.030   2.278   6.231
17311WAT     H152175   5.957   2.306   6.294
17311WAT     H252176   6.108   2.244   6.284
17312WAT      O52177   9.066   9.826   6.013
17312WAT     H152178   9.057   9.925   6.020
17312WAT     H252179   9.162   9.801   6.023
17313WAT      O52180   5.888   9.252   2.966
17313WAT     H152181   5.973   9.284   3.007
17313WAT     H252182   5.813   9.314   2.991
17314WAT      O52183   4.480   6.130   0.727
17314WAT     H152184   4.477   6.041   0.772
17314WAT     H252185   4.500   6.201   0.795
17315WAT      O52186   5.087   7.788   1.132
17315WAT     H152187   5.107   7.869   1.078
17315WAT     H252188   5.045   7.718   1.074
17316WAT      O52189   6.497   4.586   1.025
17316WAT     H152190   6.456   4.675   1.045
17316WAT     H252191   6.555   4.593   0.943
17317WAT      O52192   9.192   6.879   9.159
17317WAT     H152193   9.198   6.918   9.067
17317WAT     H252194   9.126   6.931   9.213
17318WAT      O52195   9.782   4.196   5.278
17318WAT     H152196   9.796   4.233   5.370
17318WAT     H252197   9.788   4.096   5.281
17319WAT      O52198   4.059   0.583   8.173
17319WAT     H152199   3.984   0.647   8.191
17319WAT     H252200   4.145   0.623   8.203
17320WAT      O52201   7.671   2.232   8.789
17320WAT     H152202   7.762   2.256   8.757
17320WAT     H252203   7.673   2.139   8.826
17321WAT      O52204   7.503   7.332   6.482
17321WAT     H152205   7.429   7.267   6.498
17321WAT     H252206   7.577   7.316   6.547
17322WAT      O52207   9.189   6.301   1.320
17322WAT     H152208   9.154   6.209   1.299
17322WAT     H252209   9.243   6.335   1.244
17323WAT      O52210   2.481   1.008   6.312
17323WAT     H152211   2.458   1.103   6.335
17323WAT     H252212   2.557   1.008   6.247
17324WAT      O52213   7.332   7.709   4.071
17324WAT     H152214   7.257   7.768   4.100
17324WAT     H252215   7.416   7.762   4.064
17325WAT      O52216   2.912   2.119   3.587
17325WAT     H152217   2.886   2.214   3.568
17325WAT     H252218   2.884   2.095   3.680
17326WAT      O52219   3.181   0.689   8.815
17326WAT     H152220   3.095   0.737   8.836
17326WAT     H252221   3.165   0.623   8.741
17327WAT      O52222   0.438   3.256   9.622
17327WAT     H152223   0.516   3.259   9.685
17327WAT     H252224   0.384   3.174   9.641
17328WAT      O52225   3.194   2.652   8.017
17328WAT     H152226   3.111   2.689   8.058
17328WAT     H252227   3.256   2.726   7.992
17329WAT      O52228   0.589   6.771   2.586
17329WAT     H152229   0.596   6.674   2.564
17329WAT     H252230   0.673   6.802   2.630
17330WAT      O52231   1.221   8.467   4.193
17330WAT     H152232   1.229   8.446   4.291
17330WAT     H252233   1.162   8.400   4.149
17331WAT      O52234   0.057   7.371   3.033
17331WAT     H152235   0.138   7.379   2.974
17331WAT     H252236   0.054   7.278   3.071
17332WAT      O52237   0.628   4.974   3.167
17332WAT     H152238   0.573   5.004   3.089
17332WAT     H252239   0.673   5.053   3.208
17333WAT      O52240   3.864   3.580   6.356
17333WAT     H152241   3.867   3.487   6.393
17333WAT     H252242   3.940   3.633   6.392
17334WAT      O52243   8.232   1.990   2.656
17334WAT     H152244   8.206   2.074   2.607
17334WAT     H252245   8.330   1.992   2.675
17335WAT      O52246   7.731   6.010   5.137
17335WAT     H152247   7.819   5.978   5.100
17335WAT     H252248   7.718   6.106   5.113
17336WAT      O52249   0.186   1.679   2.960
17336WAT     H152250   0.152   1.646   2.872
17336WAT     H252251   0.271   1.632   2.983
17337WAT      O52252   3.751   3.620   4.387
17337WAT     H152253   3.798   3.684   4.325
17337WAT     H252254   3.700   3.672   4.455
17338WAT      O52255   3.826   6.397   5.754
17338WAT     H152256   3.801   6.481   5.802
17338WAT     H252257   3.904   6.354   5.799
17339WAT      O52258   6.898   2.991   2.991
17339WAT     H152259   6.850   3.063   3.041
17339WAT     H252260   6.991   3.021   2.972
17340WAT      O52261   1.430   3.763   8.344
17340WAT     H152262   1.348   3.730   8.297
17340WAT     H252263   1.506   3.702   8.325
17341WAT      O52264   0.740   8.304   7.087
17341WAT     H152265   0.642   8.318   7.102
17341WAT     H252266   0.785   8.393   7.074
17342WAT      O52267   2.891   0.782   3.710
17342WAT     H152268   2.980   0.751   3.675
17342WAT     H252269   2.865   0.866   3.662
17343WAT      O52270   7.596   4.608   8.393
17343WAT     H152271   7.593   4.541   8.319
17343WAT     H252272   7.507   4.652   8.402
17344WAT      O52273   5.404   1.258   8.553
17344WAT     H152274   5.389   1.294   8.461
17344WAT     H252275   5.420   1.159   8.548
17345WAT      O52276   7.738   8.314   8.950
17345WAT     H152277   7.734   8.243   9.021
17345WAT     H252278   7.833   8.341   8.936
17346WAT      O52279   8.503   2.381   7.309
17346WAT     H152280   8.520   2.356   7.404
17346WAT     H252281   8.405   2.385   7.293
17347WAT      O52282   8.719   2.247   7.627
17347WAT     H152283   8.766   2.297   7.700
17347WAT     H252284   8.786   2.200   7.571
17348WAT      O52285   6.319   6.369   6.287
17348WAT     H152286   6.360   6.374   6.195
17348WAT     H252287   6.372   6.306   6.343
17349WAT      O52288   0.557   1.310   8.384
17349WAT     H152289   0.499   1.350   8.313
17349WAT     H252290   0.630   1.257   8.342
17350WAT      O52291   4.413   4.802   1.533
17350WAT     H152292   4.389   4.899   1.526
17350WAT     H252293   4.506   4.788   1.498
17351WAT      O52294   9.442   2.294   5.755
17351WAT     H152295   9.426   2.274   5.658
17351WAT     H252296   9.536   2.268   5.779
17352WAT      O52297   5.501   0.658   9.563
17352WAT     H152298   5.424   0.717   9.588
17352WAT     H252299   5.585   0.696   9.600
17353WAT      O52300   2.608   3.277   5.553
17353WAT     H152301   2.685   3.273   5.489
17353WAT     H252302   2.588   3.185   5.587
17354WAT      O52303   0.736   2.842   8.755
17354WAT     H152304   0.784   2.754   8.753
17354WAT     H252305   0.702   2.863   8.663
17355WAT      O52306   7.596   5.857   2.445
17355WAT     H152307   7.694   5.876   2.455
17355WAT     H252308   7.548   5.943   2.429
17356WAT      O52309   4.964   9.093   6.741
17356WAT     H152310   4.888   9.085   6.805
17356WAT     H252311   5.037   9.147   6.784
17357WAT      O52312   2.197   8.938   4.667
17357WAT     H152313   2.149   8.860   4.709
17357WAT     H252314   2.240   8.993   4.739
17358WAT      O52315   8.625   2.587   3.404
17358WAT     H152316   8.585   2.561   3.492
17358WAT     H252317   8.699   2.524   3.381
17359WAT      O52318   5.896   3.718   4.827
17359WAT     H152319   5.843   3.685   4.905
17359WAT     H252320   5.965   3.783   4.859
17360WAT      O52321   1.548   8.781   5.742
17360WAT     H152322   1.557   8.786   5.643
17360WAT     H252323   1.471   8.838   5.772
17361WAT      O52324   1.166   6.689   0.668
17361WAT     H152325   1.098   6.763   0.672
17361WAT     H252326   1.163   6.646   0.578
17362WAT      O52327   4.059   3.130   9.338
17362WAT     H152328   4.077   3.085   9.425
17362WAT     H252329   4.098   3.076   9.263
17363WAT      O52330   0.843   5.816   0.557
17363WAT     H152331   0.866   5.836   0.462
17363WAT     H252332   0.842   5.900   0.610
17364WAT      O52333   8.200   9.445   4.715
17364WAT     H152334   8.296   9.472   4.714
17364WAT     H252335   8.143   9.526   4.701
17365WAT      O52336   3.958   7.244   1.485
17365WAT     H152337   3.891   7.173   1.464
17365WAT     H252338   4.027   7.207   1.547
17366WAT      O52339   8.069   8.930   1.383
17366WAT     H152340   8.078   9.019   1.428
17366WAT     H252341   8.024   8.866   1.445
17367WAT      O52342   9.487   9.223   8.940
17367WAT     H152343   9.406   9.240   8.996
17367WAT     H252344   9.526   9.310   8.910
17368WAT      O52345   8.931   0.365   3.972
17368WAT     H152346   8.975   0.378   4.061
17368WAT     H252347   8.859   0.434   3.961
17369WAT      O52348   5.923   7.109   8.897
17369WAT     H152349   5.830   7.130   8.928
17369WAT     H252350   5.941   7.154   8.810
17370WAT      O52351   9.512   7.504   2.008
17370WAT     H152352   9.418   7.532   1.988
17370WAT     H252353   9.523   7.406   1.991
17371WAT      O52354   3.510   3.980   9.451
17371WAT     H152355   3.558   3.910   9.397
17371WAT     H252356   3.419   3.946   9.476
17372WAT      O52357   9.604   4.096   9.592
17372WAT     H152358   9.680   4.113   9.529
17372WAT     H252359   9.528   4.158   9.569
17373WAT      O52360   4.362   7.505   6.614
17373WAT     H152361   4.348   7.574   6.542
17373WAT     H252362   4.426   7.436   6.582
17374WAT      O52363   7.622   7.009   5.338
17374WAT     H152364   7.589   7.090   5.291
17374WAT     H252365   7.544   6.957   5.374
17375WAT      O52366   9.145   0.132   4.208
17375WAT     H152367   9.138   0.041   4.168
17375WAT     H252368   9.226   0.178   4.172
17376WAT      O52369   4.848   1.961   7.366
17376WAT     H152370   4.797   1.914   7.295
17376WAT     H252371   4.817   1.930   7.456
17377WAT      O52372   7.544   0.232   6.673
17377WAT     H152373   7.448   0.239   6.703
17377WAT     H252374   7.561   0.301   6.602
17378WAT      O52375   1.507   2.170   4.602
17378WAT     H152376   1.415   2.140   4.576
17378WAT     H252377   1.499   2.246   4.667
17379WAT      O52378   2.906   4.037   7.158
17379WAT     H152379   2.874   3.955   7.206
17379WAT     H252380   3.006   4.036   7.152
17380WAT      O52381   7.887   1.024   2.178
17380WAT     H152382   7.822   1.100   2.178
17380WAT     H252383   7.838   0.939   2.194
17381WAT      O52384   1.578   5.305   2.383
17381WAT     H152385   1.555   5.303   2.285
17381WAT     H252386   1.579   5.212   2.419
17382WAT      O52387   9.712   5.978   6.072
17382WAT     H152388   9.665   5.936   5.995
17382WAT     H252389   9.664   5.956   6.157
17383WAT      O52390   3.836   0.341   8.201
17383WAT     H152391   3.869   0.394   8.123
17383WAT     H252392   3.911   0.322   8.264
17384WAT      O52393   9.314   7.007   4.784
17384WAT     H152394   9.236   7.052   4.828
17384WAT     H252395   9.393   7.069   4.784
17385WAT      O52396   2.789   4.068   6.709
17385WAT     H152397   2.693   4.066   6.680
17385WAT     H252398   2.848   4.051   6.630
17386WAT      O52399   1.867   1.101   2.862
17386WAT     H152400   1.910   1.082   2.951
17386WAT     H252401   1.794   1.169   2.874
17387WAT      O52402   7.192   3.675   5.816
17387WAT     H152403   7.136   3.756   5.834
17387WAT     H252404   7.154   3.625   5.738
17388WAT      O52405   1.630   0.190   5.461
17388WAT     H152406   1.633   0.092   5.441
17388WAT     H252407   1.653   0.205   5.557
17389WAT      O52408   2.339   3.869   1.432
17389WAT     H152409   2.282   3.791   1.405
17389WAT     H252410   2.405   3.840   1.501
17390WAT      O52411   4.543   5.505   6.277
17390WAT     H152412   4.475   5.439   6.245
17390WAT     H252413   4.634   5.476   6.247
17391WAT      O52414   4.035   6.506   6.124
17391WAT     H152415   4.104   6.531   6.191
17391WAT     H252416   3.957   6.567   6.131
17392WAT      O52417   6.285   0.946   5.019
17392WAT     H152418   6.206   1.003   5.043
17392WAT     H252419   6.362   1.004   4.992
17393WAT      O52420   2.251   7.646   4.575
17393WAT     H152421   2.196   7.565   4.593
17393WAT     H252422   2.290   7.640   4.484
17394WAT      O52423   0.476   0.970   4.778
17394WAT     H152424   0.429   1.009   4.699
17394WAT     H252425   0.552   0.913   4.748
17395WAT      O52426   5.725   0.539   1.817
17395WAT     H152427   5.730   0.441   1.799
17395WAT     H252428   5.635   0.562   1.853
17396WAT      O52429   3.752   7.586   6.490
17396WAT     H152430   3.852   7.581   6.482
17396WAT     H252431   3.721   7.523   6.561
17397WAT      O52432   9.243   7.564   0.424
17397WAT     H152433   9.334   7.597   0.449
17397WAT     H252434   9.236   7.467   0.445
17398WAT      O52435   6.167   4.033   2.941
17398WAT     H152436   6.145   3.946   2.897
17398WAT     H252437   6.263   4.034   2.967
17399WAT      O52438   8.803   3.366   7.150
17399WAT     H152439   8.733   3.430   7.119
17399WAT     H252440   8.760   3.289   7.196
17400WAT      O52441   5.464   1.977   8.128
17400WAT     H152442   5.379   1.969   8.181
17400WAT     H252443   5.503   2.068   8.141
17401WAT      O52444   6.490   6.764   3.057
17401WAT     H152445   6.476   6.667   3.036
17401WAT     H252446   6.402   6.811   3.054
17402WAT      O52447   2.135   4.371   8.147
17402WAT     H152448   2.192   4.368   8.065
17402WAT     H252449   2.055   4.429   8.129
17403WAT      O52450   7.703   4.168   9.813
17403WAT     H152451   7.664   4.115   9.737
17403WAT     H252452   7.675   4.264   9.804
17404WAT      O52453   6.254   9.514   8.230
17404WAT     H152454   6.346   9.519   8.190
17404WAT     H252455   6.258   9.537   8.327
17405WAT      O52456   9.712   7.565   0.955
17405WAT     H152457   9.747   7.655   0.981
17405WAT     H252458   9.626   7.575   0.904
17406WAT      O52459   0.308   8.682   4.410
17406WAT     H152460   0.259   8.698   4.325
17406WAT     H252461   0.328   8.585   4.420
17407WAT      O52462   5.825   8.475   3.404
17407WAT     H152463   5.819   8.384   3.446
17407WAT     H252464   5.743   8.527   3.425
17408WAT      O52465   2.004   5.238   9.021
17408WAT     H152466   1.943   5.192   9.087
17408WAT     H252467   2.051   5.314   9.066
17409WAT      O52468   1.635   1.853   0.682
17409WAT     H152469   1.563   1.863   0.614
17409WAT     H252470   1.721   1.888   0.645
17410WAT      O52471   4.578   9.629   5.224
17410WAT     H152472   4.654   9.680   5.183
17410WAT     H252473   4.506   9.618   5.156
17411WAT      O52474   7.264   0.092   7.091
17411WAT     H152475   7.210   0.072   7.010
17411WAT     H252476   7.216   0.159   7.148
17412WAT      O52477   5.462   0.874   8.816
17412WAT     H152478   5.436   0.893   8.722
17412WAT     H252479   5.562   0.871   8.823
17413WAT      O52480   5.266   2.716   0.459
17413WAT     H152481   5.256   2.809   0.496
17413WAT     H252482   5.234   2.715   0.364
17414WAT      O52483   9.421   4.033   2.038
17414WAT     H152484   9.454   4.035   2.132
17414WAT     H252485   9.487   3.987   1.979
17415WAT      O52486   0.024   3.398   9.522
17415WAT     H152487   0.096   3.365   9.461
17415WAT     H252488   0.045   3.492   9.550
17416WAT      O52489   6.971   0.999   2.992
17416WAT     H152490   6.956   0.961   2.900
17416WAT     H252491   7.019   1.086   2.984
17417WAT      O52492   2.160   0.100   1.402
17417WAT     H152493   2.135   0.024   1.462
17417WAT     H252494   2.250   0.082   1.362
17418WAT      O52495   1.429   7.079   8.869
17418WAT     H152496   1.462   7.066   8.775
17418WAT     H252497   1.463   7.166   8.905
17419WAT      O52498   4.115   7.959   3.612
17419WAT     H152499   4.184   7.954   3.540
17419WAT     H252500   4.025   7.939   3.573
17420WAT      O52501   1.886   1.326   6.612
17420WAT     H152502   1.945   1.398   6.648
17420WAT     H252503   1.881   1.335   6.512
17421WAT      O52504   6.887   4.436   7.999
17421WAT     H152505   6.863   4.347   8.036
17421WAT     H252506   6.975   4.465   8.037
17422WAT      O52507   8.238   2.709   9.721
17422WAT     H152508   8.247   2.662   9.808
17422WAT     H252509   8.284   2.657   9.649
17423WAT      O52510   1.019   2.919   0.508
17423WAT     H152511   0.980   3.004   0.546
17423WAT     H252512   1.109   2.938   0.470
17424WAT      O52513   9.295   2.794   8.008
17424WAT     H152514   9.392   2.772   7.999
17424WAT     H252515   9.242   2.710   8.005
17425WAT      O52516   4.027   4.223   2.037
17425WAT     H152517   4.082   4.220   1.953
17425WAT     H252518   4.065   4.290   2.100
17426WAT      O52519   9.761   4.087   0.648
17426WAT     H152520   9.705   4.155   0.601
17426WAT     H252521   9.848   4.076   0.600
17427WAT      O52522   4.090   6.310   2.085
17427WAT     H152523   4.118   6.260   2.167
17427WAT     H252524   4.171   6.345   2.038
17428WAT      O52525   8.295   6.831   1.491
17428WAT     H152526   8.317   6.791   1.402
17428WAT     H252527   8.347   6.784   1.562
17429WAT      O52528   0.514   4.462   1.289
17429WAT     H152529   0.529   4.363   1.279
17429WAT     H252530   0.497   4.503   1.200
17430WAT      O52531   5.978   3.715   3.333
17430WAT     H152532   5.883   3.728   3.362
17430WAT     H252533   5.988   3.746   3.239
17431WAT      O52534   7.741   0.720   7.743
17431WAT     H152535   7.734   0.747   7.647
17431WAT     H252536   7.650   0.706   7.781
17432WAT      O52537   8.951   1.113   5.988
17432WAT     H152538   8.913   1.096   5.897
17432WAT     H252539   8.876   1.125   6.054
17433WAT      O52540   7.330   6.605   1.490
17433WAT     H152541   7.319   6.578   1.394
17433WAT     H252542   7.346   6.523   1.546
17434WAT      O52543   7.956   1.307   6.449
17434WAT     H152544   7.904   1.385   6.483
17434WAT     H252545   7.893   1.241   6.408
17435WAT      O52546   8.269   4.936   3.045
17435WAT     H152547   8.201   4.899   2.981
17435WAT     H252548   8.360   4.928   3.004
17436WAT      O52549   9.853   1.791   5.647
17436WAT     H152550   9.841   1.735   5.565
17436WAT     H252551   9.819   1.739   5.726
17437WAT      O52552   3.761   3.407   7.380
17437WAT     H152553   3.763   3.389   7.282
17437WAT     H252554   3.772   3.321   7.430
17438WAT      O52555   9.098   0.817   1.356
17438WAT     H152556   9.063   0.724   1.348
17438WAT     H252557   9.073   0.870   1.274
17439WAT      O52558   2.213   9.029   0.989
17439WAT     H152559   2.177   9.034   1.082
17439WAT     H252560   2.176   8.948   0.943
17440WAT      O52561   8.270   6.474   6.179
17440WAT     H152562   8.215   6.469   6.262
17440WAT     H252563   8.244   6.556   6.127
17441WAT      O52564   6.221   6.274   0.207
17441WAT     H152565   6.131   6.240   0.179
17441WAT     H252566   6.265   6.207   0.267
17442WAT      O52567   2.229   2.816   8.500
17442WAT     H152568   2.132   2.793   8.497
17442WAT     H252569   2.273   2.769   8.577
17443WAT      O52570   8.031   3.962   6.522
17443WAT     H152571   7.995   3.923   6.607
17443WAT     H252572   8.101   4.030   6.543
17444WAT      O52573   7.818   5.504   9.372
17444WAT     H152574   7.796   5.529   9.466
17444WAT     H252575   7.759   5.429   9.342
17445WAT      O52576   1.297   0.673   1.494
17445WAT     H152577   1.282   0.588   1.443
17445WAT     H252578   1.374   0.661   1.556
17446WAT      O52579   6.366   2.571   5.602
17446WAT     H152580   6.361   2.489   5.544
17446WAT     H252581   6.339   2.651   5.549
17447WAT      O52582   2.682   3.768   7.754
17447WAT     H152583   2.583   3.780   7.753
17447WAT     H252584   2.712   3.731   7.667
17448WAT      O52585   7.558   6.917   7.280
17448WAT     H152586   7.586   6.999   7.230
17448WAT     H252587   7.562   6.838   7.219
17449WAT      O52588   0.040   3.960   8.305
17449WAT     H152589   0.060   3.866   8.332
17449WAT     H252590   0.125   4.007   8.281
17450WAT      O52591   6.991   7.613   2.689
17450WAT     H152592   6.959   7.671   2.764
17450WAT     H252593   7.008   7.520   2.723
17451WAT      O52594   1.928   4.406   3.017
17451WAT     H152595   2.007   4.429   2.960
17451WAT     H252596   1.961   4.375   3.106
17452WAT      O52597   5.383   0.768   4.314
17452WAT     H152598   5.351   0.735   4.402
17452WAT     H252599   5.407   0.690   4.255
17453WAT      O52600   6.540   2.126   3.994
17453WAT     H152601   6.448   2.129   3.955
17453WAT     H252602   6.555   2.205   4.052
17454WAT      O52603   8.901   0.804   3.560
17454WAT     H152604   8.883   0.853   3.645
17454WAT     H252605   8.887   0.865   3.482
17455WAT      O52606   5.876   0.163   0.407
17455WAT     H152607   5.951   0.184   0.345
17455WAT     H252608   5.902   0.188   0.500
17456WAT      O52609   9.121   1.318   2.073
17456WAT     H152610   9.166   1.230   2.087
17456WAT     H252611   9.187   1.384   2.039
17457WAT      O52612   7.163   7.793   5.868
17457WAT     H152613   7.206   7.716   5.821
17457WAT     H252614   7.235   7.850   5.909
17458WAT      O52615   6.740   3.178   5.176
17458WAT     H152616   6.646   3.169   5.143
17458WAT     H252617   6.767   3.274   5.176
17459WAT      O52618   5.413   7.070   5.443
17459WAT     H152619   5.410   7.068   5.543
17459WAT     H252620   5.329   7.031   5.406
17460WAT      O52621   0.912   4.847   6.572
17460WAT     H152622   0.968   4.765   6.580
17460WAT     H252623   0.921   4.903   6.655
17461WAT      O52624   2.096   5.127   2.800
17461WAT     H152625   2.015   5.075   2.826
17461WAT     H252626   2.170   5.065   2.777
17462WAT      O52627   2.935   9.373   3.762
17462WAT     H152628   2.881   9.339   3.839
17462WAT     H252629   3.008   9.308   3.741
17463WAT      O52630   1.989   1.368   3.741
17463WAT     H152631   1.973   1.349   3.644
17463WAT     H252632   2.081   1.339   3.765
17464WAT      O52633   5.554   5.192   0.088
17464WAT     H152634   5.649   5.201   0.058
17464WAT     H252635   5.517   5.282   0.110
17465WAT      O52636   4.258   6.551   3.642
17465WAT     H152637   4.160   6.567   3.641
17465WAT     H252638   4.293   6.551   3.549
17466WAT      O52639   6.395   5.111   8.845
17466WAT     H152640   6.380   5.055   8.764
17466WAT     H252641   6.328   5.088   8.914
17467WAT      O52642   1.468   0.328   7.619
17467WAT     H152643   1.454   0.285   7.708
17467WAT     H252644   1.401   0.291   7.553
17468WAT      O52645   1.203   9.614   2.795
17468WAT     H152646   1.206   9.686   2.864
17468WAT     H252647   1.108   9.588   2.778
17469WAT      O52648   8.011   4.979   4.971
17469WAT     H152649   8.027   4.899   5.029
17469WAT     H252650   7.918   4.975   4.933
17470WAT      O52651   3.939   3.593   7.970
17470WAT     H152652   3.940   3.592   7.870
17470WAT     H252653   3.850   3.622   8.003
17471WAT      O52654   8.941   5.393   6.616
17471WAT     H152655   8.885   5.460   6.665
17471WAT     H252656   8.899   5.373   6.528
17472WAT      O52657   9.119   4.004   1.789
17472WAT     H152658   9.205   4.042   1.755
17472WAT     H252659   9.050   4.008   1.718
17473WAT      O52660   8.707   7.296   2.328
17473WAT     H152661   8.762   7.266   2.406
17473WAT     H252662   8.674   7.216   2.278
17474WAT      O52663   4.940   1.629   2.066
17474WAT     H152664   4.935   1.529   2.067
17474WAT     H252665   4.932   1.662   1.972
17475WAT      O52666   6.761   3.612   9.815
17475WAT     H152667   6.731   3.695   9.861
17475WAT     H252668   6.693   3.584   9.747
17476WAT      O52669   0.399   8.492   5.558
17476WAT     H152670   0.381   8.570   5.497
17476WAT     H252671   0.398   8.523   5.653
17477WAT      O52672   4.600   0.115   3.288
17477WAT     H152673   4.625   0.203   3.247
17477WAT     H252674   4.501   0.114   3.305
17478WAT      O52675   3.036   2.775   0.539
17478WAT     H152676   3.092   2.851   0.574
17478WAT     H252677   2.988   2.732   0.615
17479WAT      O52678   9.189   2.788   6.124
17479WAT     H152679   9.216   2.874   6.079
17479WAT     H252680   9.232   2.782   6.213
17480WAT      O52681   5.477   8.013   6.671
17480WAT     H152682   5.413   7.945   6.635
17480WAT     H252683   5.441   8.050   6.756
17481WAT      O52684   2.325   8.465   9.565
17481WAT     H152685   2.416   8.435   9.536
17481WAT     H252686   2.305   8.555   9.527
17482WAT      O52687   4.567   1.084   5.016
17482WAT     H152688   4.664   1.087   5.039
17482WAT     H252689   4.550   1.009   4.952
17483WAT      O52690   5.649   8.260   2.298
17483WAT     H152691   5.746   8.252   2.318
17483WAT     H252692   5.615   8.348   2.333
17484WAT      O52693   6.431   3.972   2.946
17484WAT     H152694   6.430   3.927   2.857
17484WAT     H252695   6.519   3.954   2.992
17485WAT      O52696   2.221   0.357   7.282
17485WAT     H152697   2.212   0.410   7.198
17485WAT     H252698   2.211   0.259   7.261
17486WAT      O52699   7.618   4.964   5.048
17486WAT     H152700   7.621   4.936   5.144
17486WAT     H252701   7.676   5.044   5.036
17487WAT      O52702   2.658   4.739   8.626
17487WAT     H152703   2.681   4.829   8.591
17487WAT     H252704   2.560   4.735   8.646
17488WAT      O52705   4.239   6.282   3.795
17488WAT     H152706   4.265   6.366   3.747
17488WAT     H252707   4.142   6.265   3.782
17489WAT      O52708   8.514   6.564   4.239
17489WAT     H152709   8.576   6.643   4.239
17489WAT     H252710   8.533   6.507   4.160
17490WAT      O52711   8.951   0.287   3.238
17490WAT     H152712   8.948   0.376   3.283
17490WAT     H252713   9.046   0.257   3.231
17491WAT      O52714   0.138   6.539   6.845
17491WAT     H152715   0.134   6.442   6.824
17491WAT     H252716   0.094   6.591   6.772
17492WAT      O52717   2.408   4.699   4.007
17492WAT     H152718   2.401   4.638   4.086
17492WAT     H252719   2.384   4.648   3.924
17493WAT      O52720   8.974   6.978   7.779
17493WAT     H152721   8.890   7.032   7.774
17493WAT     H252722   9.048   7.028   7.733
17494WAT      O52723   2.682   5.781   0.611
17494WAT     H152724   2.745   5.749   0.541
17494WAT     H252725   2.729   5.844   0.673
17495WAT      O52726   3.062   5.989   6.013
17495WAT     H152727   3.041   6.072   5.961
17495WAT     H252728   3.145   6.004   6.068
17496WAT      O52729   0.082   3.872   4.038
17496WAT     H152730   0.161   3.930   4.020
17496WAT     H252731   0.029   3.859   3.954
17497WAT      O52732   1.460   7.485   2.632
17497WAT     H152733   1.507   7.572   2.621
17497WAT     H252734   1.500   7.417   2.570
17498WAT      O52735   9.615   4.037   2.488
17498WAT     H152736   9.656   4.124   2.517
17498WAT     H252737   9.582   4.046   2.394
17499WAT      O52738   4.116   4.583   6.132
17499WAT     H152739   4.084   4.661   6.186
17499WAT     H252740   4.089   4.498   6.177
17500WAT      O52741   2.878   5.232   1.277
17500WAT     H152742   2.861   5.318   1.230
17500WAT     H252743   2.791   5.184   1.291
17501WAT      O52744   6.794   7.098   5.185
17501WAT     H152745   6.731   7.162   5.229
17501WAT     H252746   6.857   7.061   5.253
17502WAT      O52747   7.606   3.027   3.859
17502WAT     H152748   7.618   3.060   3.765
17502WAT     H252749   7.524   2.971   3.864
17503WAT      O52750   0.182   5.943   8.787
17503WAT     H152751   0.110   6.009   8.764
17503WAT     H252752   0.250   5.988   8.846
17504WAT      O52753   1.195   0.728   8.634
17504WAT     H152754   1.239   0.647   8.672
17504WAT     H252755   1.235   0.810   8.676
17505WAT      O52756   3.095   0.526   7.966
17505WAT     H152757   3.146   0.469   7.901
17505WAT     H252758   3.131   0.619   7.962
17506WAT      O52759   3.890   5.471   3.166
17506WAT     H152760   3.884   5.536   3.091
17506WAT     H252761   3.914   5.519   3.251
17507WAT      O52762   2.923   4.218   6.893
17507WAT     H152763   2.869   4.188   6.814
17507WAT     H252764   2.954   4.137   6.944
17508WAT      O52765   1.401   0.271   5.292
17508WAT     H152766   1.481   0.240   5.343
17508WAT     H252767   1.404   0.371   5.284
17509WAT      O52768   3.473   8.368   3.253
17509WAT     H152769   3.492   8.319   3.168
17509WAT     H252770   3.512   8.318   3.330
17510WAT      O52771   8.258   7.895   3.903
17510WAT     H152772   8.271   7.951   3.821
17510WAT     H252773   8.291   7.945   3.983
17511WAT      O52774   5.673   9.491   7.950
17511WAT     H152775   5.734   9.571   7.951
17511WAT     H252776   5.727   9.408   7.959
17512WAT      O52777   5.474   9.101   0.597
17512WAT     H152778   5.461   9.198   0.617
17512WAT     H252779   5.419   9.046   0.661
17513WAT      O52780   5.601   3.808   4.123
17513WAT     H152781   5.581   3.868   4.200
17513WAT     H252782   5.676   3.746   4.146
17514WAT      O52783   1.150   8.535   3.758
17514WAT     H152784   1.119   8.547   3.664
17514WAT     H252785   1.213   8.608   3.783
17515WAT      O52786   0.223   7.157   0.729
17515WAT     H152787   0.314   7.196   0.713
17515WAT     H252788   0.155   7.209   0.678
17516WAT      O52789   0.037   9.800   6.161
17516WAT     H152790   0.122   9.765   6.121
17516WAT     H252791   0.013   9.886   6.117
17517WAT      O52792   3.908   2.634   9.055
17517WAT     H152793   3.982   2.662   9.115
17517WAT     H252794   3.821   2.664   9.094
17518WAT      O52795   2.901   2.684   2.091
17518WAT     H152796   2.823   2.653   2.037
17518WAT     H252797   2.976   2.618   2.083
17519WAT      O52798   9.617   3.050   3.988
17519WAT     H152799   9.711   3.017   3.981
17519WAT     H252800   9.553   2.976   3.969
17520WAT      O52801   3.731   9.191   5.300
17520WAT     H152802   3.663   9.174   5.229
17520WAT     H252803   3.785   9.271   5.276
17521WAT      O52804   2.969   8.936   5.808
17521WAT     H152805   3.023   9.019   5.797
17521WAT     H252806   3.025   8.865   5.850
17522WAT      O52807   1.174   8.957   1.841
17522WAT     H152808   1.172   9.006   1.754
17522WAT     H252809   1.081   8.931   1.867
17523WAT      O52810   8.784   6.355   0.398
17523WAT     H152811   8.749   6.439   0.440
17523WAT     H252812   8.723   6.328   0.324
17524WAT      O52813   6.691   6.853   2.235
17524WAT     H152814   6.715   6.819   2.145
17524WAT     H252815   6.775   6.878   2.284
17525WAT      O52816   5.770   1.867   7.685
17525WAT     H152817   5.736   1.822   7.602
17525WAT     H252818   5.840   1.934   7.660
17526WAT      O52819   4.186   4.886   5.480
17526WAT     H152820   4.257   4.853   5.543
17526WAT     H252821   4.184   4.828   5.399
17527WAT      O52822   1.686   8.076   5.587
17527WAT     H152823   1.735   8.162   5.574
17527WAT     H252824   1.702   8.017   5.508
17528WAT      O52825   9.533   4.334   1.744
17528WAT     H152826   9.515   4.429   1.717
17528WAT     H252827   9.448   4.294   1.780
17529WAT      O52828   1.620   2.446   8.060
17529WAT     H152829   1.635   2.543   8.078
17529WAT     H252830   1.657   2.422   7.970
17530WAT      O52831   5.494   2.968   3.078
17530WAT     H152832   5.447   3.049   3.114
17530WAT     H252833   5.436   2.888   3.091
17531WAT      O52834   1.818   8.717   0.434
17531WAT     H152835   1.779   8.796   0.386
17531WAT     H252836   1.858   8.654   0.367
17532WAT      O52837   4.464   7.742   1.998
17532WAT     H152838   4.390   7.680   2.024
17532WAT     H252839   4.538   7.736   2.065
17533WAT      O52840   2.289   7.156   7.922
17533WAT     H152841   2.248   7.130   7.834
17533WAT     H252842   2.363   7.220   7.906
17534WAT      O52843   2.420   3.619   6.643
17534WAT     H152844   2.434   3.531   6.597
17534WAT     H252845   2.496   3.681   6.620
17535WAT      O52846   2.879   1.996   2.895
17535WAT     H152847   2.887   1.923   2.963
17535WAT     H252848   2.786   2.000   2.861
17536WAT      O52849   2.710   7.987   9.611
17536WAT     H152850   2.750   8.037   9.535
17536WAT     H252851   2.764   8.003   9.694
17537WAT      O52852   8.987   5.912   0.828
17537WAT     H152853   8.953   5.958   0.910
17537WAT     H252854   8.973   5.813   0.838
17538WAT      O52855   0.964   8.151   5.075
17538WAT     H152856   0.948   8.249   5.061
17538WAT     H252857   0.948   8.128   5.171
17539WAT      O52858   7.964   3.554   9.255
17539WAT     H152859   7.884   3.519   9.303
17539WAT     H252860   8.045   3.543   9.314
17540WAT      O52861   3.924   4.062   7.908
17540WAT     H152862   3.914   4.161   7.920
17540WAT     H252863   4.012   4.043   7.864
17541WAT      O52864   8.423   9.120   8.204
17541WAT     H152865   8.444   9.055   8.277
17541WAT     H252866   8.485   9.198   8.209
17542WAT      O52867   0.775   2.140   7.724
17542WAT     H152868   0.696   2.175   7.775
17542WAT     H252869   0.760   2.045   7.699
17543WAT      O52870   7.276   2.615   5.397
17543WAT     H152871   7.342   2.616   5.322
17543WAT     H252872   7.251   2.710   5.420
17544WAT      O52873   6.830   2.838   0.995
17544WAT     H152874   6.761   2.910   0.990
17544WAT     H252875   6.816   2.784   1.078
17545WAT      O52876   0.126   0.904   8.802
17545WAT     H152877   0.128   0.822   8.860
17545WAT     H252878   0.208   0.905   8.745
17546WAT      O52879   2.805   7.679   8.303
17546WAT     H152880   2.856   7.765   8.306
17546WAT     H252881   2.807   7.643   8.209
17547WAT      O52882   5.051   6.472   7.392
17547WAT     H152883   4.988   6.493   7.467
17547WAT     H252884   5.041   6.539   7.319
17548WAT      O52885   9.324   3.930   5.515
17548WAT     H152886   9.276   3.993   5.454
17548WAT     H252887   9.268   3.849   5.530
17549WAT      O52888   2.744   6.367   8.390
17549WAT     H152889   2.768   6.458   8.425
17549WAT     H252890   2.751   6.301   8.465
17550WAT      O52891   2.307   4.603   2.606
17550WAT     H152892   2.352   4.590   2.695
17550WAT     H252893   2.240   4.531   2.592
17551WAT      O52894   9.678   6.449   9.035
17551WAT     H152895   9.634   6.536   9.010
17551WAT     H252896   9.623   6.404   9.106
17552WAT      O52897   3.670   6.649   0.238
17552WAT     H152898   3.769   6.660   0.234
17552WAT     H252899   3.646   6.587   0.313
17553WAT      O52900   6.311   3.648   9.480
17553WAT     H152901   6.406   3.628   9.504
17553WAT     H252902   6.271   3.569   9.433
17554WAT      O52903   3.872   9.363   4.291
17554WAT     H152904   3.773   9.364   4.278
17554WAT     H252905   3.908   9.455   4.277
17555WAT      O52906   6.531   0.838   1.208
17555WAT     H152907   6.570   0.768   1.269
17555WAT     H252908   6.446   0.873   1.247
17556WAT      O52909   1.757   7.376   8.907
17556WAT     H152910   1.781   7.419   8.821
17556WAT     H252911   1.659   7.387   8.924
17557WAT      O52912   2.025   4.314   2.218
17557WAT     H152913   1.978   4.232   2.251
17557WAT     H252914   2.062   4.365   2.296
17558WAT      O52915   6.179   3.222   0.007
17558WAT     H152916   6.200   3.317   0.028
17558WAT     H252917   6.105   3.190   0.065
17559WAT      O52918   2.432   4.042   8.407
17559WAT     H152919   2.346   4.062   8.453
17559WAT     H252920   2.477   3.964   8.451
17560WAT      O52921   7.608   2.471   8.322
17560WAT     H152922   7.529   2.502   8.269
17560WAT     H252923   7.582   2.391   8.376
17561WAT      O52924   1.702   0.905   4.413
17561WAT     H152925   1.724   0.940   4.504
17561WAT     H252926   1.724   0.808   4.408
17562WAT      O52927   0.121   9.530   5.997
17562WAT     H152928   0.031   9.495   6.022
17562WAT     H252929   0.116   9.574   5.907
17563WAT      O52930   9.429   5.720   1.491
17563WAT     H152931   9.415   5.658   1.413
17563WAT     H252932   9.522   5.756   1.488
17564WAT      O52933   2.725   8.373   4.582
17564WAT     H152934   2.788   8.304   4.546
17564WAT     H252935   2.754   8.463   4.551
17565WAT      O52936   5.692   8.612   1.279
17565WAT     H152937   5.604   8.658   1.294
17565WAT     H252938   5.677   8.514   1.267
17566WAT      O52939   4.154   9.059   0.441
17566WAT     H152940   4.166   9.043   0.343
17566WAT     H252941   4.235   9.103   0.479
17567WAT      O52942   3.761   3.430   6.719
17567WAT     H152943   3.791   3.403   6.811
17567WAT     H252944   3.791   3.361   6.653
17568WAT      O52945   6.908   6.626   2.775
17568WAT     H152946   6.875   6.556   2.839
17568WAT     H252947   6.989   6.670   2.814
17569WAT      O52948   8.658   7.453   7.593
17569WAT     H152949   8.727   7.521   7.616
17569WAT     H252950   8.657   7.381   7.662
17570WAT      O52951   2.689   8.860   3.029
17570WAT     H152952   2.739   8.907   3.102
17570WAT     H252953   2.722   8.766   3.021
17571WAT      O52954   8.600   5.114   7.662
17571WAT     H152955   8.574   5.037   7.720
17571WAT     H252956   8.557   5.198   7.697
17572WAT      O52957   4.249   4.480   1.783
17572WAT     H152958   4.226   4.571   1.820
17572WAT     H252959   4.277   4.489   1.688
17573WAT      O52960   7.755   6.633   1.454
17573WAT     H152961   7.758   6.536   1.477
17573WAT     H252962   7.799   6.648   1.366
17574WAT      O52963   8.679   1.386   2.578
17574WAT     H152964   8.685   1.404   2.676
17574WAT     H252965   8.584   1.363   2.555
17575WAT      O52966   6.279   5.177   2.570
17575WAT     H152967   6.220   5.115   2.518
17575WAT     H252968   6.341   5.224   2.508
17576WAT      O52969   5.484   9.582   7.572
17576WAT     H152970   5.516   9.677   7.577
17576WAT     H252971   5.446   9.564   7.482
17577WAT      O52972   4.134   9.098   9.483
17577WAT     H152973   4.188   9.105   9.399
17577WAT     H252974   4.190   9.056   9.554
17578WAT      O52975   3.399   9.792   1.125
17578WAT     H152976   3.357   9.733   1.056
17578WAT     H252977   3.345   9.789   1.209
17579WAT      O52978   9.781   5.852   6.602
17579WAT     H152979   9.703   5.908   6.628
17579WAT     H252980   9.751   5.781   6.538
17580WAT      O52981   6.001   8.654   4.845
17580WAT     H152982   5.965   8.617   4.931
17580WAT     H252983   6.076   8.596   4.814
17581WAT      O52984   8.197   0.314   6.279
17581WAT     H152985   8.189   0.414   6.270
17581WAT     H252986   8.114   0.278   6.322
17582WAT      O52987   0.783   8.908   5.840
17582WAT     H152988   0.752   9.002   5.826
17582WAT     H252989   0.703   8.847   5.846
17583WAT      O52990   0.386   2.023   6.663
17583WAT     H152991   0.350   1.958   6.730
17583WAT     H252992   0.316   2.042   6.594
17584WAT      O52993   1.553   7.824   7.883
17584WAT     H152994   1.599   7.875   7.809
17584WAT     H252995   1.469   7.871   7.908
17585WAT      O52996   9.368   4.956   8.141
17585WAT     H152997   9.283   4.996   8.176
17585WAT     H252998   9.444   5.018   8.162
17586WAT      O52999   4.786   1.422   4.627
17586WAT     H153000   4.837   1.503   4.655
17586WAT     H253001   4.731   1.443   4.546
17587WAT      O53002   1.280   7.110   3.739
17587WAT     H153003   1.263   7.199   3.780
17587WAT     H253004   1.196   7.056   3.742
17588WAT      O53005   9.784   3.848   3.826
17588WAT     H153006   9.843   3.843   3.746
17588WAT     H253007   9.702   3.900   3.804
17589WAT      O53008   9.468   2.658   7.501
17589WAT     H153009   9.502   2.663   7.595
17589WAT     H253010   9.394   2.724   7.488
17590WAT      O53011   9.623   0.118   8.083
17590WAT     H153012   9.605   0.115   8.182
17590WAT     H253013   9.639   0.025   8.050
17591WAT      O53014   9.255   7.471   6.860
17591WAT     H153015   9.171   7.428   6.827
17591WAT     H253016   9.232   7.559   6.903
17592WAT      O53017   1.115   4.941   6.379
17592WAT     H153018   1.144   5.037   6.386
17592WAT     H253019   1.029   4.929   6.429
17593WAT      O53020   1.988   6.146   5.658
17593WAT     H153021   2.072   6.103   5.692
17593WAT     H253022   1.910   6.114   5.712
17594WAT      O53023   0.563   1.761   7.770
17594WAT     H153024   0.556   1.829   7.842
17594WAT     H253025   0.472   1.731   7.743
17595WAT      O53026   4.967   7.494   1.835
17595WAT     H153027   5.057   7.535   1.823
17595WAT     H253028   4.976   7.408   1.885
17596WAT      O53029   6.308   2.122   3.832
17596WAT     H153030   6.212   2.149   3.831
17596WAT     H253031   6.349   2.141   3.743
17597WAT      O53032   2.887   6.354   5.717
17597WAT     H153033   2.911   6.451   5.714
17597WAT     H253034   2.788   6.344   5.711
17598WAT      O53035   8.550   6.318   0.587
17598WAT     H153036   8.573   6.225   0.616
17598WAT     H253037   8.568   6.382   0.662
17599WAT      O53038   1.027   5.017   1.149
17599WAT     H153039   1.127   5.028   1.144
17599WAT     H253040   1.005   4.930   1.194
17600WAT      O53041   6.149   1.559   3.284
17600WAT     H153042   6.098   1.474   3.298
17600WAT     H253043   6.145   1.585   3.188
17601WAT      O53044   4.308   7.674   2.517
17601WAT     H153045   4.332   7.708   2.426
17601WAT     H253046   4.326   7.576   2.522
17602WAT      O53047   2.668   8.403   5.558
17602WAT     H153048   2.683   8.464   5.635
17602WAT     H253049   2.719   8.435   5.479
17603WAT      O53050   7.786   9.221   0.351
17603WAT     H153051   7.783   9.212   0.252
17603WAT     H253052   7.848   9.296   0.376
17604WAT      O53053   7.101   2.133   4.666
17604WAT     H153054   7.073   2.090   4.752
17604WAT     H253055   7.067   2.227   4.663
17605WAT      O53056   2.488   8.964   5.907
17605WAT     H153057   2.494   9.064   5.910
17605WAT     H253058   2.394   8.937   5.884
17606WAT      O53059   9.731   3.606   4.981
17606WAT     H153060   9.796   3.682   4.981
17606WAT     H253061   9.695   3.594   5.074
17607WAT      O53062   0.474   8.800   8.497
17607WAT     H153063   0.526   8.777   8.580
17607WAT     H253064   0.424   8.885   8.511
17608WAT      O53065   1.742   4.811   9.407
17608WAT     H153066   1.771   4.797   9.502
17608WAT     H253067   1.659   4.757   9.389
17609WAT      O53068   4.896   3.025   0.462
17609WAT     H153069   4.963   3.072   0.404
17609WAT     H253070   4.902   2.926   0.446
17610WAT      O53071   0.730   6.482   3.471
17610WAT     H153072   0.743   6.526   3.560
17610WAT     H253073   0.818   6.453   3.435
17611WAT      O53074   0.856   9.143   5.662
17611WAT     H153075   0.947   9.150   5.621
17611WAT     H253076   0.796   9.090   5.602
17612WAT      O53077   0.034   8.933   8.414
17612WAT     H153078  -0.012   8.844   8.410
17612WAT     H253079  -0.024   9.003   8.373
17613WAT      O53080   4.163  -0.000   5.790
17613WAT     H153081   4.145   0.098   5.781
17613WAT     H253082   4.149  -0.044   5.701
17614WAT      O53083   1.478   7.661   4.760
17614WAT     H153084   1.398   7.609   4.728
17614WAT     H253085   1.539   7.601   4.811
17615WAT      O53086   5.897   1.773   7.287
17615WAT     H153087   5.802   1.776   7.319
17615WAT     H253088   5.934   1.865   7.285
17616WAT      O53089   5.883   0.298   4.449
17616WAT     H153090   5.937   0.378   4.422
17616WAT     H253091   5.882   0.291   4.549
17617WAT      O53092   6.676   2.421   3.923
17617WAT     H153093   6.613   2.462   3.990
17617WAT     H253094   6.723   2.494   3.873
17618WAT      O53095   9.019   2.487   7.567
17618WAT     H153096   9.075   2.423   7.514
17618WAT     H253097   9.061   2.500   7.657
17619WAT      O53098   9.182   6.033   2.459
17619WAT     H153099   9.168   5.971   2.536
17619WAT     H253100   9.195   6.126   2.494
17620WAT      O53101   7.939   5.042   4.118
17620WAT     H153102   8.012   4.976   4.137
17620WAT     H253103   7.980   5.129   4.091
17621WAT      O53104   2.569   6.050   6.066
17621WAT     H153105   2.666   6.039   6.088
17621WAT     H253106   2.514   6.028   6.147
17622WAT      O53107   6.600   0.671   6.967
17622WAT     H153108   6.681   0.710   6.922
17622WAT     H253109   6.625   0.637   7.058
17623WAT      O53110   2.223   4.688   9.431
17623WAT     H153111   2.296   4.625   9.407
17623WAT     H253112   2.139   4.663   9.381
17624WAT      O53113   3.974   6.749   4.788
17624WAT     H153114   4.058   6.793   4.820
17624WAT     H253115   3.969   6.753   4.689
17625WAT      O53116   5.558   2.031   7.877
17625WAT     H153117   5.605   1.953   7.835
17625WAT     H253118   5.508   2.000   7.958
17626WAT      O53119   3.248   8.252   6.833
17626WAT     H153120   3.220   8.160   6.858
17626WAT     H253121   3.336   8.248   6.785
17627WAT      O53122   1.539   8.370   2.201
17627WAT     H153123   1.519   8.450   2.144
17627WAT     H253124   1.458   8.346   2.254
17628WAT      O53125   6.768   4.409   3.066
17628WAT     H153126   6.854   4.453   3.041
17628WAT     H253127   6.784   4.344   3.140
17629WAT      O53128   4.505   3.583   3.832
17629WAT     H153129   4.518   3.488   3.803
17629WAT     H253130   4.428   3.588   3.896
17630WAT      O53131   6.334   8.928   6.188
17630WAT     H153132   6.279   8.847   6.211
17630WAT     H253133   6.415   8.930   6.247
17631WAT      O53134   3.167   7.489   2.237
17631WAT     H153135   3.142   7.393   2.252
17631WAT     H253136   3.181   7.534   2.325
17632WAT      O53137   0.322   1.739   8.009
17632WAT     H153138   0.247   1.803   7.992
17632WAT     H253139   0.406   1.791   8.025
17633WAT      O53140   4.228   1.319   0.614
17633WAT     H153141   4.213   1.238   0.558
17633WAT     H253142   4.280   1.294   0.696
17634WAT      O53143   0.044   5.373   3.495
17634WAT     H153144   0.060   5.424   3.411
17634WAT     H253145   0.127   5.323   3.521
17635WAT      O53146   8.107   5.623   4.509
17635WAT     H153147   8.028   5.635   4.569
17635WAT     H253148   8.085   5.655   4.417
17636WAT      O53149   1.768   6.488   0.680
17636WAT     H153150   1.776   6.388   0.675
17636WAT     H253151   1.699   6.513   0.748
17637WAT      O53152   1.467   0.348   4.630
17637WAT     H153153   1.368   0.360   4.635
17637WAT     H253154   1.503   0.325   4.721
17638WAT      O53155   0.957   2.389   5.302
17638WAT     H153156   1.057   2.386   5.302
17638WAT     H253157   0.921   2.298   5.320
17639WAT      O53158   7.842   9.646   9.880
17639WAT     H153159   7.855   9.742   9.852
17639WAT     H253160   7.766   9.607   9.829
17640WAT      O53161   1.483   3.461   4.311
17640WAT     H153162   1.439   3.411   4.237
17640WAT     H253163   1.454   3.557   4.309
17641WAT      O53164   5.063   0.394   3.085
17641WAT     H153165   5.042   0.471   3.025
17641WAT     H253166   5.022   0.409   3.175
17642WAT      O53167   4.765   8.884   8.915
17642WAT     H153168   4.684   8.843   8.957
17642WAT     H253169   4.848   8.839   8.949
17643WAT      O53170   6.461   1.500   8.345
17643WAT     H153171   6.476   1.505   8.444
17643WAT     H253172   6.528   1.436   8.305
17644WAT      O53173   3.574   8.389   1.273
17644WAT     H153174   3.517   8.430   1.202
17644WAT     H253175   3.516   8.351   1.345
17645WAT      O53176   5.484   8.571   7.812
17645WAT     H153177   5.544   8.514   7.869
17645WAT     H253178   5.389   8.543   7.827
17646WAT      O53179   7.314   6.842   8.647
17646WAT     H153180   7.298   6.926   8.595
17646WAT     H253181   7.228   6.811   8.687
17647WAT      O53182   2.647   8.538   7.308
17647WAT     H153183   2.656   8.551   7.407
17647WAT     H253184   2.554   8.509   7.286
17648WAT      O53185   6.620   7.802   9.646
17648WAT     H153186   6.557   7.725   9.661
17648WAT     H253187   6.580   7.864   9.579
17649WAT      O53188   4.421   1.960   0.672
17649WAT     H153189   4.440   2.005   0.585
17649WAT     H253190   4.329   1.984   0.703
17650WAT      O53191   3.079   8.988   7.191
17650WAT     H153192   3.066   8.894   7.159
17650WAT     H253193   3.130   8.987   7.277
17651WAT      O53194   5.546   3.417   6.869
17651WAT     H153195   5.601   3.370   6.800
17651WAT     H253196   5.505   3.349   6.930
17652WAT      O53197   0.068   2.690   7.803
17652WAT     H153198   0.143   2.624   7.810
17652WAT     H253199   0.102   2.782   7.827
17653WAT      O53200   9.747   6.062   4.684
17653WAT     H153201   9.825   6.109   4.643
17653WAT     H253202   9.672   6.128   4.697
17654WAT      O53203   7.751   6.467   6.591
17654WAT     H153204   7.827   6.402   6.588
17654WAT     H253205   7.749   6.511   6.681
17655WAT      O53206   1.967   5.668   8.226
17655WAT     H153207   1.938   5.687   8.320
17655WAT     H253208   1.936   5.742   8.166
17656WAT      O53209   0.078   0.371   4.260
17656WAT     H153210  -0.013   0.393   4.224
17656WAT     H253211   0.143   0.441   4.231
17657WAT      O53212   4.394   1.719   0.777
17657WAT     H153213   4.414   1.800   0.721
17657WAT     H253214   4.312   1.674   0.741
17658WAT      O53215   4.976   9.475   8.431
17658WAT     H153216   4.991   9.563   8.476
17658WAT     H253217   5.019   9.402   8.485
17659WAT      O53218   6.874   5.974   1.674
17659WAT     H153219   6.955   5.915   1.682
17659WAT     H253220   6.884   6.033   1.594
17660WAT      O53221   1.833   8.496   1.361
17660WAT     H153222   1.793   8.522   1.274
17660WAT     H253223   1.856   8.399   1.360
17661WAT      O53224   9.565   2.366   8.059
17661WAT     H153225   9.616   2.361   8.145
17661WAT     H253226   9.618   2.420   7.993
17662WAT      O53227   6.562   3.483   2.155
17662WAT     H153228   6.644   3.540   2.159
17662WAT     H253229   6.529   3.465   2.248
17663WAT      O53230   5.157   6.249   7.801
17663WAT     H153231   5.189   6.299   7.720
17663WAT     H253232   5.187   6.297   7.884
17664WAT      O53233   4.612   0.222   7.901
17664WAT     H153234   4.690   0.178   7.856
17664WAT     H253235   4.527   0.185   7.864
17665WAT      O53236   0.903   7.341   1.544
17665WAT     H153237   0.957   7.260   1.566
17665WAT     H253238   0.837   7.319   1.472
17666WAT      O53239   7.811   9.603   1.919
17666WAT     H153240   7.715   9.617   1.941
17666WAT     H253241   7.818   9.557   1.830
17667WAT      O53242   0.840   4.491   1.487
17667WAT     H153243   0.814   4.458   1.578
17667WAT     H253244   0.767   4.549   1.451
17668WAT      O53245   0.761   8.275   4.696
17668WAT     H153246   0.748   8.214   4.775
17668WAT     H253247   0.718   8.363   4.714
17669WAT      O53248   0.015   9.518   8.985
17669WAT     H153249   0.058   9.548   8.899
17669WAT     H253250   0.084   9.479   9.045
17670WAT      O53251   0.726   6.942   9.499
17670WAT     H153252   0.645   6.979   9.544
17670WAT     H253253   0.699   6.880   9.425
17671WAT      O53254   3.246   1.959   8.887
17671WAT     H153255   3.319   2.023   8.862
17671WAT     H253256   3.181   2.004   8.949
17672WAT      O53257   0.203   8.981   3.116
17672WAT     H153258   0.277   9.040   3.147
17672WAT     H253259   0.133   8.975   3.187
17673WAT      O53260   0.386   0.734   9.339
17673WAT     H153261   0.365   0.639   9.359
17673WAT     H253262   0.463   0.739   9.276
17674WAT      O53263   2.590   0.387   4.108
17674WAT     H153264   2.593   0.303   4.162
17674WAT     H253265   2.669   0.389   4.046
17675WAT      O53266   0.473   3.472   3.570
17675WAT     H153267   0.404   3.526   3.619
17675WAT     H253268   0.448   3.466   3.473
17676WAT      O53269   2.382   6.832   5.783
17676WAT     H153270   2.300   6.794   5.825
17676WAT     H253271   2.377   6.819   5.684
17677WAT      O53272   9.550   7.702   1.687
17677WAT     H153273   9.464   7.719   1.639
17677WAT     H253274   9.540   7.727   1.783
17678WAT      O53275   8.548   7.733   5.104
17678WAT     H153276   8.621   7.780   5.054
17678WAT     H253277   8.580   7.709   5.195
17679WAT      O53278   1.638   7.815   1.068
17679WAT     H153279   1.723   7.813   1.015
17679WAT     H253280   1.589   7.729   1.054
17680WAT      O53281   9.883   6.804   0.794
17680WAT     H153282   9.863   6.715   0.833
17680WAT     H253283   9.920   6.864   0.866
17681WAT      O53284   7.392   6.174   4.144
17681WAT     H153285   7.446   6.090   4.145
17681WAT     H253286   7.321   6.169   4.214
17682WAT      O53287   7.350   6.551   7.920
17682WAT     H153288   7.311   6.572   7.830
17682WAT     H253289   7.444   6.585   7.924
17683WAT      O53290   3.962   6.084   8.415
17683WAT     H153291   4.027   6.105   8.487
17683WAT     H253292   3.927   5.991   8.427
17684WAT      O53293   4.189   7.373   8.239
17684WAT     H153294   4.155   7.318   8.315
17684WAT     H253295   4.288   7.382   8.246
17685WAT      O53296   0.867   2.959   9.138
17685WAT     H153297   0.785   2.907   9.162
17685WAT     H253298   0.865   3.047   9.185
17686WAT      O53299   3.754   1.443   6.164
17686WAT     H153300   3.657   1.419   6.167
17686WAT     H253301   3.772   1.501   6.084
17687WAT      O53302   5.617   7.114   5.920
17687WAT     H153303   5.628   7.019   5.891
17687WAT     H253304   5.705   7.161   5.913
17688WAT      O53305   0.505   3.199   0.286
17688WAT     H153306   0.572   3.134   0.322
17688WAT     H253307   0.424   3.149   0.255
17689WAT      O53308   1.551   2.689   6.124
17689WAT     H153309   1.549   2.726   6.031
17689WAT     H253310   1.619   2.616   6.129
17690WAT      O53311   6.166   0.151   4.958
17690WAT     H153312   6.207   0.235   4.995
17690WAT     H253313   6.082   0.130   5.008
17691WAT      O53314   5.499   6.537   7.196
17691WAT     H153315   5.528   6.512   7.288
17691WAT     H253316   5.571   6.591   7.152
17692WAT      O53317   2.054   4.165   9.394
17692WAT     H153318   2.134   4.107   9.380
17692WAT     H253319   2.067   4.252   9.346
17693WAT      O53320   3.514   1.386   6.570
17693WAT     H153321   3.447   1.444   6.524
17693WAT     H253322   3.474   1.348   6.653
17694WAT      O53323   2.509   2.273   1.395
17694WAT     H153324   2.509   2.373   1.392
17694WAT     H253325   2.493   2.237   1.303
17695WAT      O53326   2.499   2.858   0.982
17695WAT     H153327   2.595   2.831   0.993
17695WAT     H253328   2.448   2.831   1.064
17696WAT      O53329   4.049   8.469   7.635
17696WAT     H153330   3.964   8.474   7.582
17696WAT     H253331   4.127   8.457   7.572
17697WAT      O53332   7.817   9.634   5.475
17697WAT     H153333   7.871   9.718   5.474
17697WAT     H253334   7.759   9.633   5.557
17698WAT      O53335   7.519   7.917   7.661
17698WAT     H153336   7.506   7.832   7.712
17698WAT     H253337   7.515   7.898   7.563
17699WAT      O53338   7.217   0.417   4.606
17699WAT     H153339   7.186   0.342   4.664
17699WAT     H253340   7.139   0.460   4.561
17700WAT      O53341   2.746   3.597   2.690
17700WAT     H153342   2.750   3.543   2.774
17700WAT     H253343   2.764   3.538   2.612
17701WAT      O53344   2.815   8.506   5.353
17701WAT     H153345   2.793   8.430   5.293
17701WAT     H253346   2.897   8.553   5.319
17702WAT      O53347   7.640   3.998   0.580
17702WAT     H153348   7.577   4.063   0.624
17702WAT     H253349   7.689   3.948   0.651
17703WAT      O53350   3.540   7.642   1.726
17703WAT     H153351   3.463   7.579   1.720
17703WAT     H253352   3.625   7.593   1.703
17704WAT      O53353   8.167   6.725   6.074
17704WAT     H153354   8.086   6.770   6.037
17704WAT     H253355   8.201   6.776   6.153
17705WAT      O53356   8.373   4.955   2.216
17705WAT     H153357   8.366   4.923   2.311
17705WAT     H253358   8.405   5.050   2.216
17706WAT      O53359   4.671   2.395   4.030
17706WAT     H153360   4.708   2.430   4.116
17706WAT     H253361   4.643   2.471   3.972
17707WAT      O53362   2.899   3.510   3.577
17707WAT     H153363   2.943   3.426   3.545
17707WAT     H253364   2.894   3.576   3.503
17708WAT      O53365   3.166   3.300   4.397
17708WAT     H153366   3.075   3.258   4.403
17708WAT     H253367   3.227   3.239   4.346
17709WAT      O53368   4.000   8.328   0.922
17709WAT     H153369   3.997   8.371   0.832
17709WAT     H253370   3.939   8.249   0.923
17710WAT      O53371   1.307   3.437   0.839
17710WAT     H153372   1.381   3.371   0.852
17710WAT     H253373   1.266   3.425   0.749
17711WAT      O53374   8.212   5.590   8.287
17711WAT     H153375   8.237   5.525   8.359
17711WAT     H253376   8.234   5.683   8.318
17712WAT      O53377   7.394   2.523   1.009
17712WAT     H153378   7.373   2.448   1.072
17712WAT     H253379   7.493   2.532   1.001
17713WAT      O53380   8.067   7.139   7.051
17713WAT     H153381   7.968   7.140   7.041
17713WAT     H253382   8.099   7.231   7.071
17714WAT      O53383   5.107   5.925   2.416
17714WAT     H153384   5.089   5.836   2.457
17714WAT     H253385   5.021   5.965   2.384
17715WAT      O53386   5.890   8.018   3.240
17715WAT     H153387   5.968   8.080   3.253
17715WAT     H253388   5.908   7.932   3.289
17716WAT      O53389   4.601   1.270   0.818
17716WAT     H153390   4.659   1.193   0.788
17716WAT     H253391   4.639   1.308   0.902
17717WAT      O53392   8.961   2.122   7.886
17717WAT     H153393   8.962   2.054   7.960
17717WAT     H253394   9.052   2.162   7.876
17718WAT      O53395   6.319   4.615   9.302
17718WAT     H153396   6.250   4.547   9.278
17718WAT     H253397   6.298   4.655   9.390
17719WAT      O53398   4.293   4.698   0.825
17719WAT     H153399   4.314   4.758   0.748
17719WAT     H253400   4.263   4.753   0.904
17720WAT      O53401   3.629   7.710   7.349
17720WAT     H153402   3.695   7.637   7.365
17720WAT     H253403   3.595   7.743   7.437
17721WAT      O53404   7.899   7.237   5.634
17721WAT     H153405   7.820   7.202   5.683
17721WAT     H253406   7.896   7.205   5.539
17722WAT      O53407   1.627   5.100   0.770
17722WAT     H153408   1.569   5.034   0.817
17722WAT     H253409   1.580   5.189   0.767
17723WAT      O53410   4.596   6.954   2.852
17723WAT     H153411   4.628   6.908   2.935
17723WAT     H253412   4.660   7.028   2.829
17724WAT      O53413   7.123   4.088   1.109
17724WAT     H153414   7.129   4.051   1.201
17724WAT     H253415   7.166   4.024   1.045
17725WAT      O53416   5.896   8.363   4.968
17725WAT     H153417   5.855   8.335   4.881
17725WAT     H253418   5.826   8.367   5.039
17726WAT      O53419   5.855   0.317   7.620
17726WAT     H153420   5.942   0.355   7.654
17726WAT     H253421   5.808   0.385   7.565
17727WAT      O53422   9.026   8.872   2.868
17727WAT     H153423   8.979   8.949   2.911
17727WAT     H253424   9.030   8.796   2.931
17728WAT      O53425   2.962   3.316   8.204
17728WAT     H153426   3.008   3.375   8.270
17728WAT     H253427   2.863   3.319   8.219
17729WAT      O53428   6.220   4.202   4.106
17729WAT     H153429   6.277   4.121   4.115
17729WAT     H253430   6.205   4.242   4.196
17730WAT      O53431   6.504   4.905   1.498
17730WAT     H153432   6.597   4.879   1.472
17730WAT     H253433   6.457   4.944   1.418
17731WAT      O53434   7.338   5.239   5.707
17731WAT     H153435   7.244   5.263   5.684
17731WAT     H253436   7.400   5.313   5.678
17732WAT      O53437   0.545   3.713   5.354
17732WAT     H153438   0.497   3.772   5.419
17732WAT     H253439   0.491   3.705   5.270
17733WAT      O53440   9.598   5.181   9.310
17733WAT     H153441   9.594   5.240   9.391
17733WAT     H253442   9.569   5.232   9.229
17734WAT      O53443   4.192   3.815   5.130
17734WAT     H153444   4.221   3.907   5.104
17734WAT     H253445   4.099   3.819   5.168
17735WAT      O53446   1.397   7.043   2.246
17735WAT     H153447   1.301   7.061   2.263
17735WAT     H253448   1.412   7.029   2.149
17736WAT      O53449   3.093   4.157   4.067
17736WAT     H153450   3.121   4.100   4.144
17736WAT     H253451   2.997   4.183   4.076
17737WAT      O53452   4.507   6.014   6.377
17737WAT     H153453   4.551   6.002   6.288
17737WAT     H253454   4.434   5.947   6.386
17738WAT      O53455   4.453   4.508   4.065
17738WAT     H153456   4.417   4.452   4.140
17738WAT     H253457   4.409   4.598   4.067
17739WAT      O53458   7.250   0.339   6.467
17739WAT     H153459   7.277   0.405   6.397
17739WAT     H253460   7.281   0.247   6.441
17740WAT      O53461   1.475   3.026   7.194
17740WAT     H153462   1.489   3.110   7.142
17740WAT     H253463   1.380   3.021   7.225
17741WAT      O53464   9.587   8.958   9.229
17741WAT     H153465   9.525   9.034   9.249
17741WAT     H253466   9.659   8.988   9.167
17742WAT      O53467   7.842   8.125   1.969
17742WAT     H153468   7.806   8.129   1.876
17742WAT     H253469   7.914   8.194   1.979
17743WAT      O53470   7.035   8.911   3.364
17743WAT     H153471   7.068   9.002   3.388
17743WAT     H253472   7.023   8.905   3.265
17744WAT      O53473   4.783   9.019   2.168
17744WAT     H153474   4.800   9.036   2.266
17744WAT     H253475   4.777   8.921   2.151
17745WAT      O53476   0.973   8.001   4.384
17745WAT     H153477   0.978   8.025   4.287
17745WAT     H253478   1.064   8.002   4.423
17746WAT      O53479   8.511   9.432   9.191
17746WAT     H153480   8.509   9.334   9.174
17746WAT     H253481   8.534   9.449   9.286
17747WAT      O53482   9.780   3.413   7.163
17747WAT     H153483   9.746   3.436   7.072
17747WAT     H253484   9.707   3.426   7.231
17748WAT      O53485   3.766   5.154   6.489
17748WAT     H153486   3.670   5.142   6.511
17748WAT     H253487   3.779   5.242   6.442
17749WAT      O53488   5.361   2.868   2.426
17749WAT     H153489   5.362   2.811   2.345
17749WAT     H253490   5.312   2.822   2.500
17750WAT      O53491   1.043   7.095   7.885
17750WAT     H153492   0.977   7.019   7.883
17750WAT     H253493   1.099   7.088   7.968
17751WAT      O53494   1.858   6.913   0.458
17751WAT     H153495   1.812   6.849   0.520
17751WAT     H253496   1.794   6.982   0.427
17752WAT      O53497   8.271   4.661   8.301
17752WAT     H153498   8.351   4.637   8.355
17752WAT     H253499   8.275   4.758   8.278
17753WAT      O53500   4.190   5.956   3.809
17753WAT     H153501   4.233   6.046   3.808
17753WAT     H253502   4.259   5.886   3.795
17754WAT      O53503   5.479   7.565   1.299
17754WAT     H153504   5.446   7.638   1.239
17754WAT     H253505   5.569   7.590   1.336
17755WAT      O53506   4.567   1.439   6.765
17755WAT     H153507   4.520   1.527   6.754
17755WAT     H253508   4.516   1.382   6.829
17756WAT      O53509   8.371   7.722   3.474
17756WAT     H153510   8.301   7.706   3.404
17756WAT     H253511   8.337   7.691   3.563
17757WAT      O53512   9.874   2.288   8.495
17757WAT     H153513   9.957   2.313   8.545
17757WAT     H253514   9.879   2.192   8.469
17758WAT      O53515   1.163   4.882   0.538
17758WAT     H153516   1.181   4.909   0.632
17758WAT     H253517   1.070   4.907   0.512
17759WAT      O53518   3.874   4.321   7.879
17759WAT     H153519   3.798   4.363   7.829
17759WAT     H253520   3.950   4.304   7.817
17760WAT      O53521   7.290   3.537   9.569
17760WAT     H153522   7.243   3.450   9.554
17760WAT     H253523   7.323   3.541   9.664
17761WAT      O53524   5.493   0.602   5.580
17761WAT     H153525   5.440   0.668   5.633
17761WAT     H253526   5.589   0.610   5.604
17762WAT      O53527   2.936   3.462   0.031
17762WAT     H153528   2.876   3.460  -0.049
17762WAT     H253529   3.020   3.512   0.009
17763WAT      O53530   0.075   1.134   1.663
17763WAT     H153531   0.113   1.148   1.755
17763WAT     H253532  -0.016   1.095   1.670
17764WAT      O53533   1.783   2.529   5.670
17764WAT     H153534   1.776   2.606   5.605
17764WAT     H253535   1.866   2.539   5.724
17765WAT      O53536   4.891   0.151   7.354
17765WAT     H153537   4.923   0.058   7.370
17765WAT     H253538   4.801   0.162   7.395
17766WAT      O53539   4.339   2.930   8.543
17766WAT     H153540   4.267   2.965   8.483
17766WAT     H253541   4.370   2.841   8.509
17767WAT      O53542   4.418   9.274   6.957
17767WAT     H153543   4.485   9.265   6.883
17767WAT     H253544   4.454   9.231   7.040
17768WAT      O53545   5.595   9.505   6.020
17768WAT     H153546   5.513   9.560   6.003
17768WAT     H253547   5.572   9.426   6.077
17769WAT      O53548   8.735   0.587   2.173
17769WAT     H153549   8.728   0.661   2.241
17769WAT     H253550   8.818   0.533   2.191
17770WAT      O53551   3.198   7.278   2.540
17770WAT     H153552   3.177   7.206   2.605
17770WAT     H253553   3.253   7.349   2.585
17771WAT      O53554   3.457   2.882   1.405
17771WAT     H153555   3.538   2.880   1.463
17771WAT     H253556   3.415   2.973   1.408
17772WAT      O53557   8.679   8.132   8.493
17772WAT     H153558   8.778   8.143   8.505
17772WAT     H253559   8.633   8.217   8.519
17773WAT      O53560   6.170   6.701   1.811
17773WAT     H153561   6.094   6.743   1.762
17773WAT     H253562   6.185   6.750   1.897
17774WAT      O53563   8.314   1.048   6.119
17774WAT     H153564   8.286   0.986   6.045
17774WAT     H253565   8.261   1.028   6.201
17775WAT      O53566   1.492   2.237   7.268
17775WAT     H153567   1.451   2.216   7.357
17775WAT     H253568   1.569   2.300   7.281
17776WAT      O53569   8.101   4.649   4.330
17776WAT     H153570   8.055   4.738   4.333
17776WAT     H253571   8.035   4.579   4.302
17777WAT      O53572   0.500   2.989   5.615
17777WAT     H153573   0.552   3.035   5.543
17777WAT     H253574   0.490   3.051   5.693
17778WAT      O53575   3.189   9.400   6.760
17778WAT     H153576   3.170   9.317   6.707
17778WAT     H253577   3.165   9.480   6.706
17779WAT      O53578   0.612   7.512   2.812
17779WAT     H153579   0.693   7.466   2.850
17779WAT     H253580   0.635   7.607   2.793
17780WAT      O53581   4.613   8.783   6.265
17780WAT     H153582   4.581   8.694   6.298
17780WAT     H253583   4.543   8.852   6.282
17781WAT      O53584   5.328   7.094   0.600
17781WAT     H153585   5.419   7.055   0.614
17781WAT     H253586   5.274   7.032   0.543
17782WAT      O53587   5.818   6.647   9.800
17782WAT     H153588   5.874   6.571   9.767
17782WAT     H253589   5.839   6.666   9.896
17783WAT      O53590   2.493   9.666   3.685
17783WAT     H153591   2.423   9.599   3.709
17783WAT     H253592   2.520   9.655   3.590
17784WAT      O53593   6.283   7.652   2.122
17784WAT     H153594   6.374   7.618   2.099
17784WAT     H253595   6.285   7.751   2.129
17785WAT      O53596   6.201   2.279   9.230
17785WAT     H153597   6.245   2.263   9.142
17785WAT     H253598   6.214   2.374   9.256
17786WAT      O53599   3.511   4.606   7.507
17786WAT     H153600   3.521   4.683   7.569
17786WAT     H253601   3.476   4.638   7.419
17787WAT      O53602   4.045   3.711   2.671
17787WAT     H153603   3.979   3.769   2.623
17787WAT     H253604   4.026   3.615   2.650
17788WAT      O53605   1.242   0.878   8.044
17788WAT     H153606   1.217   0.834   7.958
17788WAT     H253607   1.205   0.824   8.120
17789WAT      O53608   6.427   0.970   3.559
17789WAT     H153609   6.340   0.923   3.550
17789WAT     H253610   6.502   0.909   3.532
17790WAT      O53611   6.176   6.183   2.504
17790WAT     H153612   6.271   6.214   2.510
17790WAT     H253613   6.140   6.166   2.595
17791WAT      O53614   0.076   3.917   6.267
17791WAT     H153615   0.036   3.989   6.209
17791WAT     H253616   0.035   3.829   6.244
17792WAT      O53617   0.841   0.096   3.798
17792WAT     H153618   0.759   0.056   3.839
17792WAT     H253619   0.888   0.027   3.743
17793WAT      O53620   6.874   5.343   8.753
17793WAT     H153621   6.971   5.355   8.776
17793WAT     H253622   6.861   5.253   8.711
17794WAT      O53623   7.535   2.231   6.026
17794WAT     H153624   7.516   2.294   6.101
17794WAT     H253625   7.469   2.246   5.952
17795WAT      O53626   8.095   8.655   1.783
17795WAT     H153627   8.132   8.686   1.696
17795WAT     H253628   8.080   8.733   1.843
17796WAT      O53629   5.928   3.410   6.522
17796WAT     H153630   5.886   3.449   6.440
17796WAT     H253631   5.981   3.329   6.497
17797WAT      O53632   0.000   5.853   2.033
17797WAT     H153633  -0.036   5.787   2.099
17797WAT     H253634   0.043   5.929   2.083
17798WAT      O53635   9.491   5.963   0.044
17798WAT     H153636   9.408   6.003   0.083
17798WAT     H253637   9.519   6.017  -0.035
17799WAT      O53638   0.384   5.122   1.784
17799WAT     H153639   0.385   5.050   1.853
17799WAT     H253640   0.467   5.178   1.793
17800WAT      O53641   5.399   9.486   1.982
17800WAT     H153642   5.497   9.503   1.990
17800WAT     H253643   5.382   9.429   1.902
17801WAT      O53644   8.476   4.409   4.610
17801WAT     H153645   8.576   4.411   4.614
17801WAT     H253646   8.443   4.482   4.550
17802WAT      O53647   0.468   0.118   6.855
17802WAT     H153648   0.523   0.083   6.932
17802WAT     H253649   0.529   0.151   6.783
17803WAT      O53650   5.516   8.162   1.090
17803WAT     H153651   5.520   8.116   1.179
17803WAT     H253652   5.546   8.097   1.019
17804WAT      O53653   9.046   9.675   7.625
17804WAT     H153654   9.047   9.764   7.669
17804WAT     H253655   9.100   9.610   7.680
17805WAT      O53656   3.956   8.918   5.412
17805WAT     H153657   4.009   8.900   5.495
17805WAT     H253658   3.864   8.878   5.421
17806WAT      O53659   3.034   1.664   3.953
17806WAT     H153660   3.068   1.664   3.859
17806WAT     H253661   3.107   1.692   4.015
17807WAT      O53662   5.758   8.282   7.261
17807WAT     H153663   5.794   8.209   7.203
17807WAT     H253664   5.785   8.264   7.356
17808WAT      O53665   2.080   8.435   6.404
17808WAT     H153666   2.179   8.423   6.391
17808WAT     H253667   2.051   8.388   6.487
17809WAT      O53668   4.965   1.364   1.630
17809WAT     H153669   5.013   1.403   1.709
17809WAT     H253670   4.892   1.425   1.602
17810WAT      O53671   7.624   3.626   0.815
17810WAT     H153672   7.611   3.555   0.746
17810WAT     H253673   7.558   3.613   0.889
17811WAT      O53674   2.046   7.212   2.688
17811WAT     H153675   2.032   7.234   2.784
17811WAT     H253676   2.103   7.130   2.681
17812WAT      O53677   0.185   0.613   2.190
17812WAT     H153678   0.107   0.574   2.141
17812WAT     H253679   0.162   0.705   2.221
17813WAT      O53680   0.853   2.418   8.224
17813WAT     H153681   0.839   2.397   8.128
17813WAT     H253682   0.935   2.372   8.257
17814WAT      O53683   2.467   2.166   8.164
17814WAT     H153684   2.485   2.135   8.258
17814WAT     H253685   2.396   2.236   8.165
17815WAT      O53686   7.047   6.699   0.014
17815WAT     H153687   7.057   6.798   0.021
17815WAT     H253688   7.071   6.657   0.101
17816WAT      O53689   3.179   9.114   2.976
17816WAT     H153690   3.081   9.126   2.959
17816WAT     H253691   3.199   9.131   3.072
17817WAT      O53692   6.562   7.362   6.426
17817WAT     H153693   6.476   7.412   6.415
17817WAT     H253694   6.598   7.378   6.518
17818WAT      O53695   2.151   4.290   7.664
17818WAT     H153696   2.225   4.237   7.623
17818WAT     H253697   2.093   4.328   7.591
17819WAT      O53698   7.787   2.123   7.287
17819WAT     H153699   7.727   2.173   7.224
17819WAT     H253700   7.739   2.109   7.373
17820WAT      O53701   3.647   6.674   6.771
17820WAT     H153702   3.550   6.691   6.790
17820WAT     H253703   3.699   6.758   6.789
17821WAT      O53704   9.216   4.002   8.702
17821WAT     H153705   9.288   3.939   8.672
17821WAT     H253706   9.220   4.012   8.801
17822WAT      O53707   4.496   9.456   4.275
17822WAT     H153708   4.543   9.369   4.290
17822WAT     H253709   4.397   9.443   4.285
17823WAT      O53710   0.487   9.591   4.272
17823WAT     H153711   0.410   9.646   4.240
17823WAT     H253712   0.567   9.649   4.284
17824WAT      O53713   1.883   8.118   8.658
17824WAT     H153714   1.847   8.201   8.615
17824WAT     H253715   1.974   8.099   8.622
17825WAT      O53716   3.434   9.689   6.188
17825WAT     H153717   3.434   9.592   6.164
17825WAT     H253718   3.340   9.723   6.187
17826WAT      O53719   2.037   9.460   3.145
17826WAT     H153720   2.112   9.397   3.167
17826WAT     H253721   1.956   9.434   3.198
17827WAT      O53722   2.242   4.267   1.821
17827WAT     H153723   2.152   4.287   1.859
17827WAT     H253724   2.254   4.315   1.734
17828WAT      O53725   1.341   3.011   3.652
17828WAT     H153726   1.307   3.104   3.662
17828WAT     H253727   1.412   3.009   3.581
17829WAT      O53728   3.251   3.565   5.866
17829WAT     H153729   3.263   3.521   5.777
17829WAT     H253730   3.337   3.560   5.917
17830WAT      O53731   9.660   0.133   6.339
17830WAT     H153732   9.616   0.044   6.352
17830WAT     H253733   9.590   0.203   6.325
17831WAT      O53734   4.075   9.259   4.041
17831WAT     H153735   4.095   9.193   4.113
17831WAT     H253736   4.113   9.226   3.954
17832WAT      O53737   0.466   1.610   5.404
17832WAT     H153738   0.478   1.703   5.372
17832WAT     H253739   0.474   1.608   5.504
17833WAT      O53740   6.851   7.229   0.630
17833WAT     H153741   6.848   7.224   0.730
17833WAT     H253742   6.878   7.321   0.602
17834WAT      O53743   2.865   4.880   9.310
17834WAT     H153744   2.819   4.932   9.237
17834WAT     H253745   2.805   4.875   9.389
17835WAT      O53746   2.407   1.026   0.975
17835WAT     H153747   2.429   0.937   0.935
17835WAT     H253748   2.490   1.081   0.982
17836WAT      O53749   2.765   3.091   2.668
17836WAT     H153750   2.823   3.080   2.749
17836WAT     H253751   2.761   3.004   2.619
17837WAT      O53752   3.775   1.394   2.336
17837WAT     H153753   3.794   1.308   2.289
17837WAT     H253754   3.695   1.438   2.295
17838WAT      O53755   1.266   8.591   0.328
17838WAT     H153756   1.355   8.633   0.312
17838WAT     H253757   1.265   8.499   0.289
17839WAT      O53758   2.648   9.320   4.272
17839WAT     H153759   2.620   9.342   4.179
17839WAT     H253760   2.593   9.372   4.337
17840WAT      O53761   4.146   1.019   6.522
17840WAT     H153762   4.195   1.008   6.435
17840WAT     H253763   4.208   1.000   6.598
17841WAT      O53764   3.717   9.552   3.882
17841WAT     H153765   3.711   9.551   3.782
17841WAT     H253766   3.812   9.549   3.910
17842WAT      O53767   8.439   6.657   5.668
17842WAT     H153768   8.389   6.571   5.669
17842WAT     H253769   8.409   6.713   5.745
17843WAT      O53770   5.089   3.766   5.611
17843WAT     H153771   5.064   3.674   5.641
17843WAT     H253772   5.088   3.770   5.511
17844WAT      O53773   7.941   7.953   7.002
17844WAT     H153774   7.853   7.954   7.048
17844WAT     H253775   7.930   7.983   6.907
17845WAT      O53776   4.056   3.714   0.230
17845WAT     H153777   3.986   3.682   0.167
17845WAT     H253778   4.085   3.806   0.204
17846WAT      O53779   8.521   3.742   4.885
17846WAT     H153780   8.487   3.833   4.863
17846WAT     H253781   8.486   3.713   4.974
17847WAT      O53782   7.656   1.563   6.784
17847WAT     H153783   7.651   1.597   6.878
17847WAT     H253784   7.576   1.595   6.733
17848WAT      O53785   1.297   4.017   5.683
17848WAT     H153786   1.205   4.052   5.698
17848WAT     H253787   1.293   3.931   5.632
17849WAT      O53788   8.549   3.616   9.296
17849WAT     H153789   8.469   3.660   9.255
17849WAT     H253790   8.564   3.527   9.252
17850WAT      O53791   5.894   2.288   4.360
17850WAT     H153792   5.932   2.358   4.300
17850WAT     H253793   5.964   2.219   4.379
17851WAT      O53794   6.044   8.885   6.734
17851WAT     H153795   6.042   8.847   6.642
17851WAT     H253796   5.998   8.822   6.797
17852WAT      O53797   0.005   1.973   7.369
17852WAT     H153798   0.031   2.057   7.415
17852WAT     H253799  -0.072   1.930   7.418
17853WAT      O53800   9.043   6.540   2.581
17853WAT     H153801   8.991   6.565   2.499
17853WAT     H253802   8.981   6.497   2.646
17854WAT      O53803   7.502   4.916   5.903
17854WAT     H153804   7.428   4.974   5.870
17854WAT     H253805   7.552   4.963   5.975
17855WAT      O53806   9.154   5.256   4.460
17855WAT     H153807   9.219   5.306   4.403
17855WAT     H253808   9.091   5.321   4.503
17856WAT      O53809   9.334   6.905   5.431
17856WAT     H153810   9.300   6.919   5.524
17856WAT     H253811   9.429   6.935   5.425
17857WAT      O53812   2.886   0.709   1.932
17857WAT     H153813   2.801   0.731   1.886
17857WAT     H253814   2.871   0.706   2.031
17858WAT      O53815   8.787   7.235   3.537
17858WAT     H153816   8.701   7.223   3.586
17858WAT     H253817   8.826   7.145   3.516
17859WAT      O53818   4.692   3.969   2.257
17859WAT     H153819   4.662   3.966   2.352
17859WAT     H253820   4.742   3.885   2.235
17860WAT      O53821   1.026   4.583   5.739
17860WAT     H153822   1.066   4.663   5.783
17860WAT     H253823   0.954   4.612   5.676
17861WAT      O53824   6.374   5.998   1.804
17861WAT     H153825   6.384   6.023   1.900
17861WAT     H253826   6.332   6.073   1.754
17862WAT      O53827   4.968   9.341   8.013
17862WAT     H153828   4.998   9.344   7.917
17862WAT     H253829   5.004   9.420   8.062
17863WAT      O53830   0.417   8.407   4.097
17863WAT     H153831   0.470   8.485   4.065
17863WAT     H253832   0.478   8.333   4.124
17864WAT      O53833   2.109   8.126   8.930
17864WAT     H153834   2.035   8.071   8.891
17864WAT     H253835   2.181   8.065   8.963
17865WAT      O53836   1.626   3.994   8.822
17865WAT     H153837   1.675   3.908   8.836
17865WAT     H253838   1.674   4.049   8.754
17866WAT      O53839   5.572   7.103   9.228
17866WAT     H153840   5.540   7.016   9.192
17866WAT     H253841   5.665   7.093   9.262
17867WAT      O53842   8.628   5.933   0.634
17867WAT     H153843   8.717   5.903   0.600
17867WAT     H253844   8.638   5.967   0.727
17868WAT      O53845   5.280   5.699   5.227
17868WAT     H153846   5.361   5.732   5.276
17868WAT     H253847   5.277   5.599   5.230
17869WAT      O53848   1.425   3.328   3.104
17869WAT     H153849   1.478   3.309   3.021
17869WAT     H253850   1.406   3.426   3.109
17870WAT      O53851   4.368   6.888   4.430
17870WAT     H153852   4.356   6.918   4.335
17870WAT     H253853   4.378   6.788   4.433
17871WAT      O53854   6.699   8.095   6.274
17871WAT     H153855   6.691   8.070   6.178
17871WAT     H253856   6.751   8.180   6.282
17872WAT      O53857   5.176   5.075   9.417
17872WAT     H153858   5.154   5.156   9.471
17872WAT     H253859   5.275   5.060   9.416
17873WAT      O53860   0.235   1.874   7.469
17873WAT     H153861   0.158   1.907   7.413
17873WAT     H253862   0.310   1.941   7.464
17874WAT      O53863   6.768   0.581   5.616
17874WAT     H153864   6.800   0.538   5.531
17874WAT     H253865   6.757   0.680   5.601
17875WAT      O53866   6.074   6.119   7.831
17875WAT     H153867   6.140   6.104   7.905
17875WAT     H253868   6.115   6.179   7.762
17876WAT      O53869   9.598   6.713   7.442
17876WAT     H153870   9.541   6.794   7.437
17876WAT     H253871   9.541   6.631   7.434
17877WAT      O53872   9.349   3.552   3.201
17877WAT     H153873   9.299   3.638   3.200
17877WAT     H253874   9.409   3.549   3.282
17878WAT      O53875   4.335   9.097   4.011
17878WAT     H153876   4.429   9.074   4.033
17878WAT     H253877   4.331   9.192   3.980
17879WAT      O53878   9.837   1.526   2.911
17879WAT     H153879   9.894   1.512   2.992
17879WAT     H253880   9.748   1.482   2.926
17880WAT      O53881   6.161   6.088   0.618
17880WAT     H153882   6.082   6.048   0.572
17880WAT     H253883   6.237   6.097   0.554
17881WAT      O53884   3.416   3.205   7.333
17881WAT     H153885   3.384   3.110   7.335
17881WAT     H253886   3.350   3.263   7.380
17882WAT      O53887   5.581   0.786   7.898
17882WAT     H153888   5.502   0.811   7.954
17882WAT     H253889   5.557   0.792   7.801
17883WAT      O53890   5.083   1.539   6.605
17883WAT     H153891   5.133   1.543   6.519
17883WAT     H253892   4.985   1.533   6.586
17884WAT      O53893   2.579   0.217   7.459
17884WAT     H153894   2.679   0.220   7.463
17884WAT     H253895   2.550   0.131   7.417
17885WAT      O53896   2.036   7.565   2.475
17885WAT     H153897   2.122   7.546   2.522
17885WAT     H253898   2.054   7.587   2.379
17886WAT      O53899   1.883   0.870   9.143
17886WAT     H153900   1.793   0.896   9.107
17886WAT     H253901   1.904   0.925   9.225
17887WAT      O53902   7.692   7.566   5.072
17887WAT     H153903   7.766   7.630   5.049
17887WAT     H253904   7.607   7.597   5.030
17888WAT      O53905   4.069   8.331   9.161
17888WAT     H153906   4.036   8.397   9.229
17888WAT     H253907   4.149   8.284   9.198
17889WAT      O53908   3.208   4.918   4.196
17889WAT     H153909   3.262   4.873   4.124
17889WAT     H253910   3.209   5.017   4.181
17890WAT      O53911   2.927   2.182   3.117
17890WAT     H153912   2.915   2.146   3.024
17890WAT     H253913   3.024   2.198   3.134
17891WAT      O53914   7.161   6.995   6.357
17891WAT     H153915   7.079   7.046   6.331
17891WAT     H253916   7.136   6.921   6.419
17892WAT      O53917   7.037   8.382   6.748
17892WAT     H153918   6.996   8.468   6.719
17892WAT     H253919   7.068   8.331   6.667
17893WAT      O53920   5.696   7.929   1.760
17893WAT     H153921   5.747   8.009   1.791
17893WAT     H253922   5.606   7.957   1.728
17894WAT      O53923   3.692   5.242   8.070
17894WAT     H153924   3.624   5.172   8.050
17894WAT     H253925   3.771   5.230   8.010
17895WAT      O53926   1.770   7.640   3.139
17895WAT     H153927   1.694   7.612   3.196
17895WAT     H253928   1.840   7.568   3.137
17896WAT      O53929   4.096   1.134   9.666
17896WAT     H153930   4.110   1.066   9.737
17896WAT     H253931   4.173   1.199   9.666
17897WAT      O53932   7.910   7.727   1.799
17897WAT     H153933   7.858   7.703   1.717
17897WAT     H253934   7.859   7.793   1.854
17898WAT      O53935   6.098   1.134   6.147
17898WAT     H153936   6.146   1.049   6.131
17898WAT     H253937   6.163   1.210   6.147
17899WAT      O53938   0.996   1.771   2.068
17899WAT     H153939   1.011   1.732   1.978
17899WAT     H253940   1.016   1.703   2.138
17900WAT      O53941   7.706   0.115   4.477
17900WAT     H153942   7.688   0.022   4.443
17900WAT     H253943   7.760   0.110   4.561
17901WAT      O53944   3.717   3.665   8.097
17901WAT     H153945   3.666   3.601   8.040
17901WAT     H253946   3.750   3.618   8.179
17902WAT      O53947   1.469   4.278   7.238
17902WAT     H153948   1.383   4.279   7.289
17902WAT     H253949   1.450   4.276   7.140
17903WAT      O53950   3.656   6.753   1.425
17903WAT     H153951   3.656   6.714   1.517
17903WAT     H253952   3.613   6.843   1.427
17904WAT      O53953   5.282   5.952   2.731
17904WAT     H153954   5.376   5.958   2.699
17904WAT     H253955   5.251   5.857   2.728
17905WAT      O53956   1.555   7.918   3.768
17905WAT     H153957   1.524   7.832   3.807
17905WAT     H253958   1.649   7.937   3.797
17906WAT      O53959   7.113   4.904   7.487
17906WAT     H153960   7.060   4.989   7.480
17906WAT     H253961   7.056   4.831   7.523
17907WAT      O53962   9.096   0.499   2.799
17907WAT     H153963   9.090   0.402   2.819
17907WAT     H253964   9.115   0.550   2.884
17908WAT      O53965   8.310   0.928   0.962
17908WAT     H153966   8.328   0.959   0.869
17908WAT     H253967   8.264   0.839   0.959
17909WAT      O53968   3.002   0.681   1.198
17909WAT     H153969   2.910   0.669   1.161
17909WAT     H253970   3.070   0.663   1.127
17910WAT      O53971   5.049   1.679   6.845
17910WAT     H153972   5.063   1.608   6.776
17910WAT     H253973   4.962   1.664   6.892
17911WAT      O53974   8.440   7.397   0.886
17911WAT     H153975   8.428   7.404   0.985
17911WAT     H253976   8.382   7.323   0.850
17912WAT      O53977   8.461   0.217   2.879
17912WAT     H153978   8.484   0.304   2.923
17912WAT     H253979   8.502   0.214   2.788
17913WAT      O53980   3.070   6.119   4.366
17913WAT     H153981   3.079   6.023   4.392
17913WAT     H253982   3.062   6.175   4.449
17914WAT      O53983   7.563   4.123   5.301
17914WAT     H153984   7.606   4.105   5.212
17914WAT     H253985   7.634   4.148   5.367
17915WAT      O53986   8.815   1.096   6.266
17915WAT     H153987   8.782   1.077   6.359
17915WAT     H253988   8.738   1.098   6.203
17916WAT      O53989   2.042   6.077   4.507
17916WAT     H153990   2.101   6.157   4.493
17916WAT     H253991   2.075   6.025   4.585
17917WAT      O53992   7.665   5.355   8.783
17917WAT     H153993   7.606   5.291   8.734
17917WAT     H253994   7.609   5.421   8.833
17918WAT      O53995   0.805   3.965   6.066
17918WAT     H153996   0.787   3.924   6.155
17918WAT     H253997   0.851   4.053   6.078
17919WAT      O53998   3.038   7.779   5.231
17919WAT     H153999   3.082   7.809   5.146
17919WAT     H254000   3.073   7.690   5.257
17920WAT      O54001   3.282   8.970   8.052
17920WAT     H154002   3.243   8.906   8.119
17920WAT     H254003   3.282   9.062   8.091
17921WAT      O54004   5.225   4.474   8.184
17921WAT     H154005   5.255   4.548   8.243
17921WAT     H254006   5.227   4.388   8.234
17922WAT      O54007   6.480   9.107   5.571
17922WAT     H154008   6.409   9.067   5.513
17922WAT     H254009   6.558   9.045   5.575
17923WAT      O54010   5.916   7.554   7.640
17923WAT     H154011   5.851   7.481   7.621
17923WAT     H254012   5.894   7.595   7.729
17924WAT      O54013   1.214   4.378   5.758
17924WAT     H154014   1.141   4.446   5.758
17924WAT     H254015   1.220   4.335   5.848
17925WAT      O54016   5.435   5.703   0.998
17925WAT     H154017   5.339   5.727   0.983
17925WAT     H254018   5.492   5.784   0.984
17926WAT      O54019   8.455   3.892   3.188
17926WAT     H154020   8.431   3.832   3.265
17926WAT     H254021   8.530   3.852   3.136
17927WAT      O54022   4.720   6.370   4.308
17927WAT     H154023   4.668   6.448   4.273
17927WAT     H254024   4.707   6.292   4.247
17928WAT      O54025   7.488   0.105   5.873
17928WAT     H154026   7.550   0.175   5.907
17928WAT     H254027   7.437   0.139   5.794
17929WAT      O54028   7.439   8.615   1.954
17929WAT     H154029   7.408   8.635   2.047
17929WAT     H254030   7.538   8.607   1.952
17930WAT      O54031   7.147   4.202   8.980
17930WAT     H154032   7.217   4.195   8.909
17930WAT     H254033   7.079   4.131   8.968
17931WAT      O54034   1.567   8.506   6.212
17931WAT     H154035   1.522   8.550   6.135
17931WAT     H254036   1.535   8.547   6.298
17932WAT      O54037   8.101   6.502   7.483
17932WAT     H154038   8.018   6.543   7.446
17932WAT     H254039   8.087   6.482   7.580
17933WAT      O54040   6.300   1.306   7.135
17933WAT     H154041   6.235   1.378   7.111
17933WAT     H254042   6.257   1.242   7.199
17934WAT      O54043   2.438   0.037   8.740
17934WAT     H154044   2.425   0.097   8.660
17934WAT     H254045   2.485  -0.046   8.712
17935WAT      O54046   3.457   9.571   4.430
17935WAT     H154047   3.525   9.539   4.496
17935WAT     H254048   3.374   9.516   4.439
17936WAT      O54049   5.806   3.900   1.126
17936WAT     H154050   5.731   3.912   1.061
17936WAT     H254051   5.858   3.985   1.132
17937WAT      O54052   7.825   1.914   3.627
17937WAT     H154053   7.741   1.897   3.576
17937WAT     H254054   7.899   1.860   3.588
17938WAT      O54055   3.797   0.451   3.046
17938WAT     H154056   3.866   0.396   2.998
17938WAT     H254057   3.842   0.530   3.087
17939WAT      O54058   7.378   1.106   6.623
17939WAT     H154059   7.439   1.059   6.687
17939WAT     H254060   7.428   1.124   6.538
17940WAT      O54061   4.592   0.507   3.389
17940WAT     H154062   4.502   0.466   3.401
17940WAT     H254063   4.636   0.467   3.308
17941WAT      O54064   2.976   2.172   0.718
17941WAT     H154065   2.992   2.147   0.814
17941WAT     H254066   2.973   2.271   0.709
17942WAT      O54067   5.368   7.471   4.980
17942WAT     H154068   5.312   7.499   5.058
17942WAT     H254069   5.463   7.502   4.995
17943WAT      O54070   7.742   2.418   9.658
17943WAT     H154071   7.707   2.328   9.682
17943WAT     H254072   7.781   2.415   9.565
17944WAT      O54073   0.831   3.865   8.974
17944WAT     H154074   0.873   3.890   9.061
17944WAT     H254075   0.821   3.766   8.969
17945WAT      O54076   8.186   3.541   3.320
17945WAT     H154077   8.208   3.618   3.260
17945WAT     H254078   8.103   3.561   3.371
17946WAT      O54079   5.992   9.153   3.443
17946WAT     H154080   6.091   9.146   3.427
17946WAT     H254081   5.951   9.062   3.440
17947WAT      O54082   8.645   8.579   4.057
17947WAT     H154083   8.720   8.641   4.034
17947WAT     H254084   8.567   8.596   3.995
17948WAT      O54085   3.043   5.859   5.118
17948WAT     H154086   2.964   5.869   5.058
17948WAT     H254087   3.056   5.943   5.171
17949WAT      O54088   6.621   4.700   9.490
17949WAT     H154089   6.546   4.721   9.552
17949WAT     H254090   6.632   4.776   9.425
17950WAT      O54091   1.966   8.543   3.221
17950WAT     H154092   1.981   8.540   3.319
17950WAT     H254093   1.870   8.564   3.203
17951WAT      O54094   9.777   7.006   1.445
17951WAT     H154095   9.813   6.937   1.508
17951WAT     H254096   9.678   7.012   1.454
17952WAT      O54097   4.421   6.708   3.826
17952WAT     H154098   4.500   6.749   3.781
17952WAT     H254099   4.365   6.660   3.758
17953WAT      O54100   2.837   5.560   5.267
17953WAT     H154101   2.753   5.613   5.270
17953WAT     H254102   2.835   5.497   5.189
17954WAT      O54103   1.418   9.496   1.054
17954WAT     H154104   1.454   9.566   0.992
17954WAT     H254105   1.320   9.486   1.040
17955WAT      O54106   0.363   8.070   5.819
17955WAT     H154107   0.456   8.042   5.840
17955WAT     H254108   0.317   8.097   5.904
17956WAT      O54109   7.223   2.682   0.869
17956WAT     H154110   7.273   2.639   0.943
17956WAT     H254111   7.151   2.621   0.837
17957WAT      O54112   9.094   6.856   5.803
17957WAT     H154113   9.033   6.825   5.730
17957WAT     H254114   9.060   6.825   5.891
17958WAT      O54115   0.115   1.316   6.133
17958WAT     H154116   0.126   1.414   6.119
17958WAT     H254117   0.205   1.275   6.152
17959WAT      O54118   7.304   8.977   7.455
17959WAT     H154119   7.379   9.043   7.452
17959WAT     H254120   7.274   8.964   7.550
17960WAT      O54121   0.795   5.697   2.585
17960WAT     H154122   0.854   5.756   2.640
17960WAT     H254123   0.818   5.601   2.604
17961WAT      O54124   6.596   8.771   1.788
17961WAT     H154125   6.636   8.791   1.877
17961WAT     H254126   6.669   8.746   1.724
17962WAT      O54127   9.792   4.284   1.620
17962WAT     H154128   9.849   4.352   1.666
17962WAT     H254129   9.696   4.299   1.645
17963WAT      O54130   8.258   2.958   0.733
17963WAT     H154131   8.178   2.986   0.681
17963WAT     H254132   8.341   2.981   0.681
17964WAT      O54133   1.022   1.192   7.088
17964WAT     H154134   1.023   1.219   6.992
17964WAT     H254135   1.074   1.107   7.099
17965WAT      O54136   5.843   2.392   8.957
17965WAT     H154137   5.776   2.465   8.945
17965WAT     H254138   5.883   2.368   8.868
17966WAT      O54139   4.875   4.529   4.090
17966WAT     H154140   4.895   4.627   4.097
17966WAT     H254141   4.959   4.477   4.107
17967WAT      O54142   8.067   0.453   1.386
17967WAT     H154143   8.033   0.547   1.394
17967WAT     H254144   8.022   0.395   1.454
17968WAT      O54145   9.386   1.261   0.818
17968WAT     H154146   9.431   1.349   0.830
17968WAT     H254147   9.290   1.275   0.795
17969WAT      O54148   3.276   7.133   2.307
17969WAT     H154149   3.273   7.039   2.340
17969WAT     H254150   3.232   7.193   2.373
17970WAT      O54151   0.656   7.648   6.680
17970WAT     H154152   0.729   7.662   6.612
17970WAT     H254153   0.695   7.652   6.771
17971WAT      O54154   6.202   0.519   3.090
17971WAT     H154155   6.180   0.422   3.102
17971WAT     H254156   6.290   0.528   3.044
17972WAT      O54157   1.822   7.733   4.483
17972WAT     H154158   1.785   7.727   4.390
17972WAT     H254159   1.789   7.816   4.527
17973WAT      O54160   5.461   1.377   8.775
17973WAT     H154161   5.557   1.358   8.797
17973WAT     H254162   5.436   1.329   8.691
17974WAT      O54163   3.826   4.189   0.227
17974WAT     H154164   3.764   4.263   0.253
17974WAT     H254165   3.913   4.227   0.198
17975WAT      O54166   1.721   2.915   7.586
17975WAT     H154167   1.633   2.933   7.630
17975WAT     H254168   1.717   2.942   7.490
17976WAT      O54169   7.135   6.528   8.546
17976WAT     H154170   7.079   6.549   8.466
17976WAT     H254171   7.232   6.536   8.522
17977WAT      O54172   8.181   6.594   9.858
17977WAT     H154173   8.192   6.669   9.923
17977WAT     H254174   8.083   6.579   9.840
17978WAT      O54175   5.535   5.482   2.348
17978WAT     H154176   5.571   5.389   2.357
17978WAT     H254177   5.590   5.533   2.282
17979WAT      O54178   4.958   2.766   3.433
17979WAT     H154179   4.898   2.829   3.481
17979WAT     H254180   4.921   2.747   3.342
17980WAT      O54181   4.689   0.103   6.238
17980WAT     H154182   4.747   0.052   6.175
17980WAT     H254183   4.717   0.084   6.332
17981WAT      O54184   2.216   9.588   9.212
17981WAT     H154185   2.155   9.571   9.135
17981WAT     H254186   2.304   9.623   9.178
17982WAT      O54187   4.297   4.097   8.932
17982WAT     H154188   4.319   4.191   8.960
17982WAT     H254189   4.266   4.097   8.837
17983WAT      O54190   7.845   5.268   8.257
17983WAT     H154191   7.934   5.238   8.221
17983WAT     H254192   7.800   5.191   8.303
17984WAT      O54193   8.196   0.253   0.902
17984WAT     H154194   8.263   0.199   0.953
17984WAT     H254195   8.168   0.203   0.821
17985WAT      O54196   7.270   5.954   1.577
17985WAT     H154197   7.332   5.903   1.518
17985WAT     H254198   7.188   5.899   1.596
17986WAT      O54199   7.189   3.179   5.267
17986WAT     H154200   7.245   3.119   5.324
17986WAT     H254201   7.249   3.235   5.209
17987WAT      O54202   9.575   1.366   1.301
17987WAT     H154203   9.625   1.309   1.236
17987WAT     H254204   9.639   1.415   1.359
17988WAT      O54205   6.612   8.844   3.932
17988WAT     H154206   6.641   8.905   4.005
17988WAT     H254207   6.522   8.806   3.953
17989WAT      O54208   5.867   1.886   2.139
17989WAT     H154209   5.817   1.959   2.094
17989WAT     H254210   5.803   1.813   2.166
17990WAT      O54211   1.262   3.264   3.709
17990WAT     H154212   1.201   3.342   3.698
17990WAT     H254213   1.335   3.287   3.774
17991WAT      O54214   7.488   9.688   0.130
17991WAT     H154215   7.535   9.654   0.211
17991WAT     H254216   7.457   9.781   0.145
17992WAT      O54217   0.949   5.094   0.303
17992WAT     H154218   0.932   5.042   0.386
17992WAT     H254219   0.976   5.031   0.229
17993WAT      O54220   5.828   8.728   1.510
17993WAT     H154221   5.843   8.815   1.462
17993WAT     H254222   5.799   8.658   1.444
17994WAT      O54223   6.103   9.183   0.384
17994WAT     H154224   6.161   9.201   0.464
17994WAT     H254225   6.137   9.102   0.336
17995WAT      O54226   2.907   7.219   1.743
17995WAT     H154227   2.899   7.303   1.690
17995WAT     H254228   2.846   7.224   1.823
17996WAT      O54229   1.008   6.149   0.241
17996WAT     H154230   1.082   6.146   0.308
17996WAT     H254231   0.990   6.245   0.216
17997WAT      O54232   6.742   4.394   5.286
17997WAT     H154233   6.812   4.323   5.290
17997WAT     H254234   6.709   4.414   5.378
17998WAT      O54235   7.600   0.471   6.541
17998WAT     H154236   7.598   0.509   6.634
17998WAT     H254237   7.687   0.493   6.497
17999WAT      O54238   1.697   2.914   2.060
17999WAT     H154239   1.710   2.928   1.961
17999WAT     H254240   1.617   2.966   2.091
18000WAT      O54241   4.564   5.795   1.847
18000WAT     H154242   4.572   5.874   1.786
18000WAT     H254243   4.571   5.827   1.942
18001WAT      O54244   0.512   3.314   8.667
18001WAT     H154245   0.599   3.285   8.707
18001WAT     H254246   0.438   3.258   8.703
18002WAT      O54247   7.587   3.001   3.342
18002WAT     H154248   7.610   3.095   3.317
18002WAT     H254249   7.665   2.941   3.323
18003WAT      O54250   5.414   9.201   7.435
18003WAT     H154251   5.322   9.162   7.441
18003WAT     H254252   5.444   9.199   7.339
18004WAT      O54253   0.495   7.797   8.989
18004WAT     H154254   0.497   7.704   9.026
18004WAT     H254255   0.533   7.860   9.057
18005WAT      O54256   7.240   1.207   2.225
18005WAT     H154257   7.277   1.185   2.316
18005WAT     H254258   7.315   1.226   2.162
18006WAT      O54259   5.502   3.327   5.684
18006WAT     H154260   5.415   3.375   5.670
18006WAT     H254261   5.564   3.386   5.735
18007WAT      O54262   9.257   5.304   3.437
18007WAT     H154263   9.173   5.341   3.477
18007WAT     H254264   9.325   5.288   3.509
18008WAT      O54265   8.064   6.585   6.717
18008WAT     H154266   7.968   6.564   6.735
18008WAT     H254267   8.118   6.564   6.798
18009WAT      O54268   2.730   0.728   2.626
18009WAT     H154269   2.716   0.799   2.557
18009WAT     H254270   2.760   0.771   2.712
18010WAT      O54271   3.596   5.111   7.791
18010WAT     H154272   3.554   5.202   7.794
18010WAT     H254273   3.634   5.095   7.700
18011WAT      O54274   4.103   2.646   8.374
18011WAT     H154275   4.199   2.619   8.383
18011WAT     H254276   4.046   2.564   8.372
18012WAT      O54277   2.187   9.336   6.734
18012WAT     H154278   2.274   9.287   6.738
18012WAT     H254279   2.178   9.380   6.645
18013WAT      O54280   6.104   3.504   5.520
18013WAT     H154281   6.189   3.510   5.572
18013WAT     H254282   6.092   3.587   5.466
18014WAT      O54283   4.326   0.430   3.515
18014WAT     H154284   4.344   0.353   3.575
18014WAT     H254285   4.278   0.399   3.433
18015WAT      O54286   8.497   7.744   4.032
18015WAT     H154287   8.409   7.786   4.012
18015WAT     H254288   8.485   7.674   4.102
18016WAT      O54289   4.456   3.449   6.566
18016WAT     H154290   4.522   3.380   6.535
18016WAT     H254291   4.385   3.460   6.497
18017WAT      O54292   4.331   7.633   3.470
18017WAT     H154293   4.244   7.630   3.421
18017WAT     H254294   4.393   7.566   3.431
18018WAT      O54295   4.793   5.022   3.329
18018WAT     H154296   4.809   5.112   3.369
18018WAT     H254297   4.787   5.031   3.229
18019WAT      O54298   5.682   5.430   7.486
18019WAT     H154299   5.664   5.458   7.391
18019WAT     H254300   5.770   5.381   7.489
18020WAT      O54301   8.565   2.161   8.982
18020WAT     H154302   8.654   2.168   8.936
18020WAT     H254303   8.537   2.251   9.015
18021WAT      O54304   5.913   5.163   0.892
18021WAT     H154305   5.998   5.137   0.846
18021WAT     H254306   5.917   5.135   0.988
18022WAT      O54307   3.005   9.206   8.395
18022WAT     H154308   3.006   9.169   8.488
18022WAT     H254309   2.918   9.184   8.351
18023WAT      O54310   6.109   3.236   0.410
18023WAT     H154311   6.131   3.144   0.443
18023WAT     H254312   6.089   3.296   0.488
18024WAT      O54313   8.579   9.750   5.418
18024WAT     H154314   8.551   9.844   5.399
18024WAT     H254315   8.588   9.700   5.332
18025WAT      O54316   1.056   8.691   4.485
18025WAT     H154317   0.986   8.643   4.538
18025WAT     H254318   1.037   8.680   4.387
18026WAT      O54319   6.903   4.899   6.551
18026WAT     H154320   6.849   4.825   6.510
18026WAT     H254321   6.999   4.888   6.525
18027WAT      O54322   3.532   8.240   8.490
18027WAT     H154323   3.507   8.332   8.461
18027WAT     H254324   3.629   8.224   8.474
18028WAT      O54325   5.016   6.499   9.350
18028WAT     H154326   5.006   6.436   9.272
18028WAT     H254327   5.080   6.572   9.326
18029WAT      O54328   9.105   8.018   0.038
18029WAT     H154329   9.037   8.068   0.091
18029WAT     H254330   9.144   7.945   0.094
18030WAT      O54331   4.222   0.908   4.988
18030WAT     H154332   4.227   0.834   5.055
18030WAT     H254333   4.190   0.871   4.900
18031WAT      O54334   0.701   0.577   8.083
18031WAT     H154335   0.752   0.661   8.103
18031WAT     H254336   0.691   0.566   7.984
18032WAT      O54337   3.619   2.089   7.587
18032WAT     H154338   3.672   2.162   7.629
18032WAT     H254339   3.618   2.010   7.649
18033WAT      O54340   4.987   3.439   9.293
18033WAT     H154341   4.918   3.492   9.244
18033WAT     H254342   5.051   3.501   9.338
18034WAT      O54343   5.916   7.885   9.673
18034WAT     H154344   5.915   7.983   9.654
18034WAT     H254345   5.999   7.862   9.725
18035WAT      O54346   3.799   2.867   3.130
18035WAT     H154347   3.775   2.950   3.179
18035WAT     H254348   3.884   2.830   3.166
18036WAT      O54349   3.337   2.854   7.924
18036WAT     H154350   3.304   2.944   7.951
18036WAT     H254351   3.366   2.857   7.828
18037WAT      O54352   2.431   2.281   4.371
18037WAT     H154353   2.332   2.290   4.355
18037WAT     H254354   2.467   2.207   4.314
18038WAT      O54355   5.335   3.977   0.885
18038WAT     H154356   5.306   3.955   0.978
18038WAT     H254357   5.266   3.945   0.820
18039WAT      O54358   7.313   0.262   5.425
18039WAT     H154359   7.220   0.292   5.447
18039WAT     H254360   7.310   0.194   5.353
18040WAT      O54361   8.183   4.946   6.370
18040WAT     H154362   8.093   4.947   6.412
18040WAT     H254363   8.183   4.884   6.291
18041WAT      O54364   7.381   1.856   4.847
18041WAT     H154365   7.381   1.840   4.748
18041WAT     H254366   7.306   1.805   4.889
18042WAT      O54367   4.359   2.879   4.763
18042WAT     H154368   4.394   2.786   4.773
18042WAT     H254369   4.428   2.937   4.719
18043WAT      O54370   0.304   0.264   1.568
18043WAT     H154371   0.290   0.232   1.475
18043WAT     H254372   0.254   0.204   1.631
18044WAT      O54373   9.467   8.724   9.317
18044WAT     H154374   9.500   8.817   9.304
18044WAT     H254375   9.470   8.701   9.414
18045WAT      O54376   6.169   6.046   2.259
18045WAT     H154377   6.196   6.112   2.329
18045WAT     H254378   6.238   6.046   2.186
18046WAT      O54379   5.865   9.607   7.020
18046WAT     H154380   5.773   9.641   7.033
18046WAT     H254381   5.928   9.654   7.083
18047WAT      O54382   7.675   0.605   2.233
18047WAT     H154383   7.613   0.557   2.294
18047WAT     H254384   7.643   0.698   2.219
18048WAT      O54385   1.708   1.409   7.702
18048WAT     H154386   1.621   1.398   7.653
18048WAT     H254387   1.754   1.491   7.669
18049WAT      O54388   1.891   5.247   6.155
18049WAT     H154389   1.904   5.339   6.120
18049WAT     H254390   1.848   5.190   6.085
18050WAT      O54391   3.642   3.563   0.391
18050WAT     H154392   3.621   3.641   0.332
18050WAT     H254393   3.569   3.495   0.384
18051WAT      O54394   4.933   9.290   2.163
18051WAT     H154395   4.873   9.323   2.090
18051WAT     H254396   4.983   9.209   2.131
18052WAT      O54397   8.950   5.602   4.031
18052WAT     H154398   8.872   5.642   4.079
18052WAT     H254399   8.978   5.662   3.956
18053WAT      O54400   2.817   9.575   5.795
18053WAT     H154401   2.754   9.558   5.719
18053WAT     H254402   2.866   9.660   5.779
18054WAT      O54403   5.217   0.298   2.556
18054WAT     H154404   5.180   0.278   2.465
18054WAT     H254405   5.229   0.396   2.567
18055WAT      O54406   5.852   3.546   6.282
18055WAT     H154407   5.952   3.543   6.270
18055WAT     H254408   5.819   3.636   6.253
18056WAT      O54409   8.621   2.004   2.500
18056WAT     H154410   8.564   2.062   2.442
18056WAT     H254411   8.715   2.038   2.501
18057WAT      O54412   3.157   7.874   6.299
18057WAT     H154413   3.085   7.913   6.356
18057WAT     H254414   3.162   7.775   6.316
18058WAT      O54415   2.922   6.401   4.238
18058WAT     H154416   2.928   6.330   4.308
18058WAT     H254417   2.922   6.359   4.147
18059WAT      O54418   9.437   5.591   1.208
18059WAT     H154419   9.511   5.637   1.160
18059WAT     H254420   9.362   5.572   1.144
18060WAT      O54421   0.229   1.309   7.002
18060WAT     H154422   0.269   1.266   6.921
18060WAT     H254423   0.224   1.243   7.076
18061WAT      O54424   2.344   4.285   0.594
18061WAT     H154425   2.345   4.206   0.533
18061WAT     H254426   2.276   4.351   0.562
18062WAT      O54427   2.569   8.541   1.122
18062WAT     H154428   2.628   8.530   1.202
18062WAT     H254429   2.620   8.590   1.050
18063WAT      O54430   5.869   7.554   1.879
18063WAT     H154431   5.886   7.632   1.939
18063WAT     H254432   5.848   7.473   1.933
18064WAT      O54433   9.652   7.851   3.109
18064WAT     H154434   9.571   7.893   3.149
18064WAT     H254435   9.720   7.834   3.181
18065WAT      O54436   6.092   4.157   3.684
18065WAT     H154437   6.185   4.192   3.668
18065WAT     H254438   6.094   4.057   3.683
18066WAT      O54439   9.799   0.845   4.526
18066WAT     H154440   9.889   0.833   4.566
18066WAT     H254441   9.735   0.879   4.596
18067WAT      O54442   1.003   1.464   9.751
18067WAT     H154443   0.920   1.411   9.736
18067WAT     H254444   1.068   1.445   9.678
18068WAT      O54445   7.092   3.893   7.063
18068WAT     H154446   7.164   3.830   7.093
18068WAT     H254447   7.119   3.935   6.976
18069WAT      O54448   9.105   0.847   8.131
18069WAT     H154449   9.155   0.761   8.129
18069WAT     H254450   9.154   0.915   8.075
18070WAT      O54451   7.503   4.941   1.282
18070WAT     H154452   7.486   5.036   1.306
18070WAT     H254453   7.596   4.916   1.311
18071WAT      O54454   5.340   1.827   1.117
18071WAT     H154455   5.313   1.830   1.214
18071WAT     H254456   5.281   1.888   1.064
18072WAT      O54457   9.195   6.756   6.330
18072WAT     H154458   9.171   6.687   6.261
18072WAT     H254459   9.113   6.808   6.354
18073WAT      O54460   3.906   4.926   4.972
18073WAT     H154461   3.888   4.833   5.006
18073WAT     H254462   3.987   4.926   4.914
18074WAT      O54463   5.131   8.307   0.457
18074WAT     H154464   5.105   8.238   0.389
18074WAT     H254465   5.217   8.281   0.500
18075WAT      O54466   9.391   7.373   6.254
18075WAT     H154467   9.392   7.388   6.156
18075WAT     H254468   9.470   7.317   6.281
18076WAT      O54469   2.802   6.258   3.433
18076WAT     H154470   2.732   6.187   3.442
18076WAT     H254471   2.775   6.339   3.485
18077WAT      O54472   8.882   9.070   5.625
18077WAT     H154473   8.807   9.071   5.558
18077WAT     H254474   8.960   9.121   5.589
18078WAT      O54475   0.910   8.056   5.335
18078WAT     H154476   0.810   8.049   5.340
18078WAT     H254477   0.951   7.974   5.374
18079WAT      O54478   8.881   2.852   6.518
18079WAT     H154479   8.862   2.899   6.432
18079WAT     H254480   8.964   2.796   6.508
18080WAT      O54481   6.287   9.396   6.437
18080WAT     H154482   6.209   9.379   6.377
18080WAT     H254483   6.260   9.461   6.509
18081WAT      O54484   3.817   9.283   9.774
18081WAT     H154485   3.799   9.380   9.755
18081WAT     H254486   3.731   9.233   9.779
18082WAT      O54487   0.232   0.555   4.093
18082WAT     H154488   0.249   0.644   4.050
18082WAT     H254489   0.233   0.484   4.022
18083WAT      O54490   8.113   7.756   6.922
18083WAT     H154491   8.085   7.839   6.970
18083WAT     H254492   8.068   7.751   6.833
18084WAT      O54493   3.176   8.533   0.833
18084WAT     H154494   3.186   8.435   0.845
18084WAT     H254495   3.095   8.566   0.882
18085WAT      O54496   5.478   3.614   3.564
18085WAT     H154497   5.417   3.682   3.604
18085WAT     H254498   5.449   3.522   3.591
18086WAT      O54499   7.904   9.756   0.776
18086WAT     H154500   7.883   9.669   0.731
18086WAT     H254501   7.865   9.755   0.869
18087WAT      O54502   5.519   5.300   3.615
18087WAT     H154503   5.596   5.308   3.551
18087WAT     H254504   5.554   5.298   3.709
18088WAT      O54505   7.754   3.663   9.090
18088WAT     H154506   7.843   3.629   9.120
18088WAT     H254507   7.757   3.683   8.992
18089WAT      O54508   8.140   5.910   9.314
18089WAT     H154509   8.231   5.886   9.280
18089WAT     H254510   8.135   6.008   9.331
18090WAT      O54511   5.641   6.993   3.811
18090WAT     H154512   5.709   7.062   3.785
18090WAT     H254513   5.684   6.925   3.870
18091WAT      O54514   9.776   0.537   0.989
18091WAT     H154515   9.766   0.598   1.068
18091WAT     H254516   9.688   0.529   0.942
18092WAT      O54517   1.828   3.818   4.741
18092WAT     H154518   1.856   3.898   4.794
18092WAT     H254519   1.737   3.833   4.703
18093WAT      O54520   5.837   3.139   3.644
18093WAT     H154521   5.781   3.186   3.713
18093WAT     H254522   5.794   3.149   3.554
18094WAT      O54523   9.621   6.030   1.803
18094WAT     H154524   9.664   6.075   1.725
18094WAT     H254525   9.665   5.942   1.820
18095WAT      O54526   8.318   0.295   3.429
18095WAT     H154527   8.276   0.335   3.511
18095WAT     H254528   8.381   0.221   3.456
18096WAT      O54529   9.198   1.056   6.053
18096WAT     H154530   9.231   1.130   6.111
18096WAT     H254531   9.102   1.070   6.032
18097WAT      O54532   3.254   2.499   7.254
18097WAT     H154533   3.214   2.422   7.203
18097WAT     H254534   3.229   2.585   7.210
18098WAT      O54535   8.440   8.583   1.634
18098WAT     H154536   8.404   8.598   1.726
18098WAT     H254537   8.371   8.608   1.567
18099WAT      O54538   9.638   0.818   3.607
18099WAT     H154539   9.626   0.767   3.693
18099WAT     H254540   9.659   0.914   3.628
18100WAT      O54541   5.839   7.324   2.037
18100WAT     H154542   5.766   7.306   2.102
18100WAT     H254543   5.920   7.358   2.085
18101WAT      O54544   3.525   5.258   7.342
18101WAT     H154545   3.528   5.321   7.264
18101WAT     H254546   3.467   5.179   7.319
18102WAT      O54547   2.782   0.749   1.057
18102WAT     H154548   2.699   0.769   1.005
18102WAT     H254549   2.858   0.801   1.020
18103WAT      O54550   9.046   0.046   7.819
18103WAT     H154551   9.096   0.006   7.895
18103WAT     H254552   9.074   0.142   7.807
18104WAT      O54553   4.117   7.078   4.244
18104WAT     H154554   4.198   7.035   4.204
18104WAT     H254555   4.145   7.137   4.320
18105WAT      O54556   5.369   9.650   5.996
18105WAT     H154557   5.310   9.569   6.001
18105WAT     H254558   5.321   9.723   5.946
18106WAT      O54559   2.443   7.291   6.449
18106WAT     H154560   2.429   7.307   6.352
18106WAT     H254561   2.369   7.234   6.485
18107WAT      O54562   4.401   9.313   2.954
18107WAT     H154563   4.458   9.302   3.035
18107WAT     H254564   4.307   9.332   2.982
18108WAT      O54565   1.938   0.466   9.354
18108WAT     H154566   1.984   0.492   9.439
18108WAT     H254567   1.842   0.446   9.373
18109WAT      O54568   0.736   1.457   5.714
18109WAT     H154569   0.748   1.399   5.794
18109WAT     H254570   0.696   1.404   5.639
18110WAT      O54571   8.671   9.428   8.975
18110WAT     H154572   8.735   9.353   8.991
18110WAT     H254573   8.604   9.431   9.049
18111WAT      O54574   4.533   0.688   2.339
18111WAT     H154575   4.611   0.705   2.278
18111WAT     H254576   4.561   0.625   2.411
18112WAT      O54577   3.230   5.538   8.539
18112WAT     H154578   3.187   5.476   8.604
18112WAT     H254579   3.329   5.536   8.551
18113WAT      O54580   3.660   8.012   9.325
18113WAT     H154581   3.583   8.070   9.351
18113WAT     H254582   3.637   7.963   9.241
18114WAT      O54583   9.657   2.251   3.267
18114WAT     H154584   9.569   2.204   3.267
18114WAT     H254585   9.728   2.188   3.235
18115WAT      O54586   3.166   8.557   0.570
18115WAT     H154587   3.193   8.551   0.666
18115WAT     H254588   3.067   8.563   0.563
18116WAT      O54589   9.675   3.592   4.681
18116WAT     H154590   9.712   3.502   4.658
18116WAT     H254591   9.692   3.611   4.777
18117WAT      O54592   4.207   1.467   0.191
18117WAT     H154593   4.149   1.403   0.241
18117WAT     H254594   4.296   1.424   0.173
18118WAT      O54595   6.707   3.932   6.847
18118WAT     H154596   6.747   4.002   6.788
18118WAT     H254597   6.672   3.857   6.791
18119WAT      O54598   8.566   5.090   0.055
18119WAT     H154599   8.658   5.054   0.047
18119WAT     H254600   8.520   5.048   0.133
18120WAT      O54601   2.619   3.824   6.655
18120WAT     H154602   2.577   3.832   6.746
18120WAT     H254603   2.713   3.792   6.664
18121WAT      O54604   1.459   4.310   3.991
18121WAT     H154605   1.404   4.260   4.058
18121WAT     H254606   1.468   4.254   3.908
18122WAT      O54607   7.031   7.682   4.823
18122WAT     H154608   7.048   7.776   4.853
18122WAT     H254609   7.106   7.651   4.765
18123WAT      O54610   0.204   1.891   8.690
18123WAT     H154611   0.174   1.829   8.618
18123WAT     H254612   0.218   1.840   8.775
18124WAT      O54613   1.506   0.677   3.699
18124WAT     H154614   1.516   0.594   3.755
18124WAT     H254615   1.501   0.651   3.602
18125WAT      O54616   4.812   5.197   1.444
18125WAT     H154617   4.779   5.264   1.510
18125WAT     H254618   4.852   5.119   1.492
18126WAT      O54619   9.121   6.901   1.983
18126WAT     H154620   9.058   6.929   2.055
18126WAT     H254621   9.209   6.876   2.024
18127WAT      O54622   2.327   1.677   7.614
18127WAT     H154623   2.331   1.661   7.712
18127WAT     H254624   2.381   1.608   7.566
18128WAT      O54625   6.487   2.218   9.689
18128WAT     H154626   6.462   2.257   9.777
18128WAT     H254627   6.451   2.274   9.615
18129WAT      O54628   2.020   9.144   8.419
18129WAT     H154629   2.019   9.235   8.460
18129WAT     H254630   2.111   9.104   8.427
18130WAT      O54631   7.236   2.835   1.123
18130WAT     H154632   7.216   2.783   1.040
18130WAT     H254633   7.170   2.910   1.133
18131WAT      O54634   6.120   3.745   0.775
18131WAT     H154635   6.100   3.827   0.830
18131WAT     H254636   6.219   3.733   0.770
18132WAT      O54637   7.982   1.316   1.474
18132WAT     H154638   7.978   1.239   1.411
18132WAT     H254639   8.041   1.292   1.552
18133WAT      O54640   0.203   7.010   7.472
18133WAT     H154641   0.125   7.029   7.414
18133WAT     H254642   0.277   7.074   7.452
18134WAT      O54643   2.857   6.796   3.182
18134WAT     H154644   2.914   6.718   3.207
18134WAT     H254645   2.857   6.862   3.257
18135WAT      O54646   5.820   7.264   4.752
18135WAT     H154647   5.912   7.283   4.716
18135WAT     H254648   5.801   7.166   4.743
18136WAT      O54649   1.010   1.957   7.907
18136WAT     H154650   1.047   1.886   7.967
18136WAT     H254651   1.013   1.925   7.812
18137WAT      O54652   7.995   5.955   8.117
18137WAT     H154653   7.937   5.919   8.044
18137WAT     H254654   7.961   5.925   8.206
18138WAT      O54655   0.548   8.652   7.335
18138WAT     H154656   0.587   8.573   7.381
18138WAT     H254657   0.614   8.727   7.336
18139WAT      O54658   6.208   5.083   1.579
18139WAT     H154659   6.181   5.044   1.667
18139WAT     H254660   6.131   5.131   1.538
18140WAT      O54661   7.129   0.069   6.859
18140WAT     H154662   7.176   0.153   6.833
18140WAT     H254663   7.191  -0.009   6.845
18141WAT      O54664   4.055   3.570   9.480
18141WAT     H154665   4.128   3.633   9.454
18141WAT     H254666   4.054   3.558   9.579
18142WAT      O54667   9.248   8.396   7.402
18142WAT     H154668   9.213   8.482   7.367
18142WAT     H254669   9.345   8.387   7.379
18143WAT      O54670   0.813   2.109   5.297
18143WAT     H154671   0.758   2.190   5.278
18143WAT     H254672   0.818   2.052   5.216
18144WAT      O54673   2.777   3.354   3.276
18144WAT     H154674   2.710   3.383   3.344
18144WAT     H254675   2.796   3.430   3.214
18145WAT      O54676   0.709   1.654   9.791
18145WAT     H154677   0.795   1.657   9.842
18145WAT     H254678   0.679   1.747   9.772
18146WAT      O54679   2.355   3.693   0.436
18146WAT     H154680   2.403   3.747   0.367
18146WAT     H254681   2.267   3.736   0.457
18147WAT      O54682   5.414   6.117   1.824
18147WAT     H154683   5.397   6.196   1.883
18147WAT     H254684   5.326   6.079   1.794
18148WAT      O54685   5.835   6.508   2.911
18148WAT     H154686   5.775   6.477   2.837
18148WAT     H254687   5.791   6.492   2.999
18149WAT      O54688   4.250   6.979   9.297
18149WAT     H154689   4.160   7.005   9.333
18149WAT     H254690   4.268   7.029   9.212
18150WAT      O54691   1.622   9.041   4.051
18150WAT     H154692   1.653   9.015   4.142
18150WAT     H254693   1.594   9.137   4.052
18151WAT      O54694   2.422   0.688   7.304
18151WAT     H154695   2.429   0.787   7.316
18151WAT     H254696   2.464   0.662   7.217
18152WAT      O54697   8.662   6.780   4.299
18152WAT     H154698   8.639   6.784   4.396
18152WAT     H254699   8.758   6.803   4.286
18153WAT      O54700   7.474   3.831   6.922
18153WAT     H154701   7.396   3.869   6.872
18153WAT     H254702   7.441   3.782   7.003
18154WAT      O54703   5.721   4.078   6.799
18154WAT     H154704   5.642   4.034   6.842
18154WAT     H254705   5.691   4.160   6.749
18155WAT      O54706   1.080   3.357   3.327
18155WAT     H154707   1.073   3.283   3.393
18155WAT     H254708   1.028   3.334   3.245
18156WAT      O54709   9.657   8.912   2.295
18156WAT     H154710   9.748   8.943   2.268
18156WAT     H254711   9.595   8.991   2.302
18157WAT      O54712   2.863   3.935   7.886
18157WAT     H154713   2.795   3.878   7.839
18157WAT     H254714   2.941   3.951   7.825
18158WAT      O54715   0.371   9.127   8.915
18158WAT     H154716   0.291   9.089   8.961
18158WAT     H254717   0.401   9.209   8.964
18159WAT      O54718   9.637   2.563   7.065
18159WAT     H154719   9.665   2.556   6.969
18159WAT     H254720   9.713   2.599   7.119
18160WAT      O54721   6.921   1.797   0.582
18160WAT     H154722   6.978   1.739   0.525
18160WAT     H254723   6.969   1.817   0.668
18161WAT      O54724   1.123   0.520   5.804
18161WAT     H154725   1.188   0.596   5.803
18161WAT     H254726   1.115   0.484   5.896
18162WAT      O54727   7.102   5.631   3.451
18162WAT     H154728   7.030   5.690   3.487
18162WAT     H254729   7.183   5.637   3.510
18163WAT      O54730   8.918   8.181   9.326
18163WAT     H154731   8.851   8.128   9.273
18163WAT     H254732   9.004   8.130   9.330
18164WAT      O54733   2.044   7.298   1.114
18164WAT     H154734   2.013   7.336   1.201
18164WAT     H254735   1.991   7.216   1.093
18165WAT      O54736   9.066   8.714   1.328
18165WAT     H154737   9.094   8.618   1.328
18165WAT     H254738   9.008   8.732   1.249
18166WAT      O54739   4.792   3.275   8.995
18166WAT     H154740   4.807   3.234   9.084
18166WAT     H254741   4.811   3.208   8.923
18167WAT      O54742   0.594   0.132   8.284
18167WAT     H154743   0.573   0.220   8.326
18167WAT     H254744   0.668   0.144   8.218
18168WAT      O54745   6.732   2.725   1.249
18168WAT     H154746   6.752   2.813   1.292
18168WAT     H254747   6.641   2.695   1.276
18169WAT      O54748   0.888   1.825   2.371
18169WAT     H154749   0.912   1.752   2.308
18169WAT     H254750   0.969   1.878   2.394
18170WAT      O54751   7.409   4.166   7.921
18170WAT     H154752   7.375   4.152   7.828
18170WAT     H254753   7.482   4.101   7.940
18171WAT      O54754   7.446   4.154   0.691
18171WAT     H154755   7.461   4.155   0.789
18171WAT     H254756   7.348   4.155   0.671
18172WAT      O54757   5.558   9.099   6.872
18172WAT     H154758   5.589   9.005   6.857
18172WAT     H254759   5.561   9.119   6.970
18173WAT      O54760   3.855   2.709   7.983
18173WAT     H154761   3.923   2.739   8.050
18173WAT     H254762   3.763   2.723   8.021
18174WAT      O54763   7.965   3.228   9.366
18174WAT     H154764   7.889   3.258   9.309
18174WAT     H254765   8.039   3.194   9.307
18175WAT      O54766   4.473   1.571   5.333
18175WAT     H154767   4.519   1.620   5.259
18175WAT     H254768   4.480   1.626   5.417
18176WAT      O54769   5.742   4.963   0.829
18176WAT     H154770   5.797   5.048   0.832
18176WAT     H254771   5.645   4.986   0.830
18177WAT      O54772   9.371   0.691   0.791
18177WAT     H154773   9.330   0.772   0.832
18177WAT     H254774   9.438   0.718   0.722
18178WAT      O54775   7.840   2.479   0.796
18178WAT     H154776   7.922   2.425   0.817
18178WAT     H254777   7.863   2.549   0.728
18179WAT      O54778   9.570   1.705   7.055
18179WAT     H154779   9.638   1.686   6.984
18179WAT     H254780   9.583   1.798   7.091
18180WAT      O54781   9.824   3.159   0.299
18180WAT     H154782   9.817   3.169   0.398
18180WAT     H254783   9.779   3.074   0.271
18181WAT      O54784   9.056   3.911   6.691
18181WAT     H154785   9.068   3.838   6.624
18181WAT     H254786   9.124   3.983   6.675
18182WAT      O54787   1.407   5.777   4.005
18182WAT     H154788   1.473   5.707   4.032
18182WAT     H254789   1.435   5.817   3.917
18183WAT      O54790   8.585   3.520   4.678
18183WAT     H154791   8.671   3.474   4.698
18183WAT     H254792   8.578   3.603   4.734
18184WAT      O54793   7.279   5.636   8.768
18184WAT     H154794   7.203   5.669   8.824
18184WAT     H254795   7.244   5.593   8.685
18185WAT      O54796   3.459   9.046   1.343
18185WAT     H154797   3.501   9.098   1.269
18185WAT     H254798   3.511   9.059   1.427
18186WAT      O54799   4.437   1.482   7.475
18186WAT     H154800   4.442   1.533   7.561
18186WAT     H254801   4.369   1.409   7.484
18187WAT      O54802   6.575   7.926   4.461
18187WAT     H154803   6.477   7.909   4.464
18187WAT     H254804   6.614   7.913   4.552
18188WAT      O54805   8.325   8.610   5.984
18188WAT     H154806   8.342   8.512   5.995
18188WAT     H254807   8.285   8.626   5.893
18189WAT      O54808   4.422   1.282   6.951
18189WAT     H154809   4.416   1.295   7.050
18189WAT     H254810   4.437   1.185   6.930
18190WAT      O54811   6.483   7.252   8.195
18190WAT     H154812   6.451   7.300   8.277
18190WAT     H254813   6.433   7.285   8.115
18191WAT      O54814   6.198   3.248   1.865
18191WAT     H154815   6.275   3.204   1.819
18191WAT     H254816   6.230   3.330   1.912
18192WAT      O54817   1.039   6.284   1.096
18192WAT     H154818   1.081   6.375   1.090
18192WAT     H254819   0.994   6.274   1.185
18193WAT      O54820   4.189   0.661   5.172
18193WAT     H154821   4.147   0.573   5.196
18193WAT     H254822   4.195   0.718   5.253
18194WAT      O54823   8.024   5.759   7.316
18194WAT     H154824   8.105   5.771   7.374
18194WAT     H254825   7.945   5.804   7.359
18195WAT      O54826   5.306   2.238   9.150
18195WAT     H154827   5.340   2.212   9.059
18195WAT     H254828   5.383   2.258   9.210
18196WAT      O54829   0.415   0.551   5.077
18196WAT     H154830   0.396   0.642   5.040
18196WAT     H254831   0.370   0.541   5.165
18197WAT      O54832   8.270   7.674   1.012
18197WAT     H154833   8.206   7.672   0.936
18197WAT     H254834   8.232   7.622   1.089
18198WAT      O54835   3.220   9.804   8.336
18198WAT     H154836   3.232   9.893   8.380
18198WAT     H254837   3.219   9.816   8.237
18199WAT      O54838   0.858   7.003   1.042
18199WAT     H154839   0.798   6.949   0.982
18199WAT     H254840   0.912   7.066   0.986
18200WAT      O54841   6.781   9.392   6.285
18200WAT     H154842   6.844   9.440   6.346
18200WAT     H254843   6.694   9.376   6.333
18201WAT      O54844   9.202   1.474   1.682
18201WAT     H154845   9.156   1.519   1.758
18201WAT     H254846   9.143   1.476   1.601
18202WAT      O54847   1.837   8.258   8.182
18202WAT     H154848   1.841   8.232   8.086
18202WAT     H254849   1.871   8.351   8.193
18203WAT      O54850   7.363   7.534   0.243
18203WAT     H154851   7.324   7.583   0.165
18203WAT     H254852   7.308   7.553   0.325
18204WAT      O54853   7.563   6.584   5.739
18204WAT     H154854   7.662   6.574   5.732
18204WAT     H254855   7.541   6.665   5.794
18205WAT      O54856   0.320   3.411   6.086
18205WAT     H154857   0.362   3.455   6.007
18205WAT     H254858   0.390   3.369   6.143
18206WAT      O54859   4.935   3.691   6.592
18206WAT     H154860   5.014   3.636   6.564
18206WAT     H254861   4.953   3.787   6.573
18207WAT      O54862   5.589   6.892   1.714
18207WAT     H154863   5.612   6.887   1.616
18207WAT     H254864   5.660   6.847   1.767
18208WAT      O54865   3.797   4.812   3.244
18208WAT     H154866   3.746   4.805   3.158
18208WAT     H254867   3.732   4.818   3.320
18209WAT      O54868   8.910   0.498   9.367
18209WAT     H154869   8.970   0.421   9.345
18209WAT     H254870   8.920   0.568   9.297
18210WAT      O54871   8.357   5.011   9.788
18210WAT     H154872   8.441   5.044   9.831
18210WAT     H254873   8.379   4.940   9.722
18211WAT      O54874   8.831   7.784   0.430
18211WAT     H154875   8.744   7.806   0.386
18211WAT     H254876   8.859   7.861   0.488
18212WAT      O54877   1.869   7.068   6.807
18212WAT     H154878   1.770   7.073   6.809
18212WAT     H254879   1.899   7.041   6.715
18213WAT      O54880   1.749   2.967   1.090
18213WAT     H154881   1.741   3.000   1.184
18213WAT     H254882   1.816   2.893   1.087
18214WAT      O54883   3.192   9.240   1.328
18214WAT     H154884   3.188   9.319   1.388
18214WAT     H254885   3.192   9.156   1.382
18215WAT      O54886   9.338   9.370   7.071
18215WAT     H154887   9.261   9.370   7.135
18215WAT     H254888   9.304   9.351   6.978
18216WAT      O54889   8.566   9.356   7.980
18216WAT     H154890   8.620   9.431   7.941
18216WAT     H254891   8.598   9.336   8.072
18217WAT      O54892   9.423   0.272   0.799
18217WAT     H154893   9.482   0.199   0.765
18217WAT     H254894   9.343   0.280   0.740
18218WAT      O54895   4.611   2.315   0.946
18218WAT     H154896   4.620   2.257   0.864
18218WAT     H254897   4.564   2.264   1.018
18219WAT      O54898   8.335   6.787   2.700
18219WAT     H154899   8.258   6.821   2.645
18219WAT     H254900   8.333   6.687   2.700
18220WAT      O54901   7.259   2.910   1.830
18220WAT     H154902   7.197   2.837   1.858
18220WAT     H254903   7.224   2.998   1.863
18221WAT      O54904   4.053   1.764   2.344
18221WAT     H154905   4.042   1.863   2.345
18221WAT     H254906   4.140   1.739   2.388
18222WAT      O54907   2.519   2.062   1.201
18222WAT     H154908   2.499   2.106   1.114
18222WAT     H254909   2.549   1.968   1.185
18223WAT      O54910   2.329   3.923   2.603
18223WAT     H154911   2.314   3.840   2.549
18223WAT     H254912   2.411   3.912   2.659
18224WAT      O54913   5.690   7.107   0.462
18224WAT     H154914   5.679   7.206   0.465
18224WAT     H254915   5.746   7.076   0.539
18225WAT      O54916   9.264   8.277   0.720
18225WAT     H154917   9.215   8.233   0.796
18225WAT     H254918   9.284   8.372   0.745
18226WAT      O54919   5.308   6.115   2.399
18226WAT     H154920   5.266   6.024   2.396
18226WAT     H254921   5.378   6.117   2.470
18227WAT      O54922   8.306   9.360   1.877
18227WAT     H154923   8.312   9.293   1.951
18227WAT     H254924   8.241   9.328   1.808
18228WAT      O54925   7.487   9.626   0.722
18228WAT     H154926   7.554   9.699   0.715
18228WAT     H254927   7.412   9.643   0.658
18229WAT      O54928   8.662   9.614   9.849
18229WAT     H154929   8.630   9.634   9.942
18229WAT     H254930   8.583   9.592   9.791
18230WAT      O54931   6.743   0.825   3.090
18230WAT     H154932   6.815   0.892   3.072
18230WAT     H254933   6.764   0.775   3.174
18231WAT      O54934   5.520   2.866   2.834
18231WAT     H154935   5.436   2.881   2.783
18231WAT     H254936   5.521   2.925   2.915
18232WAT      O54937   2.750   8.156   5.005
18232WAT     H154938   2.708   8.173   4.916
18232WAT     H254939   2.730   8.062   5.034
18233WAT      O54940   4.264   6.219   9.301
18233WAT     H154941   4.309   6.236   9.213
18233WAT     H254942   4.320   6.156   9.355
18234WAT      O54943   4.195   8.572   1.875
18234WAT     H154944   4.145   8.641   1.823
18234WAT     H254945   4.276   8.544   1.824
18235WAT      O54946   5.087   5.941   3.104
18235WAT     H154947   5.013   5.996   3.143
18235WAT     H254948   5.075   5.846   3.131
18236WAT      O54949   7.371   0.055   1.308
18236WAT     H154950   7.299   0.083   1.244
18236WAT     H254951   7.334   0.055   1.401
18237WAT      O54952   0.281   0.391   4.708
18237WAT     H154953   0.283   0.359   4.802
18237WAT     H254954   0.233   0.324   4.650
18238WAT      O54955   4.213   3.316   7.316
18238WAT     H154956   4.173   3.229   7.287
18238WAT     H254957   4.182   3.389   7.254
18239WAT      O54958   8.165   7.998   0.800
18239WAT     H154959   8.107   8.016   0.879
18239WAT     H254960   8.166   8.077   0.740
18240WAT      O54961   9.583   7.472   8.103
18240WAT     H154962   9.601   7.503   8.009
18240WAT     H254963   9.516   7.399   8.102
18241WAT      O54964   6.474   6.698   1.486
18241WAT     H154965   6.519   6.785   1.507
18241WAT     H254966   6.378   6.715   1.465
18242WAT      O54967   4.573   3.836   5.531
18242WAT     H154968   4.525   3.872   5.611
18242WAT     H254969   4.511   3.836   5.453
18243WAT      O54970   3.182   0.713   4.459
18243WAT     H154971   3.219   0.727   4.551
18243WAT     H254972   3.191   0.617   4.434
18244WAT      O54973   8.962   2.078   4.640
18244WAT     H154974   9.039   2.014   4.633
18244WAT     H254975   8.880   2.035   4.602
18245WAT      O54976   0.968   0.571   6.568
18245WAT     H154977   0.894   0.635   6.588
18245WAT     H254978   0.978   0.506   6.643
18246WAT      O54979   4.010   9.567   7.034
18246WAT     H154980   3.985   9.656   6.997
18246WAT     H254981   4.053   9.579   7.123
18247WAT      O54982   4.398   5.710   7.361
18247WAT     H154983   4.375   5.634   7.300
18247WAT     H254984   4.347   5.792   7.332
18248WAT      O54985   0.401   3.753   0.633
18248WAT     H154986   0.312   3.767   0.590
18248WAT     H254987   0.437   3.664   0.606
18249WAT      O54988   3.495   4.637   7.903
18249WAT     H154989   3.438   4.692   7.842
18249WAT     H254990   3.438   4.566   7.945
18250WAT      O54991   3.444   3.880   9.080
18250WAT     H154992   3.360   3.934   9.089
18250WAT     H254993   3.461   3.862   8.983
18251WAT      O54994   4.888   8.392   6.973
18251WAT     H154995   4.942   8.362   7.051
18251WAT     H254996   4.829   8.467   7.001
18252WAT      O54997   0.210   3.211   3.972
18252WAT     H154998   0.136   3.209   4.040
18252WAT     H254999   0.243   3.118   3.957
18253WAT      O55000   6.327   4.199   3.548
18253WAT     H155001   6.380   4.284   3.550
18253WAT     H255002   6.389   4.121   3.543
18254WAT      O55003   7.369   6.196   8.457
18254WAT     H155004   7.312   6.240   8.387
18254WAT     H255005   7.410   6.265   8.516
18255WAT      O55006   7.874   1.549   6.590
18255WAT     H155007   7.811   1.544   6.667
18255WAT     H255008   7.932   1.630   6.598
18256WAT      O55009   5.792   2.137   7.902
18256WAT     H155010   5.696   2.111   7.905
18256WAT     H255011   5.799   2.236   7.888
18257WAT      O55012   5.689   0.090   6.355
18257WAT     H155013   5.672   0.174   6.304
18257WAT     H255014   5.662   0.011   6.300
18258WAT      O55015   8.244   5.922   7.992
18258WAT     H155016   8.167   5.923   8.057
18258WAT     H255017   8.219   5.974   7.911
18259WAT      O55018   7.689   8.753   1.624
18259WAT     H155019   7.690   8.822   1.696
18259WAT     H255020   7.631   8.784   1.549
18260WAT      O55021   8.208   1.850   7.040
18260WAT     H155022   8.260   1.823   7.121
18260WAT     H255023   8.126   1.901   7.068
18261WAT      O55024   6.618   5.516   6.607
18261WAT     H155025   6.651   5.468   6.526
18261WAT     H255026   6.675   5.596   6.624
18262WAT      O55027   2.208   5.961   8.372
18262WAT     H155028   2.245   6.053   8.363
18262WAT     H255029   2.248   5.901   8.302
18263WAT      O55030   3.083   9.545   5.515
18263WAT     H155031   3.138   9.559   5.597
18263WAT     H255032   3.001   9.492   5.539
18264WAT      O55033   1.122   7.246   2.803
18264WAT     H155034   1.196   7.313   2.810
18264WAT     H255035   1.041   7.280   2.850
18265WAT      O55036   6.114   1.628   8.054
18265WAT     H155037   6.081   1.717   8.021
18265WAT     H255038   6.206   1.639   8.090
18266WAT      O55039   0.503   6.286   7.335
18266WAT     H155040   0.482   6.384   7.334
18266WAT     H255041   0.602   6.274   7.323
18267WAT      O55042   0.301   2.032   0.641
18267WAT     H155043   0.354   1.965   0.694
18267WAT     H255044   0.321   2.124   0.676
18268WAT      O55045   9.772   5.615   7.152
18268WAT     H155046   9.844   5.643   7.215
18268WAT     H255047   9.780   5.517   7.134
18269WAT      O55048   6.073   1.091   5.109
18269WAT     H155049   5.983   1.129   5.129
18269WAT     H255050   6.143   1.157   5.136
18270WAT      O55051   8.145   1.140   2.125
18270WAT     H155052   8.056   1.095   2.122
18270WAT     H255053   8.134   1.233   2.159
18271WAT      O55054   2.459   5.623   2.211
18271WAT     H155055   2.529   5.555   2.190
18271WAT     H255056   2.500   5.695   2.268
18272WAT      O55057   3.303   1.115   9.447
18272WAT     H155058   3.352   1.046   9.394
18272WAT     H255059   3.347   1.204   9.433
18273WAT      O55060   9.153   7.661   4.653
18273WAT     H155061   9.241   7.708   4.640
18273WAT     H255062   9.170   7.567   4.681
18274WAT      O55063   8.649   2.331   0.557
18274WAT     H155064   8.562   2.327   0.508
18274WAT     H255065   8.661   2.247   0.610
18275WAT      O55066   0.857   3.742   2.638
18275WAT     H155067   0.822   3.816   2.696
18275WAT     H255068   0.860   3.774   2.543
18276WAT      O55069   2.975   2.997   7.869
18276WAT     H155070   3.029   2.940   7.931
18276WAT     H255071   2.987   2.963   7.775
18277WAT      O55072   2.756   9.795   9.753
18277WAT     H155073   2.720   9.829   9.840
18277WAT     H255074   2.761   9.696   9.755
18278WAT      O55075   2.756   7.424   2.363
18278WAT     H155076   2.838   7.377   2.332
18278WAT     H255077   2.747   7.511   2.316
18279WAT      O55078   7.863   4.447   5.366
18279WAT     H155079   7.930   4.445   5.293
18279WAT     H255080   7.782   4.498   5.336
18280WAT      O55081   8.733   5.690   7.363
18280WAT     H155082   8.760   5.786   7.374
18280WAT     H255083   8.767   5.656   7.275
18281WAT      O55084   6.634   1.983   1.727
18281WAT     H155085   6.543   1.944   1.719
18281WAT     H255086   6.692   1.921   1.779
18282WAT      O55087   3.703   7.804   8.255
18282WAT     H155088   3.624   7.865   8.252
18282WAT     H255089   3.680   7.723   8.308
18283WAT      O55090   7.155   5.249   8.850
18283WAT     H155091   7.123   5.256   8.945
18283WAT     H255092   7.145   5.155   8.819
18284WAT      O55093   4.675   3.362   5.467
18284WAT     H155094   4.656   3.429   5.538
18284WAT     H255095   4.611   3.373   5.391
18285WAT      O55096   7.261   7.134   5.123
18285WAT     H155097   7.299   7.046   5.094
18285WAT     H255098   7.269   7.142   5.222
18286WAT      O55099   3.427   7.922   2.717
18286WAT     H155100   3.422   8.008   2.666
18286WAT     H255101   3.516   7.879   2.702
18287WAT      O55102   2.805   7.290   6.186
18287WAT     H155103   2.859   7.229   6.243
18287WAT     H255104   2.742   7.236   6.130
18288WAT      O55105   0.992   1.661   0.429
18288WAT     H155106   1.046   1.739   0.396
18288WAT     H255107   0.895   1.678   0.412
18289WAT      O55108   8.377   2.693   3.701
18289WAT     H155109   8.302   2.630   3.682
18289WAT     H255110   8.464   2.648   3.682
18290WAT      O55111   3.706   8.779   6.358
18290WAT     H155112   3.800   8.802   6.383
18290WAT     H255113   3.681   8.829   6.275
18291WAT      O55114   9.265   2.656   9.088
18291WAT     H155115   9.325   2.723   9.133
18291WAT     H255116   9.196   2.705   9.034
18292WAT      O55117   3.920   5.378   1.964
18292WAT     H155118   3.892   5.323   1.885
18292WAT     H255119   4.016   5.404   1.954
18293WAT      O55120   8.025   6.692   0.973
18293WAT     H155121   7.962   6.763   0.942
18293WAT     H255122   8.117   6.731   0.983
18294WAT      O55123   4.774   0.091   4.537
18294WAT     H155124   4.736   0.063   4.448
18294WAT     H255125   4.870   0.117   4.525
18295WAT      O55126   9.104   1.937   6.574
18295WAT     H155127   9.098   2.009   6.505
18295WAT     H255128   9.040   1.957   6.648
18296WAT      O55129   7.227   4.570   0.759
18296WAT     H155130   7.323   4.597   0.753
18296WAT     H255131   7.181   4.593   0.673
18297WAT      O55132   4.794   7.867   8.569
18297WAT     H155133   4.804   7.836   8.663
18297WAT     H255134   4.874   7.839   8.516
18298WAT      O55135   2.766   3.635   4.938
18298WAT     H155136   2.680   3.585   4.951
18298WAT     H255137   2.747   3.733   4.935
18299WAT      O55138   0.395   1.697   0.823
18299WAT     H155139   0.304   1.674   0.789
18299WAT     H255140   0.428   1.624   0.883
18300WAT      O55141   4.901   5.900   6.925
18300WAT     H155142   4.827   5.833   6.926
18300WAT     H255143   4.895   5.958   7.006
18301WAT      O55144   1.839   5.129   3.151
18301WAT     H155145   1.908   5.060   3.170
18301WAT     H255146   1.864   5.214   3.198
18302WAT      O55147   7.256   4.826   8.133
18302WAT     H155148   7.297   4.756   8.075
18302WAT     H255149   7.157   4.828   8.118
18303WAT      O55150   3.040   8.979   1.008
18303WAT     H155151   3.107   9.051   1.029
18303WAT     H255152   3.045   8.907   1.078
18304WAT      O55153   6.603   2.499   3.259
18304WAT     H155154   6.689   2.534   3.222
18304WAT     H255155   6.532   2.568   3.249
18305WAT      O55156   7.967   6.419   7.158
18305WAT     H155157   8.061   6.421   7.193
18305WAT     H255158   7.912   6.486   7.209
18306WAT      O55159   8.491   2.941   3.041
18306WAT     H155160   8.480   2.930   2.943
18306WAT     H255161   8.481   2.852   3.086
18307WAT      O55162   9.195   3.702   8.190
18307WAT     H155163   9.146   3.617   8.210
18307WAT     H255164   9.284   3.680   8.149
18308WAT      O55165   4.794   1.120   2.885
18308WAT     H155166   4.767   1.025   2.899
18308WAT     H255167   4.765   1.150   2.794
18309WAT      O55168   0.793   9.819   0.355
18309WAT     H155169   0.883   9.778   0.369
18309WAT     H255170   0.722   9.758   0.390
18310WAT      O55171   3.709   7.164   6.593
18310WAT     H155172   3.780   7.127   6.653
18310WAT     H255173   3.749   7.181   6.503
18311WAT      O55174   0.356   6.825   0.420
18311WAT     H155175   0.292   6.867   0.484
18311WAT     H255176   0.396   6.744   0.462
18312WAT      O55177   5.382   3.251   9.379
18312WAT     H155178   5.292   3.210   9.361
18312WAT     H255179   5.370   3.345   9.409
18313WAT      O55180   7.232   9.588   5.407
18313WAT     H155181   7.188   9.600   5.318
18313WAT     H255182   7.316   9.533   5.395
18314WAT      O55183   8.837   5.340   6.382
18314WAT     H155184   8.741   5.310   6.377
18314WAT     H255185   8.855   5.407   6.310
18315WAT      O55186   2.658   1.682   2.019
18315WAT     H155187   2.612   1.654   1.935
18315WAT     H255188   2.696   1.602   2.065
18316WAT      O55189   2.433   7.480   1.848
18316WAT     H155190   2.368   7.494   1.774
18316WAT     H255191   2.509   7.423   1.816
18317WAT      O55192   9.630   6.298   4.330
18317WAT     H155193   9.575   6.247   4.264
18317WAT     H255194   9.717   6.253   4.344
18318WAT      O55195   4.983   2.938   7.715
18318WAT     H155196   4.977   2.901   7.808
18318WAT     H255197   4.892   2.965   7.684
18319WAT      O55198   6.518   5.023   6.623
18319WAT     H155199   6.435   5.066   6.659
18319WAT     H255200   6.540   4.942   6.679
18320WAT      O55201   0.589   1.035   7.680
18320WAT     H155202   0.649   1.000   7.608
18320WAT     H255203   0.566   1.130   7.661
18321WAT      O55204   3.141   9.790   5.954
18321WAT     H155205   3.125   9.751   6.045
18321WAT     H255206   3.207   9.865   5.960
18322WAT      O55207   3.701   7.999   6.723
18322WAT     H155208   3.705   7.953   6.634
18322WAT     H255209   3.794   8.012   6.758
18323WAT      O55210   3.609   2.323   9.846
18323WAT     H155211   3.655   2.257   9.905
18323WAT     H255212   3.552   2.383   9.903
18324WAT      O55213   4.708   1.294   5.316
18324WAT     H155214   4.710   1.361   5.242
18324WAT     H255215   4.799   1.253   5.326
18325WAT      O55216   9.224   1.008   4.276
18325WAT     H155217   9.212   0.927   4.334
18325WAT     H255218   9.322   1.024   4.260
18326WAT      O55219   4.603   3.093   8.286
18326WAT     H155220   4.523   3.154   8.282
18326WAT     H255221   4.575   3.000   8.260
18327WAT      O55222   2.434   6.507   8.279
18327WAT     H155223   2.525   6.546   8.285
18327WAT     H255224   2.392   6.533   8.192
18328WAT      O55225   1.704   3.838   8.544
18328WAT     H155226   1.770   3.858   8.471
18328WAT     H255227   1.741   3.868   8.632
18329WAT      O55228   8.149   5.567   0.176
18329WAT     H155229   8.247   5.552   0.191
18329WAT     H255230   8.129   5.565   0.078
18330WAT      O55231   5.326   7.846   3.754
18330WAT     H155232   5.378   7.778   3.702
18330WAT     H255233   5.342   7.937   3.716
18331WAT      O55234   4.120   7.690   9.693
18331WAT     H155235   4.088   7.781   9.669
18331WAT     H255236   4.047   7.624   9.677
18332WAT      O55237   6.038   5.894   0.815
18332WAT     H155238   6.079   5.942   0.737
18332WAT     H255239   5.941   5.877   0.796
18333WAT      O55240   7.918   2.248   2.585
18333WAT     H155241   8.013   2.230   2.560
18333WAT     H255242   7.864   2.166   2.568
18334WAT      O55243   8.114   1.924   7.867
18334WAT     H155244   8.114   1.976   7.782
18334WAT     H255245   8.061   1.840   7.856
18335WAT      O55246   7.077   4.688   1.120
18335WAT     H155247   7.157   4.748   1.123
18335WAT     H255248   7.105   4.594   1.140
18336WAT      O55249   1.617   1.117   5.746
18336WAT     H155250   1.551   1.056   5.701
18336WAT     H255251   1.604   1.210   5.714
18337WAT      O55252   5.715   2.556   9.886
18337WAT     H155253   5.788   2.488   9.887
18337WAT     H255254   5.677   2.562   9.793
18338WAT      O55255   5.938   7.030   6.799
18338WAT     H155256   6.027   6.992   6.775
18338WAT     H255257   5.927   7.120   6.756
18339WAT      O55258   1.080   1.079   7.716
18339WAT     H155259   1.014   1.004   7.725
18339WAT     H255260   1.163   1.045   7.672
18340WAT      O55261   3.914   8.363   1.543
18340WAT     H155262   3.878   8.371   1.636
18340WAT     H255263   3.872   8.432   1.485
18341WAT      O55264   7.987   7.192   9.079
18341WAT     H155265   7.905   7.215   9.131
18341WAT     H255266   7.985   7.096   9.054
18342WAT      O55267   5.705   7.743   9.611
18342WAT     H155268   5.749   7.668   9.562
18342WAT     H255269   5.775   7.806   9.646
18343WAT      O55270   1.030   6.411   6.123
18343WAT     H155271   0.996   6.350   6.052
18343WAT     H255272   0.986   6.388   6.211
18344WAT      O55273   4.656   6.034   8.187
18344WAT     H155274   4.567   5.990   8.182
18344WAT     H255275   4.680   6.072   8.097
18345WAT      O55276   0.006   7.386   8.474
18345WAT     H155277  -0.051   7.318   8.520
18345WAT     H255278   0.043   7.450   8.541
18346WAT      O55279   1.846   8.038   3.602
18346WAT     H155280   1.888   8.089   3.526
18346WAT     H255281   1.802   7.956   3.566
18347WAT      O55282   6.364   3.961   4.272
18347WAT     H155283   6.446   3.909   4.293
18347WAT     H255284   6.327   4.001   4.356
18348WAT      O55285   3.176   0.156   0.892
18348WAT     H155286   3.111   0.172   0.966
18348WAT     H255287   3.144   0.081   0.834
18349WAT      O55288   6.779   6.059   0.097
18349WAT     H155289   6.863   6.072   0.151
18349WAT     H255290   6.742   5.968   0.115
18350WAT      O55291   2.787   1.285   4.623
18350WAT     H155292   2.719   1.224   4.582
18350WAT     H255293   2.878   1.252   4.600
18351WAT      O55294   7.803   8.842   4.135
18351WAT     H155295   7.789   8.896   4.218
18351WAT     H255296   7.741   8.763   4.135
18352WAT      O55297   8.889   8.878   9.758
18352WAT     H155298   8.979   8.919   9.774
18352WAT     H255299   8.817   8.940   9.790
18353WAT      O55300   5.856   4.144   2.315
18353WAT     H155301   5.914   4.224   2.326
18353WAT     H255302   5.761   4.172   2.304
18354WAT      O55303   1.122   1.124   3.517
18354WAT     H155304   1.186   1.151   3.589
18354WAT     H255305   1.165   1.055   3.458
18355WAT      O55306   8.270   1.559   4.115
18355WAT     H155307   8.256   1.534   4.211
18355WAT     H255308   8.359   1.524   4.085
18356WAT      O55309   8.780   5.340   2.872
18356WAT     H155310   8.844   5.365   2.799
18356WAT     H255311   8.813   5.259   2.919
18357WAT      O55312   5.742   0.838   8.825
18357WAT     H155313   5.782   0.916   8.778
18357WAT     H255314   5.773   0.753   8.782
18358WAT      O55315   6.892   3.322   5.537
18358WAT     H155316   6.918   3.409   5.579
18358WAT     H255317   6.933   3.315   5.446
18359WAT      O55318   1.095   1.088   9.688
18359WAT     H155319   1.116   1.154   9.761
18359WAT     H255320   1.179   1.043   9.659
18360WAT      O55321   4.273   9.092   5.906
18360WAT     H155322   4.326   9.142   5.837
18360WAT     H255323   4.325   9.011   5.934
18361WAT      O55324   8.785   6.563   2.812
18361WAT     H155325   8.843   6.481   2.815
18361WAT     H255326   8.730   6.568   2.895
18362WAT      O55327   4.576   8.654   9.592
18362WAT     H155328   4.515   8.576   9.576
18362WAT     H255329   4.580   8.674   9.690
18363WAT      O55330   9.436   1.046   7.612
18363WAT     H155331   9.489   1.000   7.541
18363WAT     H255332   9.364   0.984   7.645
18364WAT      O55333   5.871   8.909   4.017
18364WAT     H155334   5.785   8.866   4.044
18364WAT     H255335   5.941   8.889   4.087
18365WAT      O55336   9.222   6.824   2.352
18365WAT     H155337   9.236   6.776   2.439
18365WAT     H255338   9.226   6.923   2.368
18366WAT      O55339   2.558   2.856   7.981
18366WAT     H155340   2.464   2.855   8.016
18366WAT     H255341   2.572   2.775   7.923
18367WAT      O55342   1.008   3.185   0.754
18367WAT     H155343   1.089   3.229   0.717
18367WAT     H255344   0.988   3.224   0.844
18368WAT      O55345   0.618   8.245   9.088
18368WAT     H155346   0.578   8.266   9.178
18368WAT     H255347   0.707   8.290   9.081
18369WAT      O55348   4.866   9.223   3.513
18369WAT     H155349   4.964   9.236   3.528
18369WAT     H255350   4.814   9.269   3.586
18370WAT      O55351   4.793   8.425   5.055
18370WAT     H155352   4.828   8.518   5.067
18370WAT     H255353   4.710   8.427   5.000
18371WAT      O55354   4.165   5.384   0.606
18371WAT     H155355   4.205   5.314   0.665
18371WAT     H255356   4.226   5.464   0.604
18372WAT      O55357   0.596   1.048   6.865
18372WAT     H155358   0.579   0.950   6.851
18372WAT     H255359   0.632   1.062   6.957
18373WAT      O55360   1.733   2.330   2.365
18373WAT     H155361   1.775   2.399   2.306
18373WAT     H255362   1.681   2.266   2.309
18374WAT      O55363   6.424   3.260   5.366
18374WAT     H155364   6.477   3.289   5.446
18374WAT     H255365   6.411   3.338   5.305
18375WAT      O55366   2.385   5.431   0.218
18375WAT     H155367   2.381   5.466   0.311
18375WAT     H255368   2.448   5.487   0.164
18376WAT      O55369   7.664   0.589   6.788
18376WAT     H155370   7.663   0.662   6.856
18376WAT     H255371   7.688   0.503   6.832
18377WAT      O55372   9.796   2.497   2.244
18377WAT     H155373   9.823   2.461   2.155
18377WAT     H255374   9.820   2.432   2.316
18378WAT      O55375   7.700   3.749   1.604
18378WAT     H155376   7.761   3.826   1.584
18378WAT     H255377   7.645   3.771   1.685
18379WAT      O55378   5.930   1.918   5.280
18379WAT     H155379   5.909   1.858   5.357
18379WAT     H255380   5.919   1.868   5.194
18380WAT      O55381   4.522   9.203   5.305
18380WAT     H155382   4.609   9.181   5.260
18380WAT     H255383   4.501   9.134   5.374
18381WAT      O55384   7.508   3.716   4.297
18381WAT     H155385   7.600   3.716   4.258
18381WAT     H255386   7.441   3.698   4.225
18382WAT      O55387   2.858   9.224   0.630
18382WAT     H155388   2.947   9.265   0.648
18382WAT     H255389   2.840   9.151   0.696
18383WAT      O55390   7.891   7.686   9.612
18383WAT     H155391   7.912   7.700   9.709
18383WAT     H255392   7.854   7.770   9.573
18384WAT      O55393   2.582   6.685   3.503
18384WAT     H155394   2.601   6.783   3.509
18384WAT     H255395   2.550   6.663   3.411
18385WAT      O55396   1.555   0.809   1.832
18385WAT     H155397   1.501   0.830   1.914
18385WAT     H255398   1.608   0.889   1.805
18386WAT      O55399   4.274   0.281   1.945
18386WAT     H155400   4.221   0.196   1.946
18386WAT     H255401   4.345   0.276   2.016
18387WAT      O55402   4.474   7.966   5.024
18387WAT     H155403   4.552   7.909   4.997
18387WAT     H255404   4.506   8.058   5.045
18388WAT      O55405   3.059   8.680   3.039
18388WAT     H155406   3.094   8.749   2.975
18388WAT     H255407   3.121   8.672   3.117
18389WAT      O55408   5.586   0.335   3.442
18389WAT     H155409   5.521   0.407   3.417
18389WAT     H255410   5.582   0.261   3.375
18390WAT      O55411   1.515   5.724   7.638
18390WAT     H155412   1.504   5.652   7.706
18390WAT     H255413   1.502   5.687   7.546
18391WAT      O55414   6.682   1.208   7.464
18391WAT     H155415   6.651   1.164   7.380
18391WAT     H255416   6.749   1.279   7.442
18392WAT      O55417   2.175   7.593   8.722
18392WAT     H155418   2.161   7.495   8.713
18392WAT     H255419   2.273   7.614   8.720
18393WAT      O55420   1.889   4.683   6.402
18393WAT     H155421   1.887   4.783   6.393
18393WAT     H255422   1.796   4.647   6.390
18394WAT      O55423   0.076   2.105   8.823
18394WAT     H155424   0.125   2.044   8.761
18394WAT     H255425  -0.022   2.088   8.817
18395WAT      O55426   6.056   0.963   9.608
18395WAT     H155427   5.995   0.905   9.662
18395WAT     H255428   6.003   1.019   9.545
18396WAT      O55429   8.460   8.829   4.838
18396WAT     H155430   8.533   8.895   4.816
18396WAT     H255431   8.470   8.749   4.779
18397WAT      O55432   4.139   3.758   8.033
18397WAT     H155433   4.093   3.680   7.992
18397WAT     H255434   4.076   3.805   8.095
18398WAT      O55435   5.470   4.380   0.585
18398WAT     H155436   5.416   4.449   0.632
18398WAT     H255437   5.549   4.423   0.542
18399WAT      O55438   3.201   2.864   9.611
18399WAT     H155439   3.219   2.854   9.513
18399WAT     H255440   3.254   2.796   9.662
18400WAT      O55441   6.172   2.136   5.133
18400WAT     H155442   6.151   2.051   5.085
18400WAT     H255443   6.165   2.122   5.232
18401WAT      O55444   0.204   3.272   8.297
18401WAT     H155445   0.285   3.237   8.343
18401WAT     H255446   0.179   3.361   8.335
18402WAT      O55447   6.547   0.680   4.109
18402WAT     H155448   6.569   0.586   4.133
18402WAT     H255449   6.504   0.682   4.019
18403WAT      O55450   6.028   9.251   3.722
18403WAT     H155451   6.043   9.218   3.629
18403WAT     H255452   6.116   9.255   3.770
18404WAT      O55453   9.816   2.575   2.767
18404WAT     H155454   9.805   2.560   2.865
18404WAT     H255455   9.901   2.626   2.751
18405WAT      O55456   1.061   1.445   8.948
18405WAT     H155457   0.993   1.505   8.907
18405WAT     H255458   1.091   1.484   9.035
18406WAT      O55459   1.530   3.827   6.463
18406WAT     H155460   1.574   3.771   6.534
18406WAT     H255461   1.461   3.773   6.416
18407WAT      O55462   4.014   8.113   4.067
18407WAT     H155463   4.016   8.209   4.095
18407WAT     H255464   3.994   8.055   4.147
18408WAT      O55465   7.995   2.190   5.833
18408WAT     H155466   7.927   2.256   5.862
18408WAT     H255467   7.952   2.100   5.823
18409WAT      O55468   1.904   3.720   9.403
18409WAT     H155469   1.999   3.704   9.378
18409WAT     H255470   1.856   3.633   9.410
18410WAT      O55471   8.388   6.461   1.482
18410WAT     H155472   8.417   6.374   1.523
18410WAT     H255473   8.434   6.537   1.528
18411WAT      O55474   2.218   5.746   7.517
18411WAT     H155475   2.219   5.769   7.420
18411WAT     H255476   2.197   5.649   7.527
18412WAT      O55477   7.477   5.442   6.110
18412WAT     H155478   7.469   5.482   6.201
18412WAT     H255479   7.544   5.493   6.057
18413WAT      O55480   1.266   0.044   0.398
18413WAT     H155481   1.350  -0.003   0.374
18413WAT     H255482   1.199   0.034   0.325
18414WAT      O55483   6.980   0.608   7.891
18414WAT     H155484   6.969   0.691   7.945
18414WAT     H255485   6.899   0.595   7.833
18415WAT      O55486   7.242   5.644   3.213
18415WAT     H155487   7.334   5.682   3.201
18415WAT     H255488   7.205   5.675   3.301
18416WAT      O55489   6.049   2.723   6.997
18416WAT     H155490   6.097   2.810   6.993
18416WAT     H255491   6.109   2.653   7.035
18417WAT      O55492   8.516   3.445   1.838
18417WAT     H155493   8.470   3.371   1.788
18417WAT     H255494   8.458   3.526   1.838
18418WAT      O55495   7.816   3.595   6.976
18418WAT     H155496   7.871   3.635   7.049
18418WAT     H255497   7.837   3.497   6.968
18419WAT      O55498   9.730   1.056   3.710
18419WAT     H155499   9.641   1.102   3.712
18419WAT     H255500   9.802   1.123   3.696
18420WAT      O55501   1.204   3.709   9.159
18420WAT     H155502   1.191   3.718   9.258
18420WAT     H255503   1.242   3.794   9.122
18421WAT      O55504   4.776   7.158   2.800
18421WAT     H155505   4.865   7.112   2.803
18421WAT     H255506   4.790   7.257   2.798
18422WAT      O55507   7.153   6.960   9.103
18422WAT     H155508   7.217   7.023   9.145
18422WAT     H255509   7.195   6.870   9.094
18423WAT      O55510   3.670   8.571   2.415
18423WAT     H155511   3.699   8.655   2.462
18423WAT     H255512   3.571   8.574   2.400
18424WAT      O55513   1.833   3.551   8.651
18424WAT     H155514   1.894   3.590   8.583
18424WAT     H255515   1.837   3.451   8.646
18425WAT      O55516   8.961   9.081   3.034
18425WAT     H155517   9.008   9.106   3.119
18425WAT     H255518   8.874   9.130   3.028
18426WAT      O55519   8.223   6.388   1.069
18426WAT     H155520   8.227   6.429   1.160
18426WAT     H255521   8.304   6.331   1.055
18427WAT      O55522   9.119   5.182   2.079
18427WAT     H155523   9.168   5.198   2.165
18427WAT     H255524   9.086   5.088   2.077
18428WAT      O55525   5.923   2.009   2.665
18428WAT     H155526   5.951   2.100   2.633
18428WAT     H255527   5.920   1.946   2.587
18429WAT      O55528   4.451   9.683   2.583
18429WAT     H155529   4.363   9.726   2.599
18429WAT     H255530   4.524   9.745   2.612
18430WAT      O55531   2.869   7.621   5.564
18430WAT     H155532   2.884   7.720   5.559
18430WAT     H255533   2.887   7.590   5.658
18431WAT      O55534   0.253   8.883   0.385
18431WAT     H155535   0.187   8.808   0.372
18431WAT     H255536   0.223   8.962   0.332
18432WAT      O55537   6.241   2.221   0.236
18432WAT     H155538   6.320   2.246   0.290
18432WAT     H255539   6.159   2.262   0.276
18433WAT      O55540   6.516   3.840   1.609
18433WAT     H155541   6.585   3.906   1.578
18433WAT     H255542   6.555   3.780   1.679
18434WAT      O55543   1.117   0.047   9.668
18434WAT     H155544   1.084  -0.039   9.629
18434WAT     H255545   1.181   0.090   9.604
18435WAT      O55546   8.633   5.838   9.076
18435WAT     H155547   8.591   5.853   8.987
18435WAT     H255548   8.578   5.883   9.147
18436WAT      O55549   0.498   3.189   5.812
18436WAT     H155550   0.497   3.128   5.891
18436WAT     H255551   0.442   3.269   5.831
18437WAT      O55552   7.039   8.632   5.512
18437WAT     H155553   7.006   8.568   5.443
18437WAT     H255554   7.124   8.598   5.551
18438WAT      O55555   8.474   6.437   0.368
18438WAT     H155556   8.390   6.445   0.422
18438WAT     H255557   8.537   6.373   0.413
18439WAT      O55558   7.713   1.987   8.895
18439WAT     H155559   7.650   1.914   8.869
18439WAT     H255560   7.807   1.951   8.895
18440WAT      O55561   6.390   3.337   7.995
18440WAT     H155562   6.357   3.431   7.996
18440WAT     H255563   6.449   3.322   8.074
18441WAT      O55564   4.550   8.825   8.444
18441WAT     H155565   4.600   8.887   8.383
18441WAT     H255566   4.607   8.802   8.523
18442WAT      O55567   0.679   8.037   3.250
18442WAT     H155568   0.684   8.021   3.349
18442WAT     H255569   0.759   7.997   3.206
18443WAT      O55570   0.078   5.040   0.786
18443WAT     H155571   0.069   5.105   0.861
18443WAT     H255572  -0.011   5.027   0.742
18444WAT      O55573   8.062   4.916   1.065
18444WAT     H155574   7.976   4.953   1.032
18444WAT     H255575   8.046   4.830   1.114
18445WAT      O55576   4.173   9.532   1.342
18445WAT     H155577   4.206   9.441   1.368
18445WAT     H255578   4.238   9.574   1.277
18446WAT      O55579   6.937   0.022   5.315
18446WAT     H155580   6.845  -0.011   5.335
18446WAT     H255581   6.978  -0.036   5.244
18447WAT      O55582   3.100   4.862   6.323
18447WAT     H155583   3.004   4.862   6.351
18447WAT     H255584   3.124   4.773   6.283
18448WAT      O55585   1.365   0.556   8.699
18448WAT     H155586   1.435   0.590   8.636
18448WAT     H255587   1.375   0.600   8.788
18449WAT      O55588   5.996   5.209   3.883
18449WAT     H155589   5.981   5.303   3.915
18449WAT     H255590   6.020   5.151   3.960
18450WAT      O55591   1.471   1.607   7.264
18450WAT     H155592   1.412   1.551   7.205
18450WAT     H255593   1.420   1.632   7.347
18451WAT      O55594   9.269   4.477   4.449
18451WAT     H155595   9.359   4.438   4.428
18451WAT     H255596   9.211   4.408   4.492
18452WAT      O55597   5.213   8.677   5.331
18452WAT     H155598   5.302   8.666   5.375
18452WAT     H255599   5.200   8.604   5.263
18453WAT      O55600   3.381   1.686   6.108
18453WAT     H155601   3.315   1.761   6.111
18453WAT     H255602   3.344   1.612   6.052
18454WAT      O55603   9.445   3.245   7.665
18454WAT     H155604   9.500   3.178   7.616
18454WAT     H255605   9.348   3.225   7.652
18455WAT      O55606   2.130   6.739   4.557
18455WAT     H155607   2.169   6.817   4.605
18455WAT     H255608   2.061   6.771   4.492
18456WAT      O55609   7.695   5.871   5.842
18456WAT     H155610   7.778   5.815   5.839
18456WAT     H255611   7.702   5.937   5.918
18457WAT      O55612   4.812   2.862   1.388
18457WAT     H155613   4.770   2.771   1.384
18457WAT     H255614   4.910   2.852   1.404
18458WAT      O55615   5.145   9.125   3.793
18458WAT     H155616   5.242   9.119   3.767
18458WAT     H255617   5.137   9.111   3.891
18459WAT      O55618   8.021   7.043   0.430
18459WAT     H155619   8.085   7.082   0.364
18459WAT     H255620   8.070   6.982   0.492
18460WAT      O55621   9.073   6.225   1.661
18460WAT     H155622   9.154   6.234   1.603
18460WAT     H255623   9.083   6.285   1.741
18461WAT      O55624   8.634   1.226   6.923
18461WAT     H155625   8.707   1.238   6.991
18461WAT     H255626   8.582   1.311   6.915
18462WAT      O55627   1.361   6.979   4.370
18462WAT     H155628   1.436   7.045   4.371
18462WAT     H255629   1.368   6.918   4.449
18463WAT      O55630   4.094   7.111   6.657
18463WAT     H155631   4.138   7.109   6.568
18463WAT     H255632   4.159   7.140   6.727
18464WAT      O55633   0.494   2.936   9.700
18464WAT     H155634   0.500   2.846   9.743
18464WAT     H255635   0.522   3.007   9.765
18465WAT      O55636   3.002   3.158   1.865
18465WAT     H155637   3.033   3.077   1.915
18465WAT     H255638   2.992   3.234   1.929
18466WAT      O55639   0.812   6.689   5.532
18466WAT     H155640   0.834   6.783   5.504
18466WAT     H255641   0.713   6.682   5.549
18467WAT      O55642   6.252   2.107   4.223
18467WAT     H155643   6.304   2.191   4.207
18467WAT     H255644   6.166   2.111   4.172
18468WAT      O55645   3.879   0.432   4.868
18468WAT     H155646   3.960   0.479   4.902
18468WAT     H255647   3.904   0.374   4.790
18469WAT      O55648   2.751   4.320   0.125
18469WAT     H155649   2.764   4.406   0.173
18469WAT     H255650   2.755   4.244   0.190
18470WAT      O55651   2.592   6.994   0.595
18470WAT     H155652   2.666   7.008   0.529
18470WAT     H255653   2.597   6.900   0.631
18471WAT      O55654   9.147   4.374   8.945
18471WAT     H155655   9.148   4.299   9.011
18471WAT     H255656   9.110   4.341   8.858
18472WAT      O55657   5.535   4.058   3.838
18472WAT     H155658   5.596   3.986   3.803
18472WAT     H255659   5.587   4.142   3.851
18473WAT      O55660   6.041   2.886   4.704
18473WAT     H155661   6.054   2.960   4.637
18473WAT     H255662   6.121   2.826   4.703
18474WAT      O55663   8.271   1.715   4.945
18474WAT     H155664   8.285   1.779   5.022
18474WAT     H255665   8.229   1.631   4.979
18475WAT      O55666   2.807   1.209   1.331
18475WAT     H155667   2.849   1.119   1.321
18475WAT     H255668   2.837   1.250   1.417
18476WAT      O55669   3.982   0.148   4.367
18476WAT     H155670   3.889   0.175   4.392
18476WAT     H255671   4.023   0.097   4.444
18477WAT      O55672   8.368   6.011   0.624
18477WAT     H155673   8.446   5.958   0.592
18477WAT     H255674   8.339   6.075   0.553
18478WAT      O55675   4.203   6.243   0.864
18478WAT     H155676   4.218   6.315   0.932
18478WAT     H255677   4.250   6.160   0.893
18479WAT      O55678   7.313   7.365   0.562
18479WAT     H155679   7.401   7.334   0.526
18479WAT     H255680   7.257   7.286   0.588
18480WAT      O55681   9.264   8.581   6.271
18480WAT     H155682   9.181   8.635   6.254
18480WAT     H255683   9.298   8.544   6.184
18481WAT      O55684   0.206   7.964   2.473
18481WAT     H155685   0.217   7.913   2.558
18481WAT     H255686   0.211   7.901   2.395
18482WAT      O55687   6.945   3.146   5.715
18482WAT     H155688   6.927   3.188   5.626
18482WAT     H255689   6.952   3.218   5.784
18483WAT      O55690   3.968   0.737   8.964
18483WAT     H155691   3.899   0.779   8.905
18483WAT     H255692   4.051   0.721   8.911
18484WAT      O55693   3.845   0.946   0.233
18484WAT     H155694   3.772   0.947   0.164
18484WAT     H255695   3.850   0.855   0.274
18485WAT      O55696   2.156   6.366   4.693
18485WAT     H155697   2.241   6.344   4.645
18485WAT     H255698   2.097   6.420   4.633
18486WAT      O55699   0.908   6.629   4.363
18486WAT     H155700   0.966   6.598   4.438
18486WAT     H255701   0.942   6.592   4.277
18487WAT      O55702   9.831   7.521   3.237
18487WAT     H155703   9.906   7.567   3.284
18487WAT     H255704   9.865   7.482   3.151
18488WAT      O55705   6.952   1.621   9.639
18488WAT     H155706   7.045   1.657   9.633
18488WAT     H255707   6.947   1.555   9.714
18489WAT      O55708   3.581   3.924   1.219
18489WAT     H155709   3.678   3.948   1.213
18489WAT     H255710   3.550   3.934   1.314
18490WAT      O55711   6.163   6.532   4.763
18490WAT     H155712   6.200   6.479   4.839
18490WAT     H255713   6.063   6.532   4.767
18491WAT      O55714   8.628   5.116   6.816
18491WAT     H155715   8.606   5.039   6.757
18491WAT     H255716   8.652   5.083   6.908
18492WAT      O55717   6.912   9.408   5.041
18492WAT     H155718   6.934   9.399   5.138
18492WAT     H255719   6.878   9.501   5.023
18493WAT      O55720   3.250   0.271   8.396
18493WAT     H155721   3.262   0.276   8.297
18493WAT     H255722   3.338   0.285   8.441
18494WAT      O55723   5.006   8.252   1.971
18494WAT     H155724   4.920   8.247   2.022
18494WAT     H255725   5.056   8.166   1.983
18495WAT      O55726   0.086   1.298   1.388
18495WAT     H155727   0.106   1.233   1.462
18495WAT     H255728   0.044   1.249   1.311
18496WAT      O55729   9.604   4.042   1.125
18496WAT     H155730   9.537   3.972   1.152
18496WAT     H255731   9.566   4.132   1.144
18497WAT      O55732   7.561   4.136   2.405
18497WAT     H155733   7.563   4.108   2.501
18497WAT     H255734   7.626   4.080   2.353
18498WAT      O55735   7.876   0.087   5.877
18498WAT     H155736   7.937   0.163   5.856
18498WAT     H255737   7.786   0.122   5.902
18499WAT      O55738   5.840   4.997   4.143
18499WAT     H155739   5.767   4.933   4.167
18499WAT     H255740   5.927   4.963   4.176
18500WAT      O55741   2.928   2.802   1.275
18500WAT     H155742   2.894   2.778   1.366
18500WAT     H255743   3.019   2.841   1.283
18501WAT      O55744   7.696   9.615   5.233
18501WAT     H155745   7.661   9.707   5.212
18501WAT     H255746   7.761   9.621   5.309
18502WAT      O55747   7.824   9.287   4.192
18502WAT     H155748   7.920   9.315   4.189
18502WAT     H255749   7.806   9.239   4.278
18503WAT      O55750   1.204   3.600   4.001
18503WAT     H155751   1.284   3.648   3.965
18503WAT     H255752   1.121   3.643   3.965
18504WAT      O55753   8.233   9.085   5.094
18504WAT     H155754   8.240   9.176   5.052
18504WAT     H255755   8.199   9.095   5.188
18505WAT      O55756   9.329   3.442   2.864
18505WAT     H155757   9.382   3.378   2.809
18505WAT     H255758   9.371   3.532   2.861
18506WAT      O55759   6.918   3.172   6.352
18506WAT     H155760   6.885   3.127   6.435
18506WAT     H255761   6.974   3.251   6.376
18507WAT      O55762   4.729   4.968   1.815
18507WAT     H155763   4.742   5.056   1.860
18507WAT     H255764   4.751   4.894   1.878
18508WAT      O55765   8.490   1.379   7.368
18508WAT     H155766   8.575   1.423   7.338
18508WAT     H255767   8.418   1.400   7.303
18509WAT      O55768   1.682   1.311   7.383
18509WAT     H155769   1.594   1.326   7.429
18509WAT     H255770   1.727   1.399   7.369
18510WAT      O55771   8.971   4.313   9.732
18510WAT     H155772   8.929   4.223   9.724
18510WAT     H255773   9.011   4.323   9.823
18511WAT      O55774   4.273   9.512   3.583
18511WAT     H155775   4.228   9.523   3.672
18511WAT     H255776   4.259   9.594   3.528
18512WAT      O55777   3.400   4.020   9.826
18512WAT     H155778   3.318   3.996   9.774
18512WAT     H255779   3.481   4.004   9.770
18513WAT      O55780   1.425   7.989   0.082
18513WAT     H155781   1.364   7.910   0.071
18513WAT     H255782   1.518   7.964   0.054
18514WAT      O55783   1.513   0.520   6.440
18514WAT     H155784   1.573   0.578   6.385
18514WAT     H255785   1.568   0.465   6.502
18515WAT      O55786   8.574   9.161   2.729
18515WAT     H155787   8.509   9.106   2.782
18515WAT     H255788   8.533   9.250   2.709
18516WAT      O55789   3.106   9.583   5.128
18516WAT     H155790   3.047   9.643   5.183
18516WAT     H255791   3.057   9.555   5.046
18517WAT      O55792   5.905   9.393   4.605
18517WAT     H155793   5.925   9.464   4.538
18517WAT     H255794   5.961   9.312   4.586
18518WAT      O55795   3.160   9.812   3.866
18518WAT     H155796   3.180   9.714   3.862
18518WAT     H255797   3.234   9.859   3.915
18519WAT      O55798   5.259   0.427   0.103
18519WAT     H155799   5.172   0.469   0.130
18519WAT     H255800   5.309   0.489   0.043
18520WAT      O55801   5.731   2.652   6.393
18520WAT     H155802   5.825   2.642   6.424
18520WAT     H255803   5.724   2.728   6.328
18521WAT      O55804   7.946   8.803   7.610
18521WAT     H155805   7.883   8.878   7.591
18521WAT     H255806   8.040   8.837   7.607
18522WAT      O55807   3.716   7.832   4.038
18522WAT     H155808   3.803   7.865   4.001
18522WAT     H255809   3.720   7.832   4.138
18523WAT      O55810   5.263   3.257   4.088
18523WAT     H155811   5.207   3.253   4.171
18523WAT     H255812   5.359   3.269   4.113
18524WAT      O55813   7.816   5.612   3.311
18524WAT     H155814   7.815   5.696   3.258
18524WAT     H255815   7.803   5.534   3.250
18525WAT      O55816   5.829   0.478   2.499
18525WAT     H155817   5.888   0.399   2.481
18525WAT     H255818   5.868   0.533   2.573
18526WAT      O55819   0.858   3.333   6.915
18526WAT     H155820   0.761   3.338   6.941
18526WAT     H255821   0.881   3.410   6.857
18527WAT      O55822   2.870   8.770   2.594
18527WAT     H155823   2.822   8.735   2.675
18527WAT     H255824   2.872   8.700   2.523
18528WAT      O55825   5.757   0.912   5.793
18528WAT     H155826   5.693   0.843   5.760
18528WAT     H255827   5.780   0.975   5.719
18529WAT      O55828   5.946   4.241   4.894
18529WAT     H155829   5.956   4.317   4.829
18529WAT     H255830   5.881   4.267   4.966
18530WAT      O55831   9.710   2.035   4.311
18530WAT     H155832   9.716   2.053   4.213
18530WAT     H255833   9.777   1.964   4.336
18531WAT      O55834   4.609   0.870   5.961
18531WAT     H155835   4.539   0.932   5.995
18531WAT     H255836   4.693   0.921   5.942
18532WAT      O55837   8.444   4.397   8.837
18532WAT     H155838   8.488   4.321   8.789
18532WAT     H255839   8.512   4.447   8.890
18533WAT      O55840   6.375   5.814   7.809
18533WAT     H155841   6.447   5.883   7.814
18533WAT     H255842   6.328   5.821   7.721
18534WAT      O55843   9.441   0.485   7.649
18534WAT     H155844   9.524   0.434   7.622
18534WAT     H255845   9.370   0.420   7.675
18535WAT      O55846   7.245   2.134   6.740
18535WAT     H155847   7.202   2.099   6.823
18535WAT     H255848   7.334   2.091   6.727
18536WAT      O55849   3.926   3.516   3.957
18536WAT     H155850   4.006   3.489   3.903
18536WAT     H255851   3.911   3.615   3.947
18537WAT      O55852   8.894   5.494   8.909
18537WAT     H155853   8.891   5.587   8.943
18537WAT     H255854   8.853   5.490   8.817
18538WAT      O55855   6.099   2.231   8.114
18538WAT     H155856   6.127   2.283   8.033
18538WAT     H255857   6.090   2.293   8.191
18539WAT      O55858   0.808   8.563   3.555
18539WAT     H155859   0.780   8.603   3.642
18539WAT     H255860   0.733   8.570   3.489
18540WAT      O55861   5.131   5.434   0.292
18540WAT     H155862   5.032   5.445   0.282
18540WAT     H255863   5.157   5.345   0.254
18541WAT      O55864   3.100   0.665   2.972
18541WAT     H155865   3.197   0.681   2.991
18541WAT     H255866   3.047   0.746   2.997
18542WAT      O55867   3.931   2.841   3.679
18542WAT     H155868   3.910   2.913   3.613
18542WAT     H255869   3.863   2.843   3.753
18543WAT      O55870   3.539   6.518   1.246
18543WAT     H155871   3.465   6.583   1.265
18543WAT     H255872   3.626   6.568   1.239
18544WAT      O55873   2.007   9.617   3.619
18544WAT     H155874   1.981   9.700   3.569
18544WAT     H255875   1.978   9.536   3.568
18545WAT      O55876   7.298   5.754   4.287
18545WAT     H155877   7.259   5.669   4.323
18545WAT     H255878   7.396   5.743   4.272
18546WAT      O55879   9.043   9.582   5.865
18546WAT     H155880   9.043   9.672   5.907
18546WAT     H255881   8.951   9.561   5.832
18547WAT      O55882   7.715   3.904   2.039
18547WAT     H155883   7.782   3.935   1.972
18547WAT     H255884   7.623   3.928   2.008
18548WAT      O55885   5.484   2.285   9.346
18548WAT     H155886   5.553   2.250   9.283
18548WAT     H255887   5.519   2.284   9.439
18549WAT      O55888   6.458   3.224   4.702
18549WAT     H155889   6.457   3.139   4.755
18549WAT     H255890   6.414   3.297   4.755
18550WAT      O55891   9.764   0.553   2.739
18550WAT     H155892   9.727   0.484   2.801
18550WAT     H255893   9.793   0.633   2.791
18551WAT      O55894   1.688   1.750   0.141
18551WAT     H155895   1.713   1.842   0.111
18551WAT     H255896   1.725   1.683   0.077
18552WAT      O55897   7.476   3.218   4.750
18552WAT     H155898   7.402   3.276   4.717
18552WAT     H255899   7.510   3.161   4.676
18553WAT      O55900   7.314   3.590   5.217
18553WAT     H155901   7.345   3.498   5.194
18553WAT     H255902   7.363   3.657   5.161
18554WAT      O55903   6.223   6.286   9.743
18554WAT     H155904   6.168   6.215   9.699
18554WAT     H255905   6.303   6.245   9.786
18555WAT      O55906   9.401   6.746   3.177
18555WAT     H155907   9.347   6.754   3.261
18555WAT     H255908   9.498   6.742   3.201
18556WAT      O55909   2.393   7.427   3.883
18556WAT     H155910   2.475   7.374   3.904
18556WAT     H255911   2.355   7.397   3.796
18557WAT      O55912   5.672   3.834   2.482
18557WAT     H155913   5.684   3.749   2.534
18557WAT     H255914   5.757   3.856   2.435
18558WAT      O55915   0.148   5.963   7.212
18558WAT     H155916   0.172   6.049   7.257
18558WAT     H255917   0.142   5.977   7.114
18559WAT      O55918   2.270   1.098   1.809
18559WAT     H155919   2.220   1.177   1.845
18559WAT     H255920   2.344   1.075   1.872
18560WAT      O55921   2.908   1.995   1.621
18560WAT     H155922   2.868   2.040   1.542
18560WAT     H255923   2.997   2.035   1.642
18561WAT      O55924   2.955   6.876   7.184
18561WAT     H155925   2.876   6.819   7.160
18561WAT     H255926   2.982   6.859   7.279
18562WAT      O55927   9.169   6.238   6.537
18562WAT     H155928   9.140   6.171   6.606
18562WAT     H255929   9.111   6.319   6.544
18563WAT      O55930   2.160   1.920   0.350
18563WAT     H155931   2.207   1.834   0.373
18563WAT     H255932   2.070   1.921   0.393
18564WAT      O55933   0.740   9.049   1.688
18564WAT     H155934   0.671   9.075   1.756
18564WAT     H255935   0.765   8.953   1.701
18565WAT      O55936   3.005   4.393   4.882
18565WAT     H155937   3.036   4.308   4.839
18565WAT     H255938   2.945   4.441   4.818
18566WAT      O55939   8.308   3.547   8.914
18566WAT     H155940   8.312   3.623   8.980
18566WAT     H255941   8.396   3.539   8.867
18567WAT      O55942   5.552   7.496   0.223
18567WAT     H155943   5.546   7.570   0.290
18567WAT     H255944   5.561   7.535   0.131
18568WAT      O55945   8.762   8.847   9.056
18568WAT     H155946   8.708   8.911   9.001
18568WAT     H255947   8.780   8.764   9.004
18569WAT      O55948   2.088   3.257   1.256
18569WAT     H155949   2.120   3.343   1.296
18569WAT     H255950   2.161   3.189   1.260
18570WAT      O55951   6.296   7.379   0.123
18570WAT     H155952   6.327   7.442   0.194
18570WAT     H255953   6.220   7.324   0.158
18571WAT      O55954   9.040   7.173   1.522
18571WAT     H155955   9.066   7.251   1.579
18571WAT     H255956   9.082   7.183   1.431
18572WAT      O55957   9.573   2.283   0.759
18572WAT     H155958   9.526   2.195   0.746
18572WAT     H255959   9.657   2.284   0.706
18573WAT      O55960   7.766   3.132   6.378
18573WAT     H155961   7.773   3.095   6.286
18573WAT     H255962   7.814   3.072   6.442
18574WAT      O55963   6.963   3.765   7.391
18574WAT     H155964   7.033   3.835   7.405
18574WAT     H255965   6.943   3.721   7.479
18575WAT      O55966   2.690   8.814   7.719
18575WAT     H155967   2.630   8.783   7.646
18575WAT     H255968   2.744   8.892   7.688
18576WAT      O55969   9.391   5.215   6.463
18576WAT     H155970   9.347   5.279   6.526
18576WAT     H255971   9.330   5.138   6.445
18577WAT      O55972   6.917   6.978   2.401
18577WAT     H155973   6.894   7.010   2.492
18577WAT     H255974   6.992   7.033   2.364
18578WAT      O55975   5.990   0.773   5.767
18578WAT     H155976   5.976   0.692   5.824
18578WAT     H255977   5.907   0.829   5.768
18579WAT      O55978   7.496   7.222   0.121
18579WAT     H155979   7.555   7.283   0.174
18579WAT     H255980   7.401   7.235   0.149
18580WAT      O55981   2.120   4.678   6.535
18580WAT     H155982   2.202   4.655   6.483
18580WAT     H255983   2.042   4.688   6.472
18581WAT      O55984   2.721   6.657   0.381
18581WAT     H155985   2.760   6.663   0.472
18581WAT     H255986   2.621   6.655   0.387
18582WAT      O55987   0.136   9.835   3.269
18582WAT     H155988   0.194   9.836   3.187
18582WAT     H255989   0.158   9.914   3.326
18583WAT      O55990   2.352   6.169   5.912
18583WAT     H155991   2.343   6.260   5.951
18583WAT     H255992   2.427   6.120   5.958
18584WAT      O55993   6.138   2.371   3.127
18584WAT     H155994   6.167   2.444   3.189
18584WAT     H255995   6.169   2.391   3.034
18585WAT      O55996   2.074   8.502   3.829
18585WAT     H155997   2.118   8.591   3.842
18585WAT     H255998   2.092   8.445   3.909
18586WAT      O55999   6.300   9.016   5.390
18586WAT     H156000   6.235   9.069   5.444
18586WAT     H256001   6.253   8.939   5.347
18587WAT      O56002   9.293   3.533   1.805
18587WAT     H156003   9.201   3.564   1.831
18587WAT     H256004   9.302   3.436   1.827
18588WAT      O56005   4.501   3.630   8.533
18588WAT     H156006   4.419   3.685   8.520
18588WAT     H256007   4.567   3.680   8.589
18589WAT      O56008   3.504   8.508   8.819
18589WAT     H156009   3.534   8.538   8.728
18589WAT     H256010   3.410   8.473   8.812
18590WAT      O56011   4.451   9.600   0.196
18590WAT     H156012   4.374   9.664   0.203
18590WAT     H256013   4.518   9.621   0.267
18591WAT      O56014   4.238   9.198   4.498
18591WAT     H156015   4.229   9.263   4.573
18591WAT     H256016   4.333   9.196   4.466
18592WAT      O56017   4.248   9.354   5.252
18592WAT     H156018   4.231   9.412   5.332
18592WAT     H256019   4.325   9.293   5.271
18593WAT      O56020   0.200   8.581   1.470
18593WAT     H156021   0.173   8.505   1.530
18593WAT     H256022   0.244   8.545   1.388
18594WAT      O56023   8.966   5.052   9.382
18594WAT     H156024   8.979   4.970   9.327
18594WAT     H256025   9.050   5.071   9.434
18595WAT      O56026   2.882   0.308   4.816
18595WAT     H156027   2.973   0.342   4.838
18595WAT     H256028   2.868   0.218   4.857
18596WAT      O56029   7.376   0.162   3.378
18596WAT     H156030   7.354   0.128   3.469
18596WAT     H256031   7.456   0.222   3.382
18597WAT      O56032   1.573   6.889   9.474
18597WAT     H156033   1.553   6.829   9.551
18597WAT     H256034   1.489   6.937   9.446
18598WAT      O56035   3.600   1.568   1.718
18598WAT     H156036   3.666   1.563   1.793
18598WAT     H256037   3.599   1.661   1.681
18599WAT      O56038   2.378   8.142   0.862
18599WAT     H156039   2.384   8.049   0.897
18599WAT     H256040   2.297   8.151   0.804
18600WAT      O56041   1.613   3.872   4.464
18600WAT     H156042   1.577   3.920   4.544
18600WAT     H256043   1.710   3.893   4.453
18601WAT      O56044   7.203   6.336   3.985
18601WAT     H156045   7.198   6.336   3.885
18601WAT     H256046   7.181   6.245   4.020
18602WAT      O56047   1.711   2.614   7.633
18602WAT     H156048   1.630   2.575   7.591
18602WAT     H256049   1.700   2.713   7.641
18603WAT      O56050   6.754   1.877   6.940
18603WAT     H156051   6.805   1.838   6.863
18603WAT     H256052   6.796   1.963   6.968
18604WAT      O56053   9.798   8.745   5.858
18604WAT     H156054   9.715   8.736   5.914
18604WAT     H256055   9.778   8.801   5.777
18605WAT      O56056   7.734   6.483   9.466
18605WAT     H156057   7.687   6.481   9.553
18605WAT     H256058   7.706   6.564   9.414
18606WAT      O56059   7.313   5.984   9.746
18606WAT     H156060   7.349   5.901   9.702
18606WAT     H256061   7.214   5.988   9.735
18607WAT      O56062   6.783   6.021   3.986
18607WAT     H156063   6.696   6.067   4.003
18607WAT     H256064   6.838   6.075   3.923
18608WAT      O56065   0.958   1.334   0.170
18608WAT     H156066   1.027   1.306   0.104
18608WAT     H256067   0.878   1.273   0.162
18609WAT      O56068   8.643   8.413   1.542
18609WAT     H156069   8.582   8.466   1.602
18609WAT     H256070   8.597   8.395   1.456
18610WAT      O56071   6.937   5.023   2.617
18610WAT     H156072   6.882   4.948   2.654
18610WAT     H256073   7.028   5.020   2.659
18611WAT      O56074   7.124   0.972   7.310
18611WAT     H156075   7.190   0.899   7.319
18611WAT     H256076   7.036   0.935   7.281
18612WAT      O56077   8.330   5.489   8.843
18612WAT     H156078   8.254   5.553   8.859
18612WAT     H256079   8.294   5.405   8.803
18613WAT      O56080   7.087   0.270   7.211
18613WAT     H156081   7.091   0.369   7.202
18613WAT     H256082   7.014   0.244   7.274
18614WAT      O56083   9.085   8.470   5.257
18614WAT     H156084   9.054   8.555   5.301
18614WAT     H256085   9.067   8.476   5.158
18615WAT      O56086   2.211   2.996   1.293
18615WAT     H156087   2.269   3.064   1.249
18615WAT     H256088   2.230   2.905   1.255
18616WAT      O56089   5.060   7.364   2.876
18616WAT     H156090   5.096   7.320   2.794
18616WAT     H256091   5.070   7.303   2.955
18617WAT      O56092   0.140   8.424   8.088
18617WAT     H156093   0.148   8.345   8.149
18617WAT     H256094   0.149   8.509   8.141
18618WAT      O56095   5.152   4.574   1.062
18618WAT     H156096   5.081   4.602   0.997
18618WAT     H256097   5.241   4.605   1.029
18619WAT      O56098   8.558   9.653   1.678
18619WAT     H156099   8.599   9.727   1.732
18619WAT     H256100   8.624   9.621   1.611
18620WAT      O56101   7.086   4.059   4.716
18620WAT     H156102   7.019   4.070   4.642
18620WAT     H256103   7.170   4.021   4.679
18621WAT      O56104   4.054   1.038   9.044
18621WAT     H156105   4.032   1.033   8.947
18621WAT     H256106   4.125   1.108   9.058
18622WAT      O56107   9.230   5.325   5.557
18622WAT     H156108   9.214   5.267   5.477
18622WAT     H256109   9.328   5.341   5.568
18623WAT      O56110   3.880   1.518   7.908
18623WAT     H156111   3.954   1.583   7.922
18623WAT     H256112   3.842   1.530   7.816
18624WAT      O56113   9.374   9.269   2.690
18624WAT     H156114   9.289   9.287   2.739
18624WAT     H256115   9.380   9.173   2.666
18625WAT      O56116   4.770   6.308   8.804
18625WAT     H156117   4.723   6.222   8.784
18625WAT     H256118   4.702   6.380   8.820
18626WAT      O56119   4.849   3.522   8.823
18626WAT     H156120   4.897   3.455   8.766
18626WAT     H256121   4.794   3.474   8.892
18627WAT      O56122   7.786   3.219   9.160
18627WAT     H156123   7.698   3.187   9.127
18627WAT     H256124   7.833   3.269   9.087
18628WAT      O56125   6.374   0.806   9.421
18628WAT     H156126   6.294   0.801   9.481
18628WAT     H256127   6.397   0.901   9.403
18629WAT      O56128   4.918   6.621   6.423
18629WAT     H156129   4.944   6.536   6.470
18629WAT     H256130   4.830   6.608   6.378
18630WAT      O56131   0.381   9.197   3.193
18630WAT     H156132   0.434   9.250   3.126
18630WAT     H256133   0.341   9.260   3.260
18631WAT      O56134   8.683   7.262   3.856
18631WAT     H156135   8.714   7.172   3.884
18631WAT     H256136   8.737   7.332   3.902
18632WAT      O56137   9.393   7.382   0.047
18632WAT     H156138   9.359   7.370  -0.046
18632WAT     H256139   9.450   7.304   0.073
18633WAT      O56140   0.961   4.802   8.382
18633WAT     H156141   1.057   4.776   8.398
18633WAT     H256142   0.901   4.747   8.440
18634WAT      O56143   6.029   9.760   7.654
18634WAT     H156144   6.048   9.825   7.727
18634WAT     H256145   6.016   9.669   7.693
18635WAT      O56146   4.413   3.361   0.208
18635WAT     H156147   4.389   3.350   0.112
18635WAT     H256148   4.354   3.431   0.249
18636WAT      O56149   7.403   3.305   7.699
18636WAT     H156150   7.420   3.290   7.601
18636WAT     H256151   7.358   3.394   7.711
18637WAT      O56152   0.832   4.020   1.476
18637WAT     H156153   0.761   4.091   1.471
18637WAT     H256154   0.884   4.031   1.561
18638WAT      O56155   0.408   4.261   2.883
18638WAT     H156156   0.455   4.302   2.805
18638WAT     H256157   0.311   4.282   2.878
18639WAT      O56158   2.778   7.949   3.937
18639WAT     H156159   2.682   7.924   3.945
18639WAT     H256160   2.789   8.016   3.864
18640WAT      O56161   8.542   7.896   3.543
18640WAT     H156162   8.635   7.864   3.556
18640WAT     H256163   8.482   7.819   3.521
18641WAT      O56164   4.902   6.459   3.665
18641WAT     H156165   4.855   6.516   3.598
18641WAT     H256166   5.001   6.460   3.647
18642WAT      O56167   8.081   7.375   8.925
18642WAT     H156168   8.007   7.409   8.867
18642WAT     H256169   8.044   7.308   8.990
18643WAT      O56170   0.277   4.465   8.605
18643WAT     H156171   0.217   4.394   8.569
18643WAT     H256172   0.227   4.551   8.615
18644WAT      O56173   9.137   4.867   9.631
18644WAT     H156174   9.213   4.862   9.696
18644WAT     H256175   9.124   4.962   9.604
18645WAT      O56176   7.170   4.328   1.528
18645WAT     H156177   7.070   4.338   1.532
18645WAT     H256178   7.205   4.314   1.621
18646WAT      O56179   9.165   5.435   9.306
18646WAT     H156180   9.138   5.528   9.280
18646WAT     H256181   9.086   5.386   9.343
18647WAT      O56182   5.862   2.449   6.044
18647WAT     H156183   5.867   2.549   6.056
18647WAT     H256184   5.810   2.410   6.120
18648WAT      O56185   3.724   7.779   5.879
18648WAT     H156186   3.705   7.701   5.939
18648WAT     H256187   3.647   7.843   5.882
18649WAT      O56188   0.465   9.729   7.759
18649WAT     H156189   0.423   9.667   7.693
18649WAT     H256190   0.445   9.699   7.851
18650WAT      O56191   7.730   0.746   0.573
18650WAT     H156192   7.755   0.761   0.669
18650WAT     H256193   7.713   0.834   0.528
18651WAT      O56194   8.082   7.711   9.005
18651WAT     H156195   7.994   7.666   8.994
18651WAT     H256196   8.153   7.642   9.021
18652WAT      O56197   8.208   8.824   4.481
18652WAT     H156198   8.219   8.919   4.453
18652WAT     H256199   8.111   8.801   4.483
18653WAT      O56200   7.798   8.825   5.329
18653WAT     H156201   7.730   8.816   5.402
18653WAT     H256202   7.873   8.761   5.345
18654WAT      O56203   4.825   2.232   7.344
18654WAT     H156204   4.833   2.133   7.352
18654WAT     H256205   4.770   2.267   7.421
18655WAT      O56206   4.434   6.100   9.488
18655WAT     H156207   4.437   6.188   9.536
18655WAT     H256208   4.396   6.030   9.548
18656WAT      O56209   8.938   3.244   6.241
18656WAT     H156210   9.017   3.295   6.276
18656WAT     H256211   8.959   3.210   6.149
18657WAT      O56212   8.572   6.701   9.535
18657WAT     H156213   8.579   6.628   9.467
18657WAT     H256214   8.558   6.660   9.625
18658WAT      O56215   7.403   1.846   7.832
18658WAT     H156216   7.411   1.868   7.734
18658WAT     H256217   7.484   1.796   7.861
18659WAT      O56218   6.723   2.308   7.121
18659WAT     H156219   6.770   2.392   7.149
18659WAT     H256220   6.655   2.330   7.052
18660WAT      O56221   8.547   1.564   0.130
18660WAT     H156222   8.542   1.576   0.031
18660WAT     H256223   8.476   1.501   0.161
18661WAT      O56224   7.325   1.353   6.243
18661WAT     H156225   7.358   1.446   6.227
18661WAT     H256226   7.373   1.314   6.322
18662WAT      O56227   3.664   5.749   9.426
18662WAT     H156228   3.756   5.710   9.430
18662WAT     H256229   3.663   5.838   9.471
18663WAT      O56230   4.014   8.113   7.631
18663WAT     H156231   3.961   8.192   7.599
18663WAT     H256232   3.957   8.057   7.690
18664WAT      O56233   8.077   8.860   9.631
18664WAT     H156234   7.988   8.847   9.674
18664WAT     H256235   8.065   8.891   9.537
18665WAT      O56236   5.802   5.699   0.194
18665WAT     H156237   5.784   5.680   0.291
18665WAT     H256238   5.716   5.716   0.146
18666WAT      O56239   9.506   3.407   0.135
18666WAT     H156240   9.598   3.376   0.109
18666WAT     H256241   9.481   3.486   0.078
18667WAT      O56242   8.507   4.970   3.705
18667WAT     H156243   8.536   5.028   3.630
18667WAT     H256244   8.565   4.986   3.785
18668WAT      O56245   6.760   8.828   3.339
18668WAT     H156246   6.853   8.863   3.355
18668WAT     H256247   6.727   8.783   3.421
18669WAT      O56248   1.325   5.629   6.113
18669WAT     H156249   1.372   5.708   6.150
18669WAT     H256250   1.266   5.657   6.037
18670WAT      O56251   7.438   2.970   4.175
18670WAT     H156252   7.527   2.944   4.214
18670WAT     H256253   7.409   2.902   4.108
18671WAT      O56254   8.813   9.841   5.555
18671WAT     H156255   8.714   9.830   5.560
18671WAT     H256256   8.854   9.761   5.511
18672WAT      O56257   0.515   6.682   0.891
18672WAT     H156258   0.423   6.645   0.883
18672WAT     H256259   0.578   6.609   0.919
18673WAT      O56260   5.920   9.536   8.320
18673WAT     H156261   5.959   9.628   8.332
18673WAT     H256262   5.931   9.508   8.225
18674WAT      O56263   6.150   2.802   5.807
18674WAT     H156264   6.182   2.782   5.714
18674WAT     H256265   6.221   2.852   5.856
18675WAT      O56266   9.409   3.448   5.155
18675WAT     H156267   9.441   3.382   5.223
18675WAT     H256268   9.431   3.541   5.185
18676WAT      O56269   4.746   8.107   1.616
18676WAT     H156270   4.662   8.118   1.669
18676WAT     H256271   4.817   8.068   1.675
18677WAT      O56272   9.783   2.912   0.225
18677WAT     H156273   9.831   2.828   0.249
18677WAT     H256274   9.685   2.900   0.237
18678WAT      O56275   2.037   7.133   9.446
18678WAT     H156276   2.039   7.220   9.397
18678WAT     H256277   1.949   7.088   9.432
18679WAT      O56278   0.488   7.968   0.286
18679WAT     H156279   0.472   8.051   0.340
18679WAT     H256280   0.410   7.952   0.225
18680WAT      O56281   5.954   0.866   7.665
18680WAT     H156282   5.954   0.952   7.615
18680WAT     H256283   5.907   0.879   7.753
18681WAT      O56284   0.045   6.246   6.715
18681WAT     H156285   0.057   6.261   6.617
18681WAT     H256286  -0.028   6.180   6.730
18682WAT      O56287   2.246   7.140   5.367
18682WAT     H156288   2.339   7.175   5.379
18682WAT     H256289   2.182   7.196   5.420
18683WAT      O56290   1.606   0.461   0.123
18683WAT     H156291   1.518   0.414   0.127
18683WAT     H256292   1.598   0.551   0.167
18684WAT      O56293   1.615   7.318   1.667
18684WAT     H156294   1.698   7.368   1.643
18684WAT     H256295   1.536   7.367   1.631
18685WAT      O56296   7.082   1.662   4.047
18685WAT     H156297   7.159   1.662   4.111
18685WAT     H256298   6.998   1.684   4.095
18686WAT      O56299   7.121   9.274   0.588
18686WAT     H156300   7.210   9.297   0.628
18686WAT     H256301   7.134   9.235   0.497
18687WAT      O56302   8.038   5.268   0.217
18687WAT     H156303   8.118   5.265   0.156
18687WAT     H256304   8.053   5.339   0.286
18688WAT      O56305   1.919   1.261   0.807
18688WAT     H156306   1.852   1.243   0.734
18688WAT     H256307   2.008   1.280   0.766
18689WAT      O56308   9.818   2.617   0.709
18689WAT     H156309   9.741   2.563   0.676
18689WAT     H256310   9.785   2.692   0.767
18690WAT      O56311   5.757   2.008   4.858
18690WAT     H156312   5.745   2.046   4.950
18690WAT     H256313   5.845   2.036   4.822
18691WAT      O56314   7.646   2.000   1.344
18691WAT     H156315   7.683   2.087   1.374
18691WAT     H256316   7.661   1.989   1.246
18692WAT      O56317   9.566   2.705   8.015
18692WAT     H156318   9.626   2.778   7.983
18692WAT     H256319   9.578   2.692   8.114
18693WAT      O56320   5.784   3.613   4.173
18693WAT     H156321   5.757   3.547   4.244
18693WAT     H256322   5.883   3.617   4.167
18694WAT      O56323   8.933   0.493   7.247
18694WAT     H156324   8.899   0.560   7.182
18694WAT     H256325   9.031   0.478   7.232
18695WAT      O56326   2.267   7.483   7.118
18695WAT     H156327   2.173   7.504   7.089
18695WAT     H256328   2.300   7.556   7.178
18696WAT      O56329   2.132   1.490   5.263
18696WAT     H156330   2.206   1.554   5.283
18696WAT     H256331   2.146   1.406   5.315
18697WAT      O56332   9.184   4.218   3.061
18697WAT     H156333   9.151   4.312   3.051
18697WAT     H256334   9.273   4.218   3.105
18698WAT      O56335   6.747   3.658   5.393
18698WAT     H156336   6.767   3.756   5.389
18698WAT     H256337   6.833   3.608   5.403
18699WAT      O56338   1.045   1.934   3.521
18699WAT     H156339   0.992   1.964   3.442
18699WAT     H256340   1.109   1.862   3.494
18700WAT      O56341   6.179   1.350   6.720
18700WAT     H156342   6.092   1.337   6.673
18700WAT     H256343   6.201   1.447   6.725
18701WAT      O56344   1.047   3.313   2.418
18701WAT     H156345   1.026   3.258   2.499
18701WAT     H256346   0.984   3.390   2.412
18702WAT      O56347   7.703   4.974   3.988
18702WAT     H156348   7.650   5.058   3.990
18702WAT     H256349   7.790   4.988   4.036
18703WAT      O56350   4.700   9.178   4.799
18703WAT     H156351   4.678   9.081   4.806
18703WAT     H256352   4.798   9.191   4.808
18704WAT      O56353   8.270   6.995   5.199
18704WAT     H156354   8.350   6.996   5.140
18704WAT     H256355   8.291   6.946   5.284
18705WAT      O56356   9.162   3.256   0.991
18705WAT     H156357   9.161   3.322   1.066
18705WAT     H256358   9.115   3.172   1.020
18706WAT      O56359   1.885   0.937   6.162
18706WAT     H156360   1.957   0.886   6.116
18706WAT     H256361   1.841   0.999   6.097
18707WAT      O56362   7.769   2.899   1.530
18707WAT     H156363   7.704   2.839   1.576
18707WAT     H256364   7.810   2.961   1.596
18708WAT      O56365   0.826   1.968   5.068
18708WAT     H156366   0.780   2.016   4.994
18708WAT     H256367   0.801   1.871   5.066
18709WAT      O56368   8.664   6.431   9.864
18709WAT     H156369   8.604   6.511   9.857
18709WAT     H256370   8.668   6.385   9.776
18710WAT      O56371   4.222   5.171   8.739
18710WAT     H156372   4.232   5.081   8.698
18710WAT     H256373   4.306   5.197   8.787
18711WAT      O56374   4.292   6.896   1.762
18711WAT     H156375   4.238   6.820   1.798
18711WAT     H256376   4.366   6.860   1.704
18712WAT      O56377   6.285   2.866   2.144
18712WAT     H156378   6.209   2.929   2.155
18712WAT     H256379   6.288   2.833   2.050
18713WAT      O56380   2.811   2.828   2.567
18713WAT     H156381   2.791   2.820   2.470
18713WAT     H256382   2.902   2.792   2.586
18714WAT      O56383   4.242   2.744   1.751
18714WAT     H156384   4.238   2.649   1.781
18714WAT     H256385   4.198   2.803   1.819
18715WAT      O56386   9.828   8.559   2.793
18715WAT     H156387   9.804   8.510   2.877
18715WAT     H256388   9.899   8.508   2.744
18716WAT      O56389   2.937   2.652   7.448
18716WAT     H156390   2.925   2.553   7.437
18716WAT     H256391   3.029   2.678   7.421
18717WAT      O56392   8.797   9.168   5.862
18717WAT     H156393   8.874   9.139   5.919
18717WAT     H256394   8.816   9.145   5.766
18718WAT      O56395   3.864   7.144   5.306
18718WAT     H156396   3.885   7.114   5.213
18718WAT     H256397   3.929   7.101   5.370
18719WAT      O56398   4.673   0.472   6.593
18719WAT     H156399   4.594   0.423   6.556
18719WAT     H256400   4.714   0.527   6.520
18720WAT      O56401   6.755   2.582   3.523
18720WAT     H156402   6.728   2.487   3.508
18720WAT     H256403   6.852   2.593   3.501
18721WAT      O56404   1.062   4.484   3.479
18721WAT     H156405   1.110   4.569   3.457
18721WAT     H256406   1.117   4.406   3.450
18722WAT      O56407   1.210   8.544   5.960
18722WAT     H156408   1.300   8.585   5.976
18722WAT     H256409   1.149   8.612   5.919
18723WAT      O56410   6.016   6.813   4.278
18723WAT     H156411   5.922   6.792   4.307
18723WAT     H256412   6.078   6.803   4.356
18724WAT      O56413   1.685   0.024   7.786
18724WAT     H156414   1.784   0.022   7.779
18724WAT     H256415   1.657   0.102   7.843
18725WAT      O56416   2.949   9.498   4.581
18725WAT     H156417   2.933   9.586   4.627
18725WAT     H256418   2.897   9.426   4.627
18726WAT      O56419   1.322   3.175   8.400
18726WAT     H156420   1.355   3.191   8.493
18726WAT     H256421   1.311   3.076   8.385
18727WAT      O56422   3.134   7.542   5.297
18727WAT     H156423   3.209   7.566   5.358
18727WAT     H256424   3.162   7.467   5.237
18728WAT      O56425   2.800   2.093   3.352
18728WAT     H156426   2.834   2.140   3.271
18728WAT     H256427   2.860   2.113   3.430
18729WAT      O56428   2.852   8.986   2.447
18729WAT     H156429   2.886   9.062   2.502
18729WAT     H256430   2.854   8.902   2.501
18730WAT      O56431   2.736   7.979   8.162
18730WAT     H156432   2.772   8.039   8.090
18730WAT     H256433   2.811   7.945   8.218
18731WAT      O56434   6.510   3.512   6.344
18731WAT     H156435   6.582   3.482   6.407
18731WAT     H256436   6.421   3.490   6.382
18732WAT      O56437   0.580   5.993   5.844
18732WAT     H156438   0.525   6.076   5.849
18732WAT     H256439   0.632   5.982   5.928
18733WAT      O56440   2.281   7.863   4.849
18733WAT     H156441   2.356   7.808   4.813
18733WAT     H256442   2.263   7.939   4.788
18734WAT      O56443   7.405   5.053   4.926
18734WAT     H156444   7.488   5.025   4.973
18734WAT     H256445   7.427   5.124   4.859
18735WAT      O56446   3.582   9.216   1.169
18735WAT     H156447   3.547   9.305   1.140
18735WAT     H256448   3.632   9.225   1.255
18736WAT      O56449   7.494   1.755   1.823
18736WAT     H156450   7.544   1.842   1.821
18736WAT     H256451   7.503   1.714   1.914
18737WAT      O56452   6.453   4.863   0.080
18737WAT     H156453   6.441   4.889   0.175
18737WAT     H256454   6.369   4.884   0.029
18738WAT      O56455   3.671   2.208   3.118
18738WAT     H156456   3.671   2.280   3.049
18738WAT     H256457   3.584   2.159   3.116
18739WAT      O56458   3.524   7.302   5.864
18739WAT     H156459   3.623   7.291   5.875
18739WAT     H256460   3.506   7.351   5.778
18740WAT      O56461   3.929   0.896   7.535
18740WAT     H156462   3.840   0.854   7.550
18740WAT     H256463   3.917   0.990   7.502
18741WAT      O56464   1.819   7.451   5.131
18741WAT     H156465   1.913   7.423   5.114
18741WAT     H256466   1.757   7.391   5.080
18742WAT      O56467   1.293   5.731   9.807
18742WAT     H156468   1.270   5.769   9.717
18742WAT     H256469   1.382   5.687   9.803
18743WAT      O56470   1.252   6.404   2.325
18743WAT     H156471   1.191   6.370   2.254
18743WAT     H256472   1.345   6.413   2.288
18744WAT      O56473   9.215   4.569   6.914
18744WAT     H156474   9.238   4.624   6.834
18744WAT     H256475   9.212   4.472   6.888
18745WAT      O56476   2.043   8.530   7.668
18745WAT     H156477   1.959   8.584   7.655
18745WAT     H256478   2.119   8.592   7.688
18746WAT      O56479   2.820   1.961   8.091
18746WAT     H156480   2.916   1.985   8.105
18746WAT     H256481   2.791   1.897   8.161
18747WAT      O56482   4.690   1.913   6.892
18747WAT     H156483   4.745   1.831   6.883
18747WAT     H256484   4.729   1.972   6.963
18748WAT      O56485   7.932   6.633   0.585
18748WAT     H156486   8.010   6.659   0.642
18748WAT     H256487   7.925   6.534   0.580
18749WAT      O56488   6.846   1.470   9.368
18749WAT     H156489   6.795   1.390   9.401
18749WAT     H256490   6.838   1.544   9.434
18750WAT      O56491   8.774   9.494   9.630
18750WAT     H156492   8.759   9.536   9.719
18750WAT     H256493   8.872   9.474   9.619
18751WAT      O56494   0.276   1.834   3.360
18751WAT     H156495   0.256   1.785   3.444
18751WAT     H256496   0.201   1.822   3.295
18752WAT      O56497   7.005   7.912   3.185
18752WAT     H156498   6.923   7.876   3.229
18752WAT     H256499   7.059   7.836   3.148
18753WAT      O56500   8.487   5.673   4.653
18753WAT     H156501   8.551   5.651   4.726
18753WAT     H256502   8.521   5.637   4.566
18754WAT      O56503   4.029   7.980   8.982
18754WAT     H156504   4.122   8.001   8.954
18754WAT     H256505   3.965   8.039   8.934
18755WAT      O56506   6.314   3.942   5.374
18755WAT     H156507   6.270   4.023   5.413
18755WAT     H256508   6.244   3.877   5.344
18756WAT      O56509   7.041   7.339   5.182
18756WAT     H156510   7.126   7.289   5.161
18756WAT     H256511   7.001   7.303   5.265
18757WAT      O56512   8.691   4.117   2.672
18757WAT     H156513   8.714   4.034   2.723
18757WAT     H256514   8.749   4.192   2.704
18758WAT      O56515   1.436   0.273   1.727
18758WAT     H156516   1.430   0.274   1.826
18758WAT     H256517   1.522   0.314   1.698
18759WAT      O56518   0.975   2.286   2.634
18759WAT     H156519   0.893   2.286   2.576
18759WAT     H256520   0.984   2.198   2.680
18760WAT      O56521   7.422   0.645   5.923
18760WAT     H156522   7.398   0.577   5.853
18760WAT     H256523   7.338   0.683   5.961
18761WAT      O56524   0.975   0.179   7.277
18761WAT     H156525   1.036   0.246   7.234
18761WAT     H256526   0.987   0.090   7.234
18762WAT      O56527   9.862   1.465   0.824
18762WAT     H156528   9.931   1.393   0.816
18762WAT     H256529   9.830   1.471   0.918
18763WAT      O56530   1.165   7.017   7.670
18763WAT     H156531   1.139   7.054   7.759
18763WAT     H256532   1.083   7.008   7.613
18764WAT      O56533   7.622   6.079   8.366
18764WAT     H156534   7.707   6.086   8.418
18764WAT     H256535   7.554   6.142   8.404
18765WAT      O56536   1.374   7.616   4.381
18765WAT     H156537   1.291   7.609   4.326
18765WAT     H256538   1.355   7.584   4.474
18766WAT      O56539   1.306   7.583   0.310
18766WAT     H156540   1.229   7.644   0.327
18766WAT     H256541   1.331   7.586   0.213
18767WAT      O56542   4.102   8.710   9.608
18767WAT     H156543   4.142   8.690   9.518
18767WAT     H256544   4.172   8.752   9.666
18768WAT      O56545   4.693   9.761   1.100
18768WAT     H156546   4.729   9.707   1.024
18768WAT     H256547   4.697   9.707   1.185
18769WAT      O56548   1.519   0.965   4.223
18769WAT     H156549   1.592   0.954   4.290
18769WAT     H256550   1.435   0.923   4.258
18770WAT      O56551   5.682   1.282   2.698
18770WAT     H156552   5.660   1.200   2.645
18770WAT     H256553   5.685   1.259   2.795
18771WAT      O56554   1.339   1.570   3.783
18771WAT     H156555   1.421   1.558   3.839
18771WAT     H256556   1.314   1.482   3.742
18772WAT      O56557   2.108   5.365   0.227
18772WAT     H156558   2.085   5.384   0.131
18772WAT     H256559   2.206   5.380   0.240
18773WAT      O56560   8.971   3.615   9.571
18773WAT     H156561   9.041   3.643   9.637
18773WAT     H256562   8.980   3.670   9.487
18774WAT      O56563   7.400   8.058   4.756
18774WAT     H156564   7.367   7.988   4.818
18774WAT     H256565   7.400   8.023   4.662
18775WAT      O56566   4.255   6.042   4.787
18775WAT     H156567   4.302   5.968   4.835
18775WAT     H256568   4.236   6.015   4.693
18776WAT      O56569   2.980   7.169   9.171
18776WAT     H156570   3.022   7.233   9.106
18776WAT     H256571   2.975   7.211   9.261
18777WAT      O56572   6.004   8.282   5.873
18777WAT     H156573   6.004   8.242   5.781
18777WAT     H256574   5.924   8.247   5.923
18778WAT      O56575   2.375   4.927   5.238
18778WAT     H156576   2.454   4.924   5.178
18778WAT     H256577   2.378   5.011   5.293
18779WAT      O56578   2.236   2.461   9.756
18779WAT     H156579   2.277   2.550   9.734
18779WAT     H256580   2.151   2.476   9.807
18780WAT      O56581   0.089   4.326   3.836
18780WAT     H156582  -0.000   4.281   3.838
18780WAT     H256583   0.082   4.412   3.784
18781WAT      O56584   8.347   1.173   4.432
18781WAT     H156585   8.302   1.237   4.494
18781WAT     H256586   8.355   1.084   4.477
18782WAT      O56587   2.594   7.012   0.100
18782WAT     H156588   2.691   7.017   0.078
18782WAT     H256589   2.565   7.097   0.143
18783WAT      O56590   7.167   4.910   7.206
18783WAT     H156591   7.121   4.899   7.294
18783WAT     H256592   7.238   4.980   7.214
18784WAT      O56593   9.021   2.955   7.505
18784WAT     H156594   9.047   2.860   7.488
18784WAT     H256595   8.921   2.962   7.503
18785WAT      O56596   5.257   6.795   8.300
18785WAT     H156597   5.199   6.876   8.303
18785WAT     H256598   5.302   6.783   8.389
18786WAT      O56599   0.553   6.463   7.961
18786WAT     H156600   0.616   6.537   7.982
18786WAT     H256601   0.539   6.407   8.042
18787WAT      O56602   2.809   9.594   1.121
18787WAT     H156603   2.826   9.529   1.047
18787WAT     H256604   2.890   9.651   1.135
18788WAT      O56605   4.597   5.652   6.499
18788WAT     H156606   4.519   5.647   6.561
18788WAT     H256607   4.574   5.606   6.412
18789WAT      O56608   2.716   9.115   2.752
18789WAT     H156609   2.677   9.060   2.678
18789WAT     H256610   2.659   9.196   2.766
18790WAT      O56611   3.151   5.072   2.480
18790WAT     H156612   3.082   5.010   2.443
18790WAT     H256613   3.133   5.165   2.448
18791WAT      O56614   6.435   3.922   3.407
18791WAT     H156615   6.389   3.835   3.420
18791WAT     H256616   6.492   3.943   3.486
18792WAT      O56617   0.347   3.840   2.710
18792WAT     H156618   0.402   3.890   2.777
18792WAT     H256619   0.408   3.785   2.652
18793WAT      O56620   4.804   8.543   2.671
18793WAT     H156621   4.814   8.471   2.740
18793WAT     H256622   4.883   8.605   2.676
18794WAT      O56623   7.532   2.039   8.329
18794WAT     H156624   7.609   2.004   8.277
18794WAT     H256625   7.479   2.101   8.271
18795WAT      O56626   8.729   6.999   4.491
18795WAT     H156627   8.666   7.077   4.496
18795WAT     H256628   8.823   7.033   4.491
18796WAT      O56629   5.485   4.996   6.865
18796WAT     H156630   5.455   5.091   6.864
18796WAT     H256631   5.539   4.976   6.783
18797WAT      O56632   4.162   2.898   0.746
18797WAT     H156633   4.213   2.904   0.832
18797WAT     H256634   4.226   2.902   0.670
18798WAT      O56635   3.295   4.037   6.514
18798WAT     H156636   3.321   3.950   6.473
18798WAT     H256637   3.332   4.112   6.458
18799WAT      O56638   6.401   2.520   4.029
18799WAT     H156639   6.435   2.472   4.110
18799WAT     H256640   6.309   2.487   4.008
18800WAT      O56641   5.882   1.768   5.561
18800WAT     H156642   5.971   1.728   5.583
18800WAT     H256643   5.815   1.742   5.631
18801WAT      O56644   3.471   6.405   9.517
18801WAT     H156645   3.448   6.418   9.420
18801WAT     H256646   3.388   6.386   9.568
18802WAT      O56647   1.947   2.978   0.029
18802WAT     H156648   2.034   3.027   0.035
18802WAT     H256649   1.891   2.998   0.109
18803WAT      O56650   3.302   7.244   9.456
18803WAT     H156651   3.345   7.221   9.368
18803WAT     H256652   3.205   7.260   9.442
18804WAT      O56653   6.626   3.397   6.103
18804WAT     H156654   6.590   3.417   6.011
18804WAT     H256655   6.577   3.452   6.170
18805WAT      O56656   0.502   1.144   3.134
18805WAT     H156657   0.415   1.111   3.097
18805WAT     H256658   0.530   1.086   3.210
18806WAT      O56659   4.621   2.098   8.064
18806WAT     H156660   4.578   2.019   8.107
18806WAT     H256661   4.553   2.149   8.010
18807WAT      O56662   5.463   8.050   1.705
18807WAT     H156663   5.482   8.100   1.621
18807WAT     H256664   5.479   8.110   1.784
18808WAT      O56665   0.519   1.928   7.966
18808WAT     H156666   0.512   2.008   7.906
18808WAT     H256667   0.600   1.937   8.024
18809WAT      O56668   7.813   7.175   2.543
18809WAT     H156669   7.742   7.208   2.605
18809WAT     H256670   7.895   7.152   2.596
18810WAT      O56671   7.574   4.486   4.722
18810WAT     H156672   7.663   4.504   4.679
18810WAT     H256673   7.560   4.550   4.798
18811WAT      O56674   3.993   6.063   0.813
18811WAT     H156675   4.045   5.978   0.803
18811WAT     H256676   4.057   6.140   0.819
18812WAT      O56677   6.814   4.253   0.552
18812WAT     H156678   6.834   4.223   0.645
18812WAT     H256679   6.886   4.315   0.520
18813WAT      O56680   4.855   4.020   3.963
18813WAT     H156681   4.920   3.953   3.928
18813WAT     H256682   4.888   4.058   4.049
18814WAT      O56683   9.840   8.633   4.645
18814WAT     H156684   9.898   8.709   4.616
18814WAT     H256685   9.882   8.586   4.722
18815WAT      O56686   0.579   3.193   4.640
18815WAT     H156687   0.506   3.241   4.688
18815WAT     H256688   0.568   3.204   4.542
18816WAT      O56689   2.020   2.945   4.212
18816WAT     H156690   1.970   2.933   4.298
18816WAT     H256691   2.055   3.038   4.206
18817WAT      O56692   0.741   6.166   6.397
18817WAT     H156693   0.661   6.221   6.422
18817WAT     H256694   0.718   6.069   6.403
18818WAT      O56695   1.938   4.025   8.616
18818WAT     H156696   1.862   4.087   8.595
18818WAT     H256697   1.941   3.953   8.546
18819WAT      O56698   5.763   4.852   6.443
18819WAT     H156699   5.820   4.788   6.494
18819WAT     H256700   5.668   4.845   6.474
18820WAT      O56701   5.675   9.395   8.702
18820WAT     H156702   5.746   9.325   8.712
18820WAT     H256703   5.718   9.483   8.680
18821WAT      O56704   0.236   2.923   1.033
18821WAT     H156705   0.286   2.975   0.964
18821WAT     H256706   0.172   2.983   1.081
18822WAT      O56707   0.393   9.530   5.180
18822WAT     H156708   0.302   9.497   5.153
18822WAT     H256709   0.403   9.521   5.279
18823WAT      O56710   3.852   8.115   0.944
18823WAT     H156711   3.870   8.022   0.978
18823WAT     H256712   3.762   8.145   0.976
18824WAT      O56713   5.849   8.781   3.669
18824WAT     H156714   5.870   8.867   3.715
18824WAT     H256715   5.874   8.705   3.730
18825WAT      O56716   9.883   2.402   9.024
18825WAT     H156717   9.914   2.395   9.119
18825WAT     H256718   9.946   2.353   8.964
18826WAT      O56719   7.037   9.007   8.622
18826WAT     H156720   7.006   9.102   8.617
18826WAT     H256721   7.021   8.962   8.534
18827WAT      O56722   8.505   8.559   8.116
18827WAT     H156723   8.430   8.601   8.066
18827WAT     H256724   8.512   8.600   8.207
18828WAT      O56725   8.000   8.191   4.856
18828WAT     H156726   7.941   8.264   4.890
18828WAT     H256727   8.096   8.216   4.873
18829WAT      O56728   3.194   5.112   9.579
18829WAT     H156729   3.096   5.097   9.589
18829WAT     H256730   3.212   5.166   9.497
18830WAT      O56731   3.762   3.350   5.533
18830WAT     H156732   3.736   3.446   5.543
18830WAT     H256733   3.732   3.316   5.444
18831WAT      O56734   6.962   2.179   9.028
18831WAT     H156735   6.868   2.157   9.004
18831WAT     H256736   6.996   2.111   9.094
18832WAT      O56737   5.505   5.764   5.344
18832WAT     H156738   5.466   5.856   5.339
18832WAT     H256739   5.605   5.771   5.346
18833WAT      O56740   3.745   5.548   9.740
18833WAT     H156741   3.751   5.509   9.648
18833WAT     H256742   3.664   5.511   9.786
18834WAT      O56743   8.288   6.452   2.239
18834WAT     H156744   8.380   6.443   2.277
18834WAT     H256745   8.221   6.455   2.314
18835WAT      O56746   9.316   1.909   8.665
18835WAT     H156747   9.285   1.839   8.601
18835WAT     H256748   9.255   1.988   8.661
18836WAT      O56749   0.265   3.412   4.226
18836WAT     H156750   0.228   3.505   4.220
18836WAT     H256751   0.189   3.347   4.230
18837WAT      O56752   0.487   6.056   6.671
18837WAT     H156753   0.433   6.089   6.594
18837WAT     H256754   0.430   6.000   6.730
18838WAT      O56755   2.044   3.053   8.702
18838WAT     H156756   2.025   2.955   8.709
18838WAT     H256757   2.131   3.066   8.654
18839WAT      O56758   1.498   3.701   4.742
18839WAT     H156759   1.402   3.712   4.720
18839WAT     H256760   1.545   3.653   4.668
18840WAT      O56761   0.540   7.075   2.913
18840WAT     H156762   0.507   6.985   2.883
18840WAT     H256763   0.503   7.095   3.004
18841WAT      O56764   0.137   9.660   1.662
18841WAT     H156765   0.057   9.649   1.603
18841WAT     H256766   0.107   9.690   1.753
18842WAT      O56767   1.517   0.623   4.105
18842WAT     H156768   1.444   0.681   4.067
18842WAT     H256769   1.485   0.529   4.111
18843WAT      O56770   6.769   7.418   9.872
18843WAT     H156771   6.783   7.348   9.801
18843WAT     H256772   6.673   7.445   9.874
18844WAT      O56773   9.458   2.030   0.755
18844WAT     H156774   9.386   2.034   0.824
18844WAT     H256775   9.526   1.962   0.780
18845WAT      O56776   7.732   7.064   4.628
18845WAT     H156777   7.725   6.967   4.605
18845WAT     H256778   7.786   7.111   4.559
18846WAT      O56779   4.294   8.917   8.482
18846WAT     H156780   4.385   8.878   8.472
18846WAT     H256781   4.290   8.971   8.567
18847WAT      O56782   0.554   0.366   5.349
18847WAT     H156783   0.529   0.279   5.392
18847WAT     H256784   0.626   0.350   5.281
18848WAT      O56785   2.560   4.980   2.018
18848WAT     H156786   2.518   5.041   2.084
18848WAT     H256787   2.542   5.012   1.925
18849WAT      O56788   1.109   7.895   8.920
18849WAT     H156789   1.016   7.913   8.888
18849WAT     H256790   1.173   7.957   8.875
18850WAT      O56791   0.190   9.728   5.482
18850WAT     H156792   0.163   9.810   5.430
18850WAT     H256793   0.253   9.755   5.555
18851WAT      O56794   8.701   7.827   9.503
18851WAT     H156795   8.695   7.925   9.521
18851WAT     H256796   8.791   7.804   9.466
18852WAT      O56797   3.484   0.740   1.383
18852WAT     H156798   3.407   0.731   1.447
18852WAT     H256799   3.479   0.667   1.314
18853WAT      O56800   8.715   7.455   9.809
18853WAT     H156801   8.800   7.487   9.851
18853WAT     H256802   8.655   7.533   9.792
18854WAT      O56803   4.498   0.335   0.612
18854WAT     H156804   4.475   0.431   0.595
18854WAT     H256805   4.414   0.280   0.610
18855WAT      O56806   2.569   8.363   9.546
18855WAT     H156807   2.605   8.312   9.468
18855WAT     H256808   2.638   8.428   9.578
18856WAT      O56809   7.372   8.766   0.839
18856WAT     H156810   7.454   8.822   0.845
18856WAT     H256811   7.382   8.686   0.898
18857WAT      O56812   5.334   9.271   1.804
18857WAT     H156813   5.238   9.277   1.831
18857WAT     H256814   5.340   9.239   1.709
18858WAT      O56815   5.669   4.033   1.650
18858WAT     H156816   5.719   3.978   1.584
18858WAT     H256817   5.665   3.985   1.738
18859WAT      O56818   4.712   5.545   3.995
18859WAT     H156819   4.749   5.505   4.079
18859WAT     H256820   4.745   5.639   3.986
18860WAT      O56821   9.776   3.042   1.037
18860WAT     H156822   9.830   2.990   1.104
18860WAT     H256823   9.691   3.073   1.079
18861WAT      O56824   2.802   1.495   5.548
18861WAT     H156825   2.797   1.417   5.485
18861WAT     H256826   2.714   1.542   5.549
18862WAT      O56827   5.300   7.605   3.290
18862WAT     H156828   5.263   7.548   3.363
18862WAT     H256829   5.229   7.623   3.222
18863WAT      O56830   4.619   7.679   1.289
18863WAT     H156831   4.592   7.585   1.311
18863WAT     H256832   4.653   7.725   1.371
18864WAT      O56833   9.377   8.827   0.422
18864WAT     H156834   9.440   8.753   0.400
18864WAT     H256835   9.394   8.859   0.515
18865WAT      O56836   3.344   7.584   3.701
18865WAT     H156837   3.361   7.504   3.644
18865WAT     H256838   3.334   7.555   3.796
18866WAT      O56839   6.639   1.066   7.240
18866WAT     H156840   6.656   1.134   7.168
18866WAT     H256841   6.704   0.991   7.230
18867WAT      O56842   5.045   7.260   1.970
18867WAT     H156843   5.029   7.162   1.964
18867WAT     H256844   5.040   7.289   2.065
18868WAT      O56845   8.187   6.440   0.488
18868WAT     H156846   8.215   6.345   0.506
18868WAT     H256847   8.212   6.497   0.566
18869WAT      O56848   2.576   1.305   2.205
18869WAT     H156849   2.643   1.316   2.132
18869WAT     H256850   2.530   1.392   2.221
18870WAT      O56851   1.207   5.767   7.776
18870WAT     H156852   1.200   5.679   7.823
18870WAT     H256853   1.293   5.771   7.726
18871WAT      O56854   5.012   3.445   0.975
18871WAT     H156855   4.913   3.452   0.964
18871WAT     H256856   5.053   3.536   0.963
18872WAT      O56857   6.178   2.912   2.535
18872WAT     H156858   6.109   2.954   2.594
18872WAT     H256859   6.140   2.896   2.444
18873WAT      O56860   0.231   5.359   1.752
18873WAT     H156861   0.151   5.364   1.813
18873WAT     H256862   0.283   5.276   1.773
18874WAT      O56863   1.186   4.525   0.050
18874WAT     H156864   1.191   4.580   0.134
18874WAT     H256865   1.227   4.575  -0.025
18875WAT      O56866   8.453   1.766   7.620
18875WAT     H156867   8.385   1.700   7.588
18875WAT     H256868   8.462   1.759   7.720
18876WAT      O56869   0.847   3.107   8.575
18876WAT     H156870   0.769   3.046   8.557
18876WAT     H256871   0.915   3.059   8.630
18877WAT      O56872   1.484   3.454   9.860
18877WAT     H156873   1.421   3.499   9.797
18877WAT     H256874   1.434   3.420   9.939
18878WAT      O56875   8.368   9.188   6.945
18878WAT     H156876   8.398   9.094   6.956
18878WAT     H256877   8.426   9.234   6.877
18879WAT      O56878   7.321   8.638   9.775
18879WAT     H156879   7.341   8.716   9.715
18879WAT     H256880   7.331   8.553   9.723
18880WAT      O56881   2.261   7.004   3.686
18880WAT     H156882   2.317   7.009   3.769
18880WAT     H256883   2.270   6.913   3.645
18881WAT      O56884   3.559   3.435   8.996
18881WAT     H156885   3.526   3.416   9.088
18881WAT     H256886   3.646   3.484   9.001
18882WAT      O56887   2.941   8.715   7.813
18882WAT     H156888   2.862   8.741   7.757
18882WAT     H256889   2.915   8.641   7.875
18883WAT      O56890   7.280   7.210   6.769
18883WAT     H156891   7.180   7.203   6.775
18883WAT     H256892   7.313   7.155   6.693
18884WAT      O56893   8.443   2.309   3.306
18884WAT     H156894   8.457   2.243   3.380
18884WAT     H256895   8.353   2.296   3.266
18885WAT      O56896   2.489   5.557   4.529
18885WAT     H156897   2.392   5.534   4.519
18885WAT     H256898   2.500   5.623   4.602
18886WAT      O56899   1.991   9.548   2.401
18886WAT     H156900   2.048   9.570   2.322
18886WAT     H256901   1.905   9.599   2.396
18887WAT      O56902   8.737   3.738   0.376
18887WAT     H156903   8.753   3.640   0.362
18887WAT     H256904   8.690   3.776   0.297
18888WAT      O56905   6.588   9.579   5.471
18888WAT     H156906   6.620   9.498   5.519
18888WAT     H256907   6.489   9.576   5.462
18889WAT      O56908   7.029   1.648   4.384
18889WAT     H156909   7.057   1.696   4.466
18889WAT     H256910   7.108   1.631   4.325
18890WAT      O56911   9.290   9.062   5.063
18890WAT     H156912   9.217   9.009   5.104
18890WAT     H256913   9.335   9.008   4.992
18891WAT      O56914   0.455   8.518   4.935
18891WAT     H156915   0.381   8.575   4.972
18891WAT     H256916   0.511   8.482   5.010
18892WAT      O56917   7.021   2.828   8.679
18892WAT     H156918   7.105   2.800   8.724
18892WAT     H256919   6.994   2.759   8.612
18893WAT      O56920   6.827   7.659   8.809
18893WAT     H156921   6.783   7.617   8.730
18893WAT     H256922   6.775   7.639   8.892
18894WAT      O56923   2.671   3.585   2.258
18894WAT     H156924   2.675   3.684   2.272
18894WAT     H256925   2.709   3.539   2.338
18895WAT      O56926   5.737   7.669   1.378
18895WAT     H156927   5.759   7.708   1.468
18895WAT     H256928   5.796   7.590   1.361
18896WAT      O56929   8.025   7.957   5.042
18896WAT     H156930   8.009   8.036   4.983
18896WAT     H256931   8.123   7.934   5.042
18897WAT      O56932   3.260   4.014   3.597
18897WAT     H156933   3.206   4.088   3.557
18897WAT     H256934   3.216   3.926   3.580
18898WAT      O56935   1.787   4.829   0.071
18898WAT     H156936   1.728   4.771   0.127
18898WAT     H256937   1.874   4.843   0.118
18899WAT      O56938   4.097   4.936   0.423
18899WAT     H156939   4.027   4.992   0.378
18899WAT     H256940   4.066   4.911   0.515
18900WAT      O56941   6.811   0.057   9.561
18900WAT     H156942   6.737   0.026   9.502
18900WAT     H256943   6.899   0.036   9.519
18901WAT      O56944   4.672   6.569   5.073
18901WAT     H156945   4.690   6.492   5.134
18901WAT     H256946   4.619   6.639   5.121
18902WAT      O56947   1.644   0.546   5.277
18902WAT     H156948   1.693   0.632   5.292
18902WAT     H256949   1.549   0.557   5.305
18903WAT      O56950   0.633   1.386   0.648
18903WAT     H156951   0.682   1.311   0.604
18903WAT     H256952   0.618   1.460   0.582
18904WAT      O56953   6.486   1.789   7.308
18904WAT     H156954   6.500   1.826   7.400
18904WAT     H256955   6.479   1.690   7.313
18905WAT      O56956   5.676   9.757   3.866
18905WAT     H156957   5.723   9.841   3.839
18905WAT     H256958   5.655   9.761   3.964
18906WAT      O56959   9.439   8.877   4.485
18906WAT     H156960   9.381   8.923   4.418
18906WAT     H256961   9.382   8.826   4.549
18907WAT      O56962   7.405   1.585   1.271
18907WAT     H156963   7.439   1.651   1.337
18907WAT     H256964   7.390   1.631   1.183
18908WAT      O56965   5.923   2.720   9.118
18908WAT     H156966   5.844   2.670   9.152
18908WAT     H256967   5.896   2.777   9.040
18909WAT      O56968   1.724   2.036   6.293
18909WAT     H156969   1.660   1.964   6.264
18909WAT     H256970   1.808   1.993   6.328
18910WAT      O56971   9.442   0.313   3.578
18910WAT     H156972   9.352   0.356   3.586
18910WAT     H256973   9.511   0.384   3.562
18911WAT      O56974   4.111   7.545   4.290
18911WAT     H156975   4.149   7.453   4.291
18911WAT     H256976   4.159   7.600   4.222
18912WAT      O56977   2.862   1.390   5.786
18912WAT     H156978   2.834   1.436   5.702
18912WAT     H256979   2.956   1.358   5.777
18913WAT      O56980   2.907   4.534   7.738
18913WAT     H156981   2.996   4.518   7.781
18913WAT     H256982   2.870   4.621   7.770
18914WAT      O56983   1.099   1.777   3.268
18914WAT     H156984   1.140   1.735   3.349
18914WAT     H256985   1.164   1.773   3.192
18915WAT      O56986   9.629   0.226   4.323
18915WAT     H156987   9.674   0.164   4.387
18915WAT     H256988   9.675   0.315   4.324
18916WAT      O56989   8.534   5.564   8.449
18916WAT     H156990   8.459   5.499   8.440
18916WAT     H256991   8.525   5.613   8.536
18917WAT      O56992   9.644   4.737   7.133
18917WAT     H156993   9.657   4.836   7.128
18917WAT     H256994   9.548   4.715   7.119
18918WAT      O56995   4.334   7.550   4.919
18918WAT     H156996   4.239   7.556   4.888
18918WAT     H256997   4.392   7.521   4.843
18919WAT      O56998   7.497   8.062   4.346
18919WAT     H156999   7.574   8.001   4.363
18919WAT     H257000   7.480   8.068   4.247
18920WAT      O57001   4.783   7.957   3.807
18920WAT     H157002   4.716   8.029   3.789
18920WAT     H257003   4.756   7.875   3.755
18921WAT      O57004   2.740   6.194   9.132
18921WAT     H157005   2.742   6.118   9.067
18921WAT     H257006   2.725   6.280   9.083
18922WAT      O57007   8.221   2.807   7.790
18922WAT     H157008   8.254   2.713   7.781
18922WAT     H257009   8.121   2.809   7.785
18923WAT      O57010   3.655   5.327   3.197
18923WAT     H157011   3.644   5.266   3.118
18923WAT     H257012   3.745   5.369   3.194
18924WAT      O57013   1.436   5.389   3.886
18924WAT     H157014   1.346   5.349   3.871
18924WAT     H257015   1.432   5.452   3.963
18925WAT      O57016   7.449   6.530   9.236
18925WAT     H157017   7.526   6.474   9.266
18925WAT     H257018   7.405   6.487   9.158
18926WAT      O57019   6.861   9.830   6.940
18926WAT     H157020   6.812   9.820   6.853
18926WAT     H257021   6.949   9.873   6.925
18927WAT      O57022   9.378   1.215   0.315
18927WAT     H157023   9.418   1.289   0.261
18927WAT     H257024   9.346   1.252   0.402
18928WAT      O57025   4.001   0.495   8.735
18928WAT     H157026   4.074   0.548   8.778
18928WAT     H257027   3.955   0.552   8.667
18929WAT      O57028   2.184   0.538   7.072
18929WAT     H157029   2.158   0.631   7.098
18929WAT     H257030   2.232   0.540   6.984
18930WAT      O57031   0.287   8.449   0.338
18930WAT     H157032   0.325   8.438   0.430
18930WAT     H257033   0.270   8.359   0.298
18931WAT      O57034   9.145   4.673   3.235
18931WAT     H157035   9.136   4.598   3.169
18931WAT     H257036   9.105   4.645   3.323
18932WAT      O57037   7.348   2.938   6.511
18932WAT     H157038   7.430   2.916   6.458
18932WAT     H257039   7.285   2.992   6.455
18933WAT      O57040   6.848   5.462   9.051
18933WAT     H157041   6.919   5.400   9.085
18933WAT     H257042   6.798   5.417   8.977
18934WAT      O57043   6.261   6.262   9.108
18934WAT     H157044   6.350   6.228   9.139
18934WAT     H257045   6.222   6.197   9.042
18935WAT      O57046   5.106   1.944   4.339
18935WAT     H157047   5.089   1.863   4.283
18935WAT     H257048   5.019   1.982   4.371
18936WAT      O57049   8.787   9.542   5.764
18936WAT     H157050   8.808   9.500   5.676
18936WAT     H257051   8.723   9.484   5.815
18937WAT      O57052   9.672   9.535   5.492
18937WAT     H157053   9.665   9.631   5.517
18937WAT     H257054   9.585   9.505   5.452
18938WAT      O57055   7.291   7.470   2.047
18938WAT     H157056   7.193   7.485   2.064
18938WAT     H257057   7.345   7.520   2.114
18939WAT      O57058   7.148   6.934   6.904
18939WAT     H157059   7.235   6.888   6.886
18939WAT     H257060   7.158   6.996   6.981
18940WAT      O57061   4.865   1.324   7.519
18940WAT     H157062   4.809   1.242   7.506
18940WAT     H257063   4.834   1.373   7.601
18941WAT      O57064   5.604   8.110   5.020
18941WAT     H157065   5.504   8.105   5.020
18941WAT     H257066   5.641   8.041   5.082
18942WAT      O57067   8.559   2.238   9.639
18942WAT     H157068   8.496   2.168   9.607
18942WAT     H257069   8.529   2.328   9.606
18943WAT      O57070   9.647   9.227   8.478
18943WAT     H157071   9.636   9.295   8.406
18943WAT     H257072   9.567   9.229   8.538
18944WAT      O57073   4.391   0.378   2.684
18944WAT     H157074   4.391   0.340   2.777
18944WAT     H257075   4.314   0.440   2.673
18945WAT      O57076   5.674   2.389   1.051
18945WAT     H157077   5.695   2.319   1.119
18945WAT     H257078   5.759   2.434   1.022
18946WAT      O57079   7.034   9.090   1.543
18946WAT     H157080   7.111   9.152   1.556
18946WAT     H257081   7.008   9.088   1.446
18947WAT      O57082   9.403   7.147   5.912
18947WAT     H157083   9.453   7.216   5.860
18947WAT     H257084   9.463   7.070   5.932
18948WAT      O57085   5.814   8.157   6.009
18948WAT     H157086   5.732   8.183   6.061
18948WAT     H257087   5.868   8.093   6.064
18949WAT      O57088   6.710   4.122   4.346
18949WAT     H157089   6.672   4.201   4.299
18949WAT     H257090   6.732   4.051   4.280
18950WAT      O57091   6.699   8.324   4.229
18950WAT     H157092   6.661   8.309   4.320
18950WAT     H257093   6.625   8.335   4.162
18951WAT      O57094   0.759   1.516   0.198
18951WAT     H157095   0.832   1.447   0.199
18951WAT     H257096   0.742   1.544   0.103
18952WAT      O57097   1.068   3.760   0.800
18952WAT     H157098   1.130   3.709   0.860
18952WAT     H257099   0.990   3.793   0.853
18953WAT      O57100   6.507   8.416   0.401
18953WAT     H157101   6.544   8.366   0.323
18953WAT     H257102   6.503   8.356   0.481
18954WAT      O57103   1.325   6.590   7.708
18954WAT     H157104   1.419   6.562   7.725
18954WAT     H257105   1.262   6.525   7.752
18955WAT      O57106   7.250   9.767   2.711
18955WAT     H157107   7.246   9.801   2.805
18955WAT     H257108   7.306   9.829   2.656
18956WAT      O57109   2.723   1.547   7.068
18956WAT     H157110   2.818   1.576   7.052
18956WAT     H257111   2.717   1.448   7.064
18957WAT      O57112   6.860   0.474   0.171
18957WAT     H157113   6.945   0.463   0.223
18957WAT     H257114   6.877   0.456   0.074
18958WAT      O57115   1.143   0.682   9.125
18958WAT     H157116   1.047   0.664   9.105
18958WAT     H257117   1.189   0.596   9.147
18959WAT      O57118   5.857   7.124   4.339
18959WAT     H157119   5.784   7.057   4.350
18959WAT     H257120   5.944   7.086   4.372
18960WAT      O57121   6.567   6.155   0.404
18960WAT     H157122   6.614   6.164   0.316
18960WAT     H257123   6.556   6.244   0.446
18961WAT      O57124   2.541   0.841   9.090
18961WAT     H157125   2.525   0.746   9.064
18961WAT     H257126   2.457   0.894   9.078
18962WAT      O57127   3.435   3.185   2.247
18962WAT     H157128   3.474   3.245   2.317
18962WAT     H257129   3.462   3.217   2.156
18963WAT      O57130   2.909   0.551   5.135
18963WAT     H157131   2.935   0.459   5.165
18963WAT     H257132   2.822   0.577   5.177
18964WAT      O57133   6.785   2.160   0.857
18964WAT     H157134   6.755   2.247   0.897
18964WAT     H257135   6.743   2.084   0.906
18965WAT      O57136   8.960   5.924   7.720
18965WAT     H157137   8.986   5.829   7.707
18965WAT     H257138   8.875   5.943   7.670
18966WAT      O57139   2.800   3.651   3.823
18966WAT     H157140   2.768   3.573   3.876
18966WAT     H257141   2.811   3.624   3.727
18967WAT      O57142   7.655   4.456   2.848
18967WAT     H157143   7.587   4.476   2.777
18967WAT     H257144   7.715   4.383   2.816
18968WAT      O57145   9.354   2.089   7.885
18968WAT     H157146   9.305   2.078   7.971
18968WAT     H257147   9.452   2.100   7.903
18969WAT      O57148   3.487   0.365   8.518
18969WAT     H157149   3.528   0.423   8.589
18969WAT     H257150   3.552   0.355   8.442
18970WAT      O57151   3.064   8.891   9.519
18970WAT     H157152   3.139   8.841   9.477
18970WAT     H257153   3.088   8.988   9.527
18971WAT      O57154   8.968   3.253   0.521
18971WAT     H157155   8.926   3.339   0.491
18971WAT     H257156   9.038   3.271   0.590
18972WAT      O57157   4.041   0.922   0.875
18972WAT     H157158   4.106   0.879   0.937
18972WAT     H257159   3.982   0.853   0.834
18973WAT      O57160   0.447   0.394   0.373
18973WAT     H157161   0.435   0.295   0.376
18973WAT     H257162   0.360   0.439   0.392
18974WAT      O57163   9.245   5.782   8.735
18974WAT     H157164   9.256   5.692   8.776
18974WAT     H257165   9.163   5.826   8.771
18975WAT      O57166   7.028   2.972   7.611
18975WAT     H157167   7.110   2.914   7.616
18975WAT     H257168   7.004   2.986   7.515
18976WAT      O57169   6.956   4.631   3.076
18976WAT     H157170   6.909   4.713   3.044
18976WAT     H257171   6.943   4.621   3.175
18977WAT      O57172   0.646   0.752   9.584
18977WAT     H157173   0.608   0.839   9.554
18977WAT     H257174   0.576   0.681   9.578
18978WAT      O57175   6.952   2.494   9.364
18978WAT     H157176   7.044   2.525   9.387
18978WAT     H257177   6.929   2.523   9.271
18979WAT      O57178   6.545   9.663   8.418
18979WAT     H157179   6.577   9.735   8.356
18979WAT     H257180   6.445   9.665   8.422
18980WAT      O57181   1.398   7.967   1.846
18980WAT     H157182   1.300   7.979   1.839
18980WAT     H257183   1.433   7.927   1.761
18981WAT      O57184   6.209   7.595   0.998
18981WAT     H157185   6.166   7.673   1.044
18981WAT     H257186   6.154   7.513   1.012
18982WAT      O57187   7.931   5.303   1.960
18982WAT     H157188   7.949   5.394   1.997
18982WAT     H257189   7.961   5.298   1.865
18983WAT      O57190   7.785   3.798   9.522
18983WAT     H157191   7.883   3.780   9.510
18983WAT     H257192   7.752   3.747   9.602
18984WAT      O57193   5.018   0.176   8.660
18984WAT     H157194   4.937   0.118   8.657
18984WAT     H257195   5.052   0.190   8.567
18985WAT      O57196   3.277   6.066   9.026
18985WAT     H157197   3.249   5.986   9.078
18985WAT     H257198   3.312   6.136   9.088
18986WAT      O57199   1.979   6.144   0.221
18986WAT     H157200   1.939   6.058   0.189
18986WAT     H257201   2.043   6.124   0.296
18987WAT      O57202   1.728   5.505   3.851
18987WAT     H157203   1.705   5.413   3.818
18987WAT     H257204   1.678   5.573   3.798
18988WAT      O57205   8.399   5.085   6.310
18988WAT     H157206   8.326   5.025   6.341
18988WAT     H257207   8.375   5.180   6.331
18989WAT      O57208   0.125   4.729   1.194
18989WAT     H157209   0.186   4.787   1.141
18989WAT     H257210   0.030   4.756   1.176
18990WAT      O57211   1.940   6.008   4.831
18990WAT     H157212   1.859   5.957   4.856
18990WAT     H257213   1.914   6.091   4.782
18991WAT      O57214   8.150   1.349   0.096
18991WAT     H157215   8.083   1.285   0.133
18991WAT     H257216   8.107   1.407   0.027
18992WAT      O57217   3.819   7.544   4.916
18992WAT     H157218   3.837   7.599   4.834
18992WAT     H257219   3.774   7.601   4.985
18993WAT      O57220   5.954   9.784   3.693
18993WAT     H157221   6.012   9.703   3.698
18993WAT     H257222   5.998   9.861   3.739
18994WAT      O57223   4.791   1.204   3.157
18994WAT     H157224   4.795   1.184   3.059
18994WAT     H257225   4.767   1.120   3.207
18995WAT      O57226   0.951   9.318   0.618
18995WAT     H157227   1.039   9.352   0.652
18995WAT     H257228   0.930   9.231   0.661
18996WAT      O57229   4.736   5.983   4.734
18996WAT     H157230   4.705   5.920   4.663
18996WAT     H257231   4.657   6.019   4.783
18997WAT      O57232   0.168   6.913   6.511
18997WAT     H157233   0.195   6.907   6.607
18997WAT     H257234   0.069   6.900   6.503
18998WAT      O57235   3.612   5.736   7.593
18998WAT     H157236   3.608   5.746   7.692
18998WAT     H257237   3.665   5.811   7.554
18999WAT      O57238   1.586   0.983   6.628
18999WAT     H157239   1.523   0.909   6.605
18999WAT     H257240   1.639   1.008   6.547
19000WAT      O57241   2.561   9.154   8.549
19000WAT     H157242   2.630   9.087   8.522
19000WAT     H257243   2.495   9.111   8.611
19001WAT      O57244   5.601   2.620   2.322
19001WAT     H157245   5.668   2.651   2.253
19001WAT     H257246   5.510   2.620   2.281
19002WAT      O57247   5.626   8.779   4.123
19002WAT     H157248   5.570   8.791   4.205
19002WAT     H257249   5.610   8.687   4.085
19003WAT      O57250   0.757   2.571   4.730
19003WAT     H157251   0.681   2.513   4.761
19003WAT     H257252   0.789   2.540   4.641
19004WAT      O57253   2.556   5.002   3.826
19004WAT     H157254   2.624   5.008   3.752
19004WAT     H257255   2.598   5.030   3.912
19005WAT      O57256   2.608   7.671   3.121
19005WAT     H157257   2.593   7.770   3.121
19005WAT     H257258   2.680   7.649   3.187
19006WAT      O57259   3.489   6.458   9.263
19006WAT     H157260   3.392   6.454   9.240
19006WAT     H257261   3.543   6.462   9.179
19007WAT      O57262   7.138   7.210   4.352
19007WAT     H157263   7.072   7.268   4.400
19007WAT     H257264   7.178   7.145   4.416
19008WAT      O57265   6.774   6.751   5.081
19008WAT     H157266   6.828   6.821   5.034
19008WAT     H257267   6.826   6.666   5.085
19009WAT      O57268   3.998   5.911   3.385
19009WAT     H157269   4.058   5.868   3.452
19009WAT     H257270   4.047   5.918   3.297
19010WAT      O57271   7.004   0.224   6.606
19010WAT     H157272   6.962   0.287   6.672
19010WAT     H257273   6.962   0.238   6.516
19011WAT      O57274   4.514   2.800   5.225
19011WAT     H157275   4.584   2.867   5.201
19011WAT     H257276   4.499   2.801   5.324
19012WAT      O57277   8.442   8.784   1.283
19012WAT     H157278   8.465   8.846   1.208
19012WAT     H257279   8.522   8.771   1.341
19013WAT      O57280   2.536   0.548   2.553
19013WAT     H157281   2.610   0.613   2.569
19013WAT     H257282   2.562   0.459   2.591
19014WAT      O57283   8.457   1.524   1.556
19014WAT     H157284   8.547   1.566   1.545
19014WAT     H257285   8.461   1.429   1.527
19015WAT      O57286   7.904   4.642   7.730
19015WAT     H157287   7.943   4.626   7.639
19015WAT     H257288   7.855   4.561   7.760
19016WAT      O57289   0.938   0.644   0.004
19016WAT     H157290   0.853   0.622  -0.044
19016WAT     H257291   0.986   0.560   0.027
19017WAT      O57292   5.046   9.682   0.817
19017WAT     H157293   5.135   9.682   0.771
19017WAT     H257294   4.992   9.759   0.784
19018WAT      O57295   2.017   6.594   0.189
19018WAT     H157296   2.096   6.560   0.137
19018WAT     H257297   1.999   6.689   0.165
19019WAT      O57298   9.660   7.327   1.719
19019WAT     H157299   9.728   7.262   1.687
19019WAT     H257300   9.573   7.281   1.732
19020WAT      O57301   7.754   9.509   5.707
19020WAT     H157302   7.778   9.579   5.774
19020WAT     H257303   7.656   9.492   5.710
19021WAT      O57304   8.406   7.838   6.051
19021WAT     H157305   8.502   7.857   6.073
19021WAT     H257306   8.402   7.778   5.971
19022WAT      O57307   6.254   4.384   6.267
19022WAT     H157308   6.254   4.354   6.363
19022WAT     H257309   6.207   4.472   6.261
19023WAT      O57310   1.373   1.858   9.328
19023WAT     H157311   1.283   1.899   9.319
19023WAT     H257312   1.420   1.860   9.240
19024WAT      O57313   8.409   3.974   4.823
19024WAT     H157314   8.320   4.014   4.843
19024WAT     H257315   8.477   4.047   4.812
19025WAT      O57316   2.434   4.830   2.472
19025WAT     H157317   2.406   4.919   2.508
19025WAT     H257318   2.387   4.757   2.522
19026WAT      O57319   9.205   9.166   4.751
19026WAT     H157320   9.154   9.240   4.795
19026WAT     H257321   9.287   9.203   4.707
19027WAT      O57322   2.431   1.124   9.546
19027WAT     H157323   2.339   1.090   9.525
19027WAT     H257324   2.494   1.047   9.552
19028WAT      O57325   6.943   0.306   2.690
19028WAT     H157326   6.950   0.227   2.751
19028WAT     H257327   6.881   0.374   2.730
19029WAT      O57328   6.122   8.432   9.305
19029WAT     H157329   6.103   8.375   9.385
19029WAT     H257330   6.193   8.389   9.250
19030WAT      O57331   6.662   9.162   7.702
19030WAT     H157332   6.751   9.169   7.747
19030WAT     H257333   6.596   9.220   7.750
19031WAT      O57334   6.882   4.692   4.600
19031WAT     H157335   6.942   4.668   4.523
19031WAT     H257336   6.787   4.669   4.577
19032WAT      O57337   1.473   7.864   6.536
19032WAT     H157338   1.560   7.847   6.490
19032WAT     H257339   1.414   7.784   6.527
19033WAT      O57340   0.472   7.097   4.449
19033WAT     H157341   0.549   7.051   4.494
19033WAT     H257342   0.420   7.149   4.516
19034WAT      O57343   9.167   1.205   1.157
19034WAT     H157344   9.152   1.301   1.130
19034WAT     H257345   9.244   1.168   1.104
19035WAT      O57346   5.762   6.428   4.314
19035WAT     H157347   5.804   6.443   4.224
19035WAT     H257348   5.713   6.341   4.314
19036WAT      O57349   3.835   7.479   4.313
19036WAT     H157350   3.928   7.496   4.349
19036WAT     H257351   3.788   7.415   4.373
19037WAT      O57352   9.164   8.161   0.956
19037WAT     H157353   9.201   8.109   1.033
19037WAT     H257354   9.114   8.099   0.895
19038WAT      O57355   5.423   6.864   4.970
19038WAT     H157356   5.349   6.856   4.903
19038WAT     H257357   5.408   6.799   5.044
19039WAT      O57358   3.891   0.240   3.799
19039WAT     H157359   3.963   0.187   3.754
19039WAT     H257360   3.927   0.330   3.823
19040WAT      O57361   9.140   5.994   9.081
19040WAT     H157362   9.194   5.944   9.149
19040WAT     H257363   9.050   6.014   9.119
19041WAT      O57364   6.457   8.158   7.726
19041WAT     H157365   6.388   8.230   7.732
19041WAT     H257366   6.548   8.196   7.745
19042WAT      O57367   0.254   8.986   4.979
19042WAT     H157368   0.242   9.048   5.055
19042WAT     H257369   0.310   9.029   4.908
19043WAT      O57370   7.674   9.674   6.265
19043WAT     H157371   7.631   9.757   6.229
19043WAT     H257372   7.740   9.699   6.336
19044WAT      O57373   5.571   4.824   1.170
19044WAT     H157374   5.544   4.919   1.157
19044WAT     H257375   5.642   4.800   1.102
19045WAT      O57376   4.179   0.901   8.435
19045WAT     H157377   4.228   0.821   8.399
19045WAT     H257378   4.232   0.942   8.509
19046WAT      O57379   2.351   2.276   8.920
19046WAT     H157380   2.341   2.346   8.990
19046WAT     H257381   2.406   2.311   8.845
19047WAT      O57382   8.964   0.390   8.355
19047WAT     H157383   9.052   0.366   8.396
19047WAT     H257384   8.956   0.490   8.348
19048WAT      O57385   7.539   8.544   0.526
19048WAT     H157386   7.605   8.473   0.552
19048WAT     H257387   7.483   8.567   0.606
19049WAT      O57388   4.118   5.707   9.334
19049WAT     H157389   4.166   5.725   9.248
19049WAT     H257390   4.132   5.612   9.360
19050WAT      O57391   5.463   2.256   1.182
19050WAT     H157392   5.381   2.307   1.207
19050WAT     H257393   5.495   2.287   1.093
19051WAT      O57394   6.361   5.398   1.033
19051WAT     H157395   6.323   5.479   1.077
19051WAT     H257396   6.301   5.371   0.957
19052WAT      O57397   1.830   7.138   7.719
19052WAT     H157398   1.847   7.157   7.816
19052WAT     H257399   1.876   7.053   7.693
19053WAT      O57400   0.604   8.980   2.576
19053WAT     H157401   0.584   8.903   2.637
19053WAT     H257402   0.542   8.978   2.498
19054WAT      O57403   5.918   3.443   8.356
19054WAT     H157404   5.929   3.497   8.439
19054WAT     H257405   5.850   3.486   8.296
19055WAT      O57406   8.258   5.595   4.778
19055WAT     H157407   8.349   5.597   4.738
19055WAT     H257408   8.217   5.686   4.774
19056WAT      O57409   3.504   6.743   7.980
19056WAT     H157410   3.503   6.681   7.902
19056WAT     H257411   3.473   6.694   8.062
19057WAT      O57412   6.493   6.263   7.270
19057WAT     H157413   6.407   6.285   7.225
19057WAT     H257414   6.475   6.202   7.348
19058WAT      O57415   1.067   1.952   5.260
19058WAT     H157416   0.988   1.979   5.206
19058WAT     H257417   1.069   2.004   5.346
19059WAT      O57418   8.542   3.816   7.880
19059WAT     H157419   8.517   3.812   7.783
19059WAT     H257420   8.471   3.773   7.935
19060WAT      O57421   2.453   5.898   9.174
19060WAT     H157422   2.442   5.823   9.110
19060WAT     H257423   2.456   5.985   9.124
19061WAT      O57424   7.030   8.533   3.295
19061WAT     H157425   7.126   8.547   3.274
19061WAT     H257426   7.008   8.574   3.383
19062WAT      O57427   7.423   7.965   9.695
19062WAT     H157428   7.399   8.055   9.730
19062WAT     H257429   7.340   7.915   9.672
19063WAT      O57430   7.677   0.720   7.042
19063WAT     H157431   7.602   0.779   7.071
19063WAT     H257432   7.704   0.659   7.117
19064WAT      O57433   7.014   7.637   9.309
19064WAT     H157434   6.945   7.702   9.341
19064WAT     H257435   6.969   7.553   9.277
19065WAT      O57436   7.663   7.156   5.771
19065WAT     H157437   7.602   7.235   5.764
19065WAT     H257438   7.660   7.120   5.865
19066WAT      O57439   9.713   3.492   3.558
19066WAT     H157440   9.757   3.484   3.647
19066WAT     H257441   9.744   3.417   3.498
19067WAT      O57442   4.018   2.566   6.625
19067WAT     H157443   4.034   2.611   6.713
19067WAT     H257444   4.014   2.634   6.553
19068WAT      O57445   1.803   2.971   1.812
19068WAT     H157446   1.853   3.054   1.789
19068WAT     H257447   1.785   2.919   1.729
19069WAT      O57448   6.376   1.423   4.924
19069WAT     H157449   6.311   1.439   4.850
19069WAT     H257450   6.433   1.504   4.937
19070WAT      O57451   7.367   9.470   6.078
19070WAT     H157452   7.431   9.534   6.036
19070WAT     H257453   7.396   9.449   6.171
19071WAT      O57454   8.306   0.659   3.392
19071WAT     H157455   8.234   0.591   3.404
19071WAT     H257456   8.325   0.670   3.294
19072WAT      O57457   8.726   2.525   7.231
19072WAT     H157458   8.809   2.478   7.261
19072WAT     H257459   8.646   2.478   7.268
19073WAT      O57460   5.624   4.486   8.106
19073WAT     H157461   5.601   4.547   8.182
19073WAT     H257462   5.571   4.402   8.114
19074WAT      O57463   9.284   7.567   2.462
19074WAT     H157464   9.321   7.621   2.386
19074WAT     H257465   9.356   7.549   2.529
19075WAT      O57466   4.577   0.663   7.591
19075WAT     H157467   4.556   0.718   7.671
19075WAT     H257468   4.650   0.597   7.613
19076WAT      O57469   1.343   4.413   1.524
19076WAT     H157470   1.390   4.336   1.481
19076WAT     H257471   1.316   4.387   1.617
19077WAT      O57472   3.943   8.499   9.371
19077WAT     H157473   3.864   8.437   9.365
19077WAT     H257474   3.911   8.591   9.392
19078WAT      O57475   2.215   4.107   7.284
19078WAT     H157476   2.304   4.143   7.310
19078WAT     H257477   2.225   4.012   7.255
19079WAT      O57478   9.731   0.258   0.016
19079WAT     H157479   9.698   0.327   0.080
19079WAT     H257480   9.831   0.256   0.017
19080WAT      O57481   9.624   1.417   1.684
19080WAT     H157482   9.670   1.452   1.602
19080WAT     H257483   9.582   1.329   1.664
19081WAT      O57484   9.666   2.680   5.332
19081WAT     H157485   9.668   2.586   5.366
19081WAT     H257486   9.745   2.730   5.369
19082WAT      O57487   4.777   8.305   8.530
19082WAT     H157488   4.703   8.360   8.570
19082WAT     H257489   4.739   8.244   8.461
19083WAT      O57490   5.263   1.749   3.507
19083WAT     H157491   5.252   1.726   3.603
19083WAT     H257492   5.211   1.832   3.486
19084WAT      O57493   4.177   4.004   6.539
19084WAT     H157494   4.247   3.943   6.503
19084WAT     H257495   4.217   4.094   6.557
19085WAT      O57496   5.467   8.734   5.690
19085WAT     H157497   5.478   8.832   5.674
19085WAT     H257498   5.371   8.715   5.713
19086WAT      O57499   7.938   7.927   8.591
19086WAT     H157500   8.018   7.904   8.646
19086WAT     H257501   7.967   7.941   8.496
19087WAT      O57502   7.650   8.033   3.567
19087WAT     H157503   7.711   7.954   3.578
19087WAT     H257504   7.570   8.021   3.626
19088WAT      O57505   9.626   1.828   3.731
19088WAT     H157506   9.662   1.895   3.797
19088WAT     H257507   9.532   1.805   3.755
19089WAT      O57508   0.299   1.185   9.453
19089WAT     H157509   0.323   1.280   9.436
19089WAT     H257510   0.207   1.180   9.492
19090WAT      O57511   1.423   1.604   2.519
19090WAT     H157512   1.345   1.599   2.581
19090WAT     H257513   1.412   1.683   2.458
19091WAT      O57514   1.694   8.062   9.774
19091WAT     H157515   1.789   8.077   9.749
19091WAT     H257516   1.687   7.978   9.829
19092WAT      O57517   7.590   0.795   1.903
19092WAT     H157518   7.645   0.720   1.940
19092WAT     H257519   7.543   0.842   1.978
19093WAT      O57520   9.404   3.290   2.409
19093WAT     H157521   9.442   3.371   2.363
19093WAT     H257522   9.321   3.260   2.362
19094WAT      O57523   1.563   5.905   1.047
19094WAT     H157524   1.601   5.977   1.105
19094WAT     H257525   1.562   5.818   1.098
19095WAT      O57526   7.063   5.587   7.937
19095WAT     H157527   6.978   5.551   7.974
19095WAT     H257528   7.106   5.647   8.004
19096WAT      O57529   6.625   6.413   7.874
19096WAT     H157530   6.585   6.429   7.964
19096WAT     H257531   6.691   6.338   7.879
19097WAT      O57532   8.722   7.898   3.937
19097WAT     H157533   8.623   7.890   3.951
19097WAT     H257534   8.768   7.890   4.025
19098WAT      O57535   5.239   9.516   3.599
19098WAT     H157536   5.205   9.557   3.514
19098WAT     H257537   5.335   9.489   3.587
19099WAT      O57538   6.829   1.122   1.786
19099WAT     H157539   6.750   1.159   1.837
19099WAT     H257540   6.877   1.055   1.843
19100WAT      O57541   5.234   9.481   3.091
19100WAT     H157542   5.266   9.426   3.168
19100WAT     H257543   5.270   9.574   3.099
19101WAT      O57544   1.172   7.882   9.593
19101WAT     H157545   1.264   7.921   9.582
19101WAT     H257546   1.169   7.791   9.552
19102WAT      O57547   3.439   4.949   1.931
19102WAT     H157548   3.525   4.999   1.924
19102WAT     H257549   3.412   4.945   2.028
19103WAT      O57550   3.382   7.163   0.703
19103WAT     H157551   3.351   7.080   0.749
19103WAT     H257552   3.368   7.153   0.604
19104WAT      O57553   2.806   4.028   3.016
19104WAT     H157554   2.885   4.026   2.954
19104WAT     H257555   2.838   4.033   3.111
19105WAT      O57556   6.416   6.944   3.624
19105WAT     H157557   6.503   6.961   3.671
19105WAT     H257558   6.433   6.887   3.543
19106WAT      O57559   0.155   5.862   3.943
19106WAT     H157560   0.184   5.936   4.004
19106WAT     H257561   0.124   5.784   3.998
19107WAT      O57562   0.411   3.867   5.519
19107WAT     H157563   0.383   3.958   5.490
19107WAT     H257564   0.334   3.821   5.564
19108WAT      O57565   5.940   2.736   0.555
19108WAT     H157566   5.931   2.686   0.641
19108WAT     H257567   6.033   2.725   0.519
19109WAT      O57568   5.846   9.368   2.484
19109WAT     H157569   5.930   9.421   2.475
19109WAT     H257570   5.818   9.365   2.580
19110WAT      O57571   4.274   0.458   2.258
19110WAT     H157572   4.314   0.367   2.266
19110WAT     H257573   4.188   0.453   2.207
19111WAT      O57574   7.208   5.126   1.231
19111WAT     H157575   7.113   5.146   1.206
19111WAT     H257576   7.248   5.063   1.165
19112WAT      O57577   8.406   7.380   3.891
19112WAT     H157578   8.496   7.349   3.858
19112WAT     H257579   8.412   7.398   3.990
19113WAT      O57580   8.858   6.378   8.017
19113WAT     H157581   8.862   6.383   7.917
19113WAT     H257582   8.864   6.282   8.045
19114WAT      O57583   4.255   2.677   0.002
19114WAT     H157584   4.292   2.753   0.056
19114WAT     H257585   4.306   2.668  -0.083
19115WAT      O57586   2.924   8.861   6.655
19115WAT     H157587   2.871   8.784   6.692
19115WAT     H257588   2.884   8.890   6.568
19116WAT      O57589   9.852   8.325   0.048
19116WAT     H157590   9.837   8.399  -0.017
19116WAT     H257591   9.774   8.263   0.048
19117WAT      O57592   9.051   4.583   9.513
19117WAT     H157593   9.112   4.616   9.585
19117WAT     H257594   8.960   4.566   9.551
19118WAT      O57595   8.100   7.852   8.774
19118WAT     H157596   8.092   7.801   8.860
19118WAT     H257597   8.191   7.895   8.770
19119WAT      O57598   9.187   0.444   2.473
19119WAT     H157599   9.142   0.434   2.561
19119WAT     H257600   9.119   0.463   2.403
19120WAT      O57601   2.653   2.425   0.995
19120WAT     H157602   2.727   2.470   1.045
19120WAT     H257603   2.691   2.352   0.939
19121WAT      O57604   7.885   7.156   5.356
19121WAT     H157605   7.811   7.089   5.351
19121WAT     H257606   7.851   7.246   5.330
19122WAT      O57607   1.947   0.257   2.543
19122WAT     H157608   1.868   0.292   2.593
19122WAT     H257609   1.999   0.333   2.504
19123WAT      O57610   8.148   4.977   8.843
19123WAT     H157611   8.116   5.057   8.893
19123WAT     H257612   8.191   4.913   8.907
19124WAT      O57613   7.220   8.256   6.165
19124WAT     H157614   7.183   8.281   6.254
19124WAT     H257615   7.145   8.242   6.100
19125WAT      O57616   9.571   0.543   7.304
19125WAT     H157617   9.564   0.451   7.342
19125WAT     H257618   9.529   0.608   7.367
19126WAT      O57619   5.021   5.503   4.792
19126WAT     H157620   4.929   5.473   4.819
19126WAT     H257621   5.016   5.547   4.703
19127WAT      O57622   9.747   3.530   7.795
19127WAT     H157623   9.769   3.436   7.820
19127WAT     H257624   9.814   3.592   7.834
19128WAT      O57625   0.742   3.447   8.269
19128WAT     H157626   0.816   3.403   8.218
19128WAT     H257627   0.760   3.441   8.367
19129WAT      O57628   7.159   7.562   0.463
19129WAT     H157629   7.114   7.626   0.526
19129WAT     H257630   7.194   7.484   0.515
19130WAT      O57631   0.941   3.963   7.019
19130WAT     H157632   0.860   4.012   6.988
19130WAT     H257633   0.931   3.865   7.001
19131WAT      O57634   5.582   8.811   9.261
19131WAT     H157635   5.510   8.841   9.197
19131WAT     H257636   5.540   8.761   9.337
19132WAT      O57637   1.990   5.145   8.303
19132WAT     H157638   1.917   5.209   8.280
19132WAT     H257639   2.018   5.096   8.221
19133WAT      O57640   2.005   6.366   8.728
19133WAT     H157641   1.916   6.350   8.771
19133WAT     H257642   2.063   6.421   8.789
19134WAT      O57643   4.317   3.289   1.677
19134WAT     H157644   4.314   3.241   1.765
19134WAT     H257645   4.333   3.386   1.693
19135WAT      O57646   9.714   7.342   1.120
19135WAT     H157647   9.797   7.333   1.174
19135WAT     H257648   9.721   7.424   1.062
19136WAT      O57649   4.651   4.473   7.295
19136WAT     H157650   4.734   4.423   7.318
19136WAT     H257651   4.571   4.416   7.314
19137WAT      O57652   9.853   1.982   9.651
19137WAT     H157653   9.859   1.976   9.551
19137WAT     H257654   9.784   2.049   9.677
19138WAT      O57655   9.329   2.907   3.586
19138WAT     H157656   9.258   2.958   3.538
19138WAT     H257657   9.291   2.820   3.619
19139WAT      O57658   5.219   7.884   8.902
19139WAT     H157659   5.229   7.796   8.856
19139WAT     H257660   5.301   7.903   8.956
19140WAT      O57661   0.513   9.540   5.434
19140WAT     H157662   0.552   9.631   5.417
19140WAT     H257663   0.587   9.473   5.438
19141WAT      O57664   8.321   2.059   2.298
19141WAT     H157665   8.381   2.057   2.218
19141WAT     H257666   8.306   1.965   2.330
19142WAT      O57667   2.225   0.775   5.796
19142WAT     H157668   2.322   0.755   5.809
19142WAT     H257669   2.208   0.795   5.699
19143WAT      O57670   7.701   6.024   5.443
19143WAT     H157671   7.683   5.964   5.521
19143WAT     H257672   7.697   5.970   5.358
19144WAT      O57673   4.279   2.287   8.233
19144WAT     H157674   4.224   2.220   8.283
19144WAT     H257675   4.314   2.355   8.298
19145WAT      O57676   4.201   4.928   0.989
19145WAT     H157677   4.239   5.017   0.964
19145WAT     H257678   4.101   4.933   0.986
19146WAT      O57679   0.728   8.329   1.664
19146WAT     H157680   0.771   8.390   1.731
19146WAT     H257681   0.629   8.340   1.667
19147WAT      O57682   8.809   3.508   9.794
19147WAT     H157683   8.737   3.528   9.727
19147WAT     H257684   8.898   3.534   9.755
19148WAT      O57685   2.049   1.096   8.191
19148WAT     H157686   2.042   1.177   8.133
19148WAT     H257687   1.980   1.029   8.164
19149WAT      O57688   1.255   1.593   6.404
19149WAT     H157689   1.186   1.576   6.475
19149WAT     H257690   1.281   1.690   6.406
19150WAT      O57691   4.024   6.178   0.248
19150WAT     H157692   4.091   6.241   0.209
19150WAT     H257693   4.055   6.084   0.234
19151WAT      O57694   6.204   3.545   5.071
19151WAT     H157695   6.112   3.511   5.091
19151WAT     H257696   6.267   3.514   5.142
19152WAT      O57697   9.112   1.625   5.697
19152WAT     H157698   9.090   1.585   5.607
19152WAT     H257699   9.111   1.552   5.766
19153WAT      O57700   7.004   2.887   8.127
19153WAT     H157701   7.078   2.853   8.186
19153WAT     H257702   7.038   2.960   8.069
19154WAT      O57703   0.798   7.107   7.220
19154WAT     H157704   0.825   7.037   7.154
19154WAT     H257705   0.704   7.089   7.251
19155WAT      O57706   0.915   9.022   9.713
19155WAT     H157707   0.954   8.969   9.789
19155WAT     H257708   0.909   8.963   9.632
19156WAT      O57709   1.854   3.808   3.504
19156WAT     H157710   1.755   3.797   3.494
19156WAT     H257711   1.881   3.898   3.469
19157WAT      O57712   7.003   1.982   3.627
19157WAT     H157713   7.065   1.928   3.683
19157WAT     H257714   7.044   1.999   3.538
19158WAT      O57715   1.395   5.180   2.688
19158WAT     H157716   1.461   5.139   2.625
19158WAT     H257717   1.434   5.262   2.729
19159WAT      O57718   0.034   3.374   9.065
19159WAT     H157719   0.079   3.352   8.978
19159WAT     H257720   0.088   3.441   9.115
19160WAT      O57721   2.013   2.073   4.455
19160WAT     H157722   2.086   2.005   4.463
19160WAT     H257723   2.053   2.165   4.454
19161WAT      O57724   7.474   9.777   8.117
19161WAT     H157725   7.513   9.812   8.202
19161WAT     H257726   7.402   9.839   8.086
19162WAT      O57727   6.219   2.914   6.602
19162WAT     H157728   6.280   2.908   6.524
19162WAT     H257729   6.236   2.837   6.664
19163WAT      O57730   0.285   4.334   0.113
19163WAT     H157731   0.269   4.332   0.211
19163WAT     H257732   0.299   4.241   0.079
19164WAT      O57733   5.303   7.298   1.867
19164WAT     H157734   5.204   7.297   1.857
19164WAT     H257735   5.342   7.216   1.825
19165WAT      O57736   3.313   0.513   4.187
19165WAT     H157737   3.229   0.465   4.214
19165WAT     H257738   3.327   0.504   4.089
19166WAT      O57739   2.296   7.554   2.927
19166WAT     H157740   2.349   7.620   2.874
19166WAT     H257741   2.199   7.580   2.925
19167WAT      O57742   7.069   1.986   9.205
19167WAT     H157743   7.105   2.001   9.297
19167WAT     H257744   7.145   1.979   9.140
19168WAT      O57745   1.017   8.885   3.979
19168WAT     H157746   0.966   8.816   3.927
19168WAT     H257747   1.082   8.839   4.038
19169WAT      O57748   6.561   8.049   2.540
19169WAT     H157749   6.543   8.147   2.535
19169WAT     H257750   6.644   8.028   2.487
19170WAT      O57751   9.422   2.396   7.438
19170WAT     H157752   9.476   2.340   7.500
19170WAT     H257753   9.426   2.492   7.466
19171WAT      O57754   3.502   7.595   8.281
19171WAT     H157755   3.486   7.645   8.366
19171WAT     H257756   3.465   7.646   8.204
19172WAT      O57757   4.456   6.381   2.854
19172WAT     H157758   4.397   6.381   2.773
19172WAT     H257759   4.473   6.475   2.883
19173WAT      O57760   8.816   3.390   4.701
19173WAT     H157761   8.876   3.370   4.778
19173WAT     H257762   8.865   3.372   4.615
19174WAT      O57763   9.080   4.233   1.088
19174WAT     H157764   9.113   4.237   1.182
19174WAT     H257765   9.026   4.150   1.075
19175WAT      O57766   3.282   7.847   9.058
19175WAT     H157767   3.291   7.861   8.960
19175WAT     H257768   3.274   7.749   9.077
19176WAT      O57769   4.950   4.726   7.440
19176WAT     H157770   4.874   4.695   7.383
19176WAT     H257771   4.995   4.647   7.482
19177WAT      O57772   0.593   2.247   6.976
19177WAT     H157773   0.610   2.335   6.932
19177WAT     H257774   0.626   2.249   7.070
19178WAT      O57775   0.892   7.301   0.118
19178WAT     H157776   0.987   7.269   0.121
19178WAT     H257777   0.885   7.376   0.052
19179WAT      O57778   1.540   1.879   7.658
19179WAT     H157779   1.454   1.845   7.696
19179WAT     H257780   1.546   1.854   7.561
19180WAT      O57781   2.633   2.748   0.694
19180WAT     H157782   2.575   2.681   0.740
19180WAT     H257783   2.698   2.787   0.759
19181WAT      O57784   9.088   4.528   1.036
19181WAT     H157785   9.085   4.431   1.010
19181WAT     H257786   9.125   4.582   0.960
19182WAT      O57787   7.661   5.367   6.571
19182WAT     H157788   7.601   5.307   6.519
19182WAT     H257789   7.605   5.434   6.621
19183WAT      O57790   9.506   1.859   4.130
19183WAT     H157791   9.466   1.810   4.052
19183WAT     H257792   9.467   1.823   4.215
19184WAT      O57793   3.251   0.451   4.503
19184WAT     H157794   3.192   0.371   4.492
19184WAT     H257795   3.329   0.426   4.561
19185WAT      O57796   3.607   8.216   3.055
19185WAT     H157797   3.574   8.125   3.079
19185WAT     H257798   3.697   8.231   3.095
19186WAT      O57799   5.522   2.072   5.233
19186WAT     H157800   5.495   2.166   5.213
19186WAT     H257801   5.616   2.057   5.203
19187WAT      O57802   8.869   7.077   6.556
19187WAT     H157803   8.839   7.110   6.645
19187WAT     H257804   8.846   7.145   6.486
19188WAT      O57805   3.240   6.328   7.663
19188WAT     H157806   3.328   6.352   7.703
19188WAT     H257807   3.176   6.404   7.674
19189WAT      O57808   7.343   6.384   3.309
19189WAT     H157809   7.325   6.438   3.391
19189WAT     H257810   7.442   6.368   3.301
19190WAT      O57811   7.471   3.571   4.549
19190WAT     H157812   7.466   3.575   4.449
19190WAT     H257813   7.503   3.659   4.584
19191WAT      O57814   0.223   3.259   1.452
19191WAT     H157815   0.124   3.257   1.465
19191WAT     H257816   0.265   3.179   1.494
19192WAT      O57817   9.337   5.917   2.263
19192WAT     H157818   9.273   5.851   2.223
19192WAT     H257819   9.296   5.958   2.344
19193WAT      O57820   6.954   4.701   2.157
19193WAT     H157821   6.949   4.796   2.126
19193WAT     H257822   7.018   4.650   2.100
19194WAT      O57823   4.334   2.024   4.614
19194WAT     H157824   4.338   2.076   4.528
19194WAT     H257825   4.323   2.088   4.690
19195WAT      O57826   9.702   1.663   9.550
19195WAT     H157827   9.771   1.617   9.606
19195WAT     H257828   9.735   1.674   9.457
19196WAT      O57829   7.369   4.977   1.970
19196WAT     H157830   7.468   4.967   1.970
19196WAT     H257831   7.345   5.069   1.938
19197WAT      O57832   1.126   2.927   2.028
19197WAT     H157833   1.052   2.958   2.088
19197WAT     H257834   1.185   2.863   2.078
19198WAT      O57835   8.015   3.011   7.296
19198WAT     H157836   7.959   3.094   7.288
19198WAT     H257837   8.101   3.024   7.246
19199WAT      O57838   6.310   0.503   3.880
19199WAT     H157839   6.322   0.602   3.874
19199WAT     H257840   6.215   0.482   3.901
19200WAT      O57841   9.367   9.442   1.823
19200WAT     H157842   9.355   9.347   1.794
19200WAT     H257843   9.360   9.448   1.923
19201WAT      O57844   0.458   4.335   6.289
19201WAT     H157845   0.422   4.361   6.379
19201WAT     H257846   0.484   4.239   6.291
19202WAT      O57847   5.676   1.333   7.620
19202WAT     H157848   5.644   1.393   7.693
19202WAT     H257849   5.659   1.377   7.531
19203WAT      O57850   7.508   0.262   8.425
19203WAT     H157851   7.548   0.262   8.333
19203WAT     H257852   7.569   0.214   8.488
19204WAT      O57853   1.721   5.181   8.892
19204WAT     H157854   1.630   5.149   8.921
19204WAT     H257855   1.790   5.145   8.954
19205WAT      O57856   7.383   5.892   6.687
19205WAT     H157857   7.402   5.976   6.738
19205WAT     H257858   7.317   5.837   6.738
19206WAT      O57859   3.210   0.689   6.024
19206WAT     H157860   3.306   0.683   5.998
19206WAT     H257861   3.159   0.615   5.981
19207WAT      O57862   4.353   1.124   7.621
19207WAT     H157863   4.316   1.031   7.625
19207WAT     H257864   4.293   1.181   7.566
19208WAT      O57865   1.200   9.167   5.934
19208WAT     H157866   1.171   9.150   5.840
19208WAT     H257867   1.300   9.162   5.940
19209WAT      O57868   0.132   8.437   5.205
19209WAT     H157869   0.178   8.376   5.140
19209WAT     H257870   0.117   8.527   5.162
19210WAT      O57871   9.731   8.129   3.785
19210WAT     H157872   9.633   8.120   3.806
19210WAT     H257873   9.766   8.214   3.825
19211WAT      O57874   6.887   4.924   9.791
19211WAT     H157875   6.864   4.843   9.737
19211WAT     H257876   6.805   4.961   9.833
19212WAT      O57877   5.574   5.865   0.377
19212WAT     H157878   5.567   5.892   0.473
19212WAT     H257879   5.662   5.896   0.340
19213WAT      O57880   1.569   4.338   0.094
19213WAT     H157881   1.481   4.292   0.086
19213WAT     H257882   1.563   4.430   0.054
19214WAT      O57883   9.616   4.630   4.119
19214WAT     H157884   9.710   4.608   4.096
19214WAT     H257885   9.614   4.684   4.203
19215WAT      O57886   7.935   6.681   2.370
19215WAT     H157887   7.915   6.779   2.371
19215WAT     H257888   7.897   6.640   2.287
19216WAT      O57889   7.356   8.981   2.745
19216WAT     H157890   7.319   8.981   2.652
19216WAT     H257891   7.326   9.063   2.793
19217WAT      O57892   1.579   1.519   3.936
19217WAT     H157893   1.679   1.523   3.929
19217WAT     H257894   1.547   1.585   4.005
19218WAT      O57895   4.638   4.493   1.750
19218WAT     H157896   4.567   4.439   1.706
19218WAT     H257897   4.597   4.569   1.801
19219WAT      O57898   9.342   2.496   5.032
19219WAT     H157899   9.408   2.421   5.033
19219WAT     H257900   9.340   2.540   5.121
19220WAT      O57901   0.548   1.653   5.684
19220WAT     H157902   0.625   1.591   5.699
19220WAT     H257903   0.536   1.712   5.764
19221WAT      O57904   8.957   3.571   7.821
19221WAT     H157905   9.036   3.609   7.870
19221WAT     H257906   8.875   3.581   7.878
19222WAT      O57907   6.165   8.162   8.482
19222WAT     H157908   6.096   8.190   8.416
19222WAT     H257909   6.124   8.160   8.574
19223WAT      O57910   7.436   5.948   3.326
19223WAT     H157911   7.476   5.883   3.261
19223WAT     H257912   7.406   5.899   3.408
19224WAT      O57913   9.048   3.557   5.863
19224WAT     H157914   9.037   3.584   5.959
19224WAT     H257915   9.062   3.638   5.807
19225WAT      O57916   9.476   9.762   4.873
19225WAT     H157917   9.475   9.748   4.972
19225WAT     H257918   9.385   9.741   4.836
19226WAT      O57919   5.816   4.540   1.582
19226WAT     H157920   5.732   4.591   1.601
19226WAT     H257921   5.871   4.535   1.666
19227WAT      O57922   3.901   7.609   9.374
19227WAT     H157923   3.851   7.694   9.392
19227WAT     H257924   4.000   7.626   9.379
19228WAT      O57925   7.488   8.028   1.396
19228WAT     H157926   7.421   8.024   1.471
19228WAT     H257927   7.440   8.041   1.310
19229WAT      O57928   2.657   7.709   9.444
19229WAT     H157929   2.642   7.750   9.534
19229WAT     H257930   2.727   7.639   9.451
19230WAT      O57931   4.877   1.866   3.562
19230WAT     H157932   4.969   1.881   3.601
19230WAT     H257933   4.869   1.771   3.533
19231WAT      O57934   8.366   1.486   6.037
19231WAT     H157935   8.288   1.424   6.045
19231WAT     H257936   8.381   1.509   5.941
19232WAT      O57937   4.995   2.946   0.073
19232WAT     H157938   5.091   2.971   0.064
19232WAT     H257939   4.939   3.029   0.065
19233WAT      O57940   3.792   1.468   9.069
19233WAT     H157941   3.790   1.410   8.987
19233WAT     H257942   3.770   1.562   9.044
19234WAT      O57943   7.813   1.334   1.865
19234WAT     H157944   7.839   1.269   1.794
19234WAT     H257945   7.826   1.427   1.832
19235WAT      O57946   3.868   1.294   5.607
19235WAT     H157947   3.845   1.265   5.700
19235WAT     H257948   3.958   1.338   5.606
19236WAT      O57949   8.414   2.447   1.798
19236WAT     H157950   8.364   2.451   1.712
19236WAT     H257951   8.492   2.510   1.794
19237WAT      O57952   4.088   4.820   7.720
19237WAT     H157953   4.053   4.743   7.667
19237WAT     H257954   4.152   4.872   7.664
19238WAT      O57955   1.602   2.631   1.631
19238WAT     H157956   1.681   2.571   1.623
19238WAT     H257957   1.554   2.611   1.717
19239WAT      O57958   2.171   3.803   1.739
19239WAT     H157959   2.074   3.789   1.720
19239WAT     H257960   2.215   3.715   1.757
19240WAT      O57961   2.691   5.633   5.003
19240WAT     H157962   2.641   5.638   5.089
19240WAT     H257963   2.738   5.719   4.986
19241WAT      O57964   7.170   4.439   1.183
19241WAT     H157965   7.191   4.359   1.126
19241WAT     H257966   7.252   4.467   1.233
19242WAT      O57967   6.852   0.791   3.380
19242WAT     H157968   6.933   0.758   3.427
19242WAT     H257969   6.852   0.891   3.380
19243WAT      O57970   9.117   6.406   8.151
19243WAT     H157971   9.027   6.386   8.113
19243WAT     H257972   9.110   6.420   8.249
19244WAT      O57973   3.694   9.486   0.903
19244WAT     H157974   3.697   9.583   0.878
19244WAT     H257975   3.640   9.474   0.986
19245WAT      O57976   5.354   5.971   5.387
19245WAT     H157977   5.354   5.999   5.483
19245WAT     H257978   5.338   6.051   5.329
19246WAT      O57979   2.508   9.104   1.948
19246WAT     H157980   2.539   9.029   1.889
19246WAT     H257981   2.513   9.190   1.896
19247WAT      O57982   0.448   8.345   5.342
19247WAT     H157983   0.357   8.305   5.330
19247WAT     H257984   0.454   8.386   5.433
19248WAT      O57985   1.898   5.240   5.788
19248WAT     H157986   1.864   5.325   5.827
19248WAT     H257987   1.822   5.190   5.745
19249WAT      O57988   2.970   2.407   4.704
19249WAT     H157989   3.032   2.329   4.715
19249WAT     H257990   2.878   2.374   4.682
19250WAT      O57991   9.317   2.078   0.412
19250WAT     H157992   9.295   2.015   0.487
19250WAT     H257993   9.237   2.133   0.390
19251WAT      O57994   1.428   0.135   5.065
19251WAT     H157995   1.423   0.199   5.141
19251WAT     H257996   1.338   0.097   5.047
19252WAT      O57997   9.334   0.358   6.099
19252WAT     H157998   9.337   0.457   6.086
19252WAT     H257999   9.408   0.315   6.048
19253WAT      O58000   6.548   7.786   2.568
19253WAT     H158001   6.513   7.750   2.654
19253WAT     H258002   6.551   7.886   2.571
19254WAT      O58003   4.629   4.115   2.838
19254WAT     H158004   4.717   4.128   2.791
19254WAT     H258005   4.576   4.045   2.790
19255WAT      O58006   5.218   1.478   3.931
19255WAT     H158007   5.300   1.420   3.937
19255WAT     H258008   5.158   1.444   3.860
19256WAT      O58009   7.666   7.388   4.353
19256WAT     H158010   7.654   7.482   4.320
19256WAT     H258011   7.577   7.342   4.353
19257WAT      O58012   1.444   0.354   4.055
19257WAT     H158013   1.483   0.271   4.093
19257WAT     H258014   1.346   0.342   4.039
19258WAT      O58015   0.085   2.963   8.368
19258WAT     H158016   0.019   2.888   8.377
19258WAT     H258017   0.054   3.026   8.297
19259WAT      O58018   1.174   5.573   8.520
19259WAT     H158019   1.216   5.590   8.609
19259WAT     H258020   1.107   5.499   8.528
19260WAT      O58021   2.994   4.346   8.931
19260WAT     H158022   2.955   4.431   8.967
19260WAT     H258023   2.923   4.276   8.927
19261WAT      O58024   1.855   8.821   1.287
19261WAT     H158025   1.916   8.858   1.216
19261WAT     H258026   1.825   8.729   1.261
19262WAT      O58027   8.200   1.218   4.681
19262WAT     H158028   8.153   1.129   4.676
19262WAT     H258029   8.256   1.221   4.764
19263WAT      O58030   1.803   0.796   3.043
19263WAT     H158031   1.790   0.768   2.948
19263WAT     H258032   1.714   0.820   3.084
19264WAT      O58033   5.208   2.087   2.694
19264WAT     H158034   5.295   2.088   2.743
19264WAT     H258035   5.157   2.004   2.718
19265WAT      O58036   2.656   3.231   8.123
19265WAT     H158037   2.667   3.170   8.044
19265WAT     H258038   2.592   3.190   8.188
19266WAT      O58039   4.619   4.829   5.061
19266WAT     H158040   4.690   4.879   5.111
19266WAT     H258041   4.572   4.892   4.999
19267WAT      O58042   1.155   6.571   8.107
19267WAT     H158043   1.138   6.505   8.034
19267WAT     H258044   1.073   6.627   8.122
19268WAT      O58045   8.362   1.912   9.319
19268WAT     H158046   8.440   1.920   9.256
19268WAT     H258047   8.379   1.836   9.382
19269WAT      O58048   5.027   0.777   7.308
19269WAT     H158049   5.021   0.850   7.239
19269WAT     H258050   4.960   0.794   7.380
19270WAT      O58051   8.081   2.544   7.386
19270WAT     H158052   8.072   2.445   7.386
19270WAT     H258053   8.151   2.572   7.320
19271WAT      O58054   7.754   1.803   1.066
19271WAT     H158055   7.782   1.711   1.095
19271WAT     H258056   7.664   1.799   1.025
19272WAT      O58057   4.979   5.326   6.364
19272WAT     H158058   5.049   5.397   6.372
19272WAT     H258059   4.989   5.260   6.438
19273WAT      O58060   6.171   1.438   4.147
19273WAT     H158061   6.265   1.409   4.165
19273WAT     H258062   6.149   1.422   4.050
19274WAT      O58063   0.710   8.795   2.881
19274WAT     H158064   0.656   8.736   2.822
19274WAT     H258065   0.683   8.779   2.977
19275WAT      O58066   0.322   4.102   5.415
19275WAT     H158067   0.317   4.174   5.346
19275WAT     H258068   0.229   4.071   5.437
19276WAT      O58069   1.836   8.699   1.733
19276WAT     H158070   1.793   8.664   1.649
19276WAT     H258071   1.811   8.641   1.810
19277WAT      O58072   0.514   2.183   6.455
19277WAT     H158073   0.448   2.135   6.513
19277WAT     H258074   0.605   2.147   6.472
19278WAT      O58075   6.543   2.240   8.144
19278WAT     H158076   6.537   2.151   8.099
19278WAT     H258077   6.497   2.235   8.232
19279WAT      O58078   4.483   7.674   7.748
19279WAT     H158079   4.564   7.706   7.798
19279WAT     H258080   4.418   7.633   7.813
19280WAT      O58081   4.427   6.194   9.094
19280WAT     H158082   4.443   6.147   9.007
19280WAT     H258083   4.492   6.270   9.104
19281WAT      O58084   1.257   8.275   8.480
19281WAT     H158085   1.277   8.342   8.551
19281WAT     H258086   1.165   8.291   8.444
19282WAT      O58087   3.079   1.674   0.435
19282WAT     H158088   3.167   1.710   0.403
19282WAT     H258089   3.090   1.579   0.464
19283WAT      O58090   3.597   8.620   0.971
19283WAT     H158091   3.524   8.582   1.028
19283WAT     H258092   3.557   8.679   0.900
19284WAT      O58093   2.210   2.781   4.607
19284WAT     H158094   2.234   2.685   4.595
19284WAT     H258095   2.117   2.788   4.641
19285WAT      O58096   0.033   9.390   1.767
19285WAT     H158097  -0.027   9.346   1.700
19285WAT     H258098   0.111   9.431   1.720
19286WAT      O58099   2.737   5.479   2.650
19286WAT     H158100   2.771   5.552   2.589
19286WAT     H258101   2.751   5.506   2.745
19287WAT      O58102   0.593   8.550   1.220
19287WAT     H158103   0.660   8.477   1.205
19287WAT     H258104   0.606   8.589   1.312
19288WAT      O58105   5.345   2.423   7.904
19288WAT     H158106   5.384   2.413   7.996
19288WAT     H258107   5.268   2.486   7.908
19289WAT      O58108   5.659   0.727   2.781
19289WAT     H158109   5.744   0.770   2.751
19289WAT     H258110   5.635   0.653   2.718
19290WAT      O58111   8.815   1.152   2.790
19290WAT     H158112   8.764   1.237   2.774
19290WAT     H258113   8.794   1.118   2.882
19291WAT      O58114   7.925   0.862   2.544
19291WAT     H158115   7.939   0.803   2.624
19291WAT     H258116   7.832   0.900   2.547
19292WAT      O58117   1.313   1.126   8.459
19292WAT     H158118   1.295   1.224   8.452
19292WAT     H258119   1.258   1.088   8.533
19293WAT      O58120   3.947   8.975   4.292
19293WAT     H158121   4.040   9.007   4.275
19293WAT     H258122   3.883   9.022   4.231
19294WAT      O58123   5.983   9.496   4.333
19294WAT     H158124   6.055   9.449   4.281
19294WAT     H258125   5.942   9.566   4.276
19295WAT      O58126   8.452   9.380   3.235
19295WAT     H158127   8.412   9.466   3.266
19295WAT     H258128   8.503   9.397   3.150
19296WAT      O58129   5.713   2.865   6.238
19296WAT     H158130   5.653   2.887   6.161
19296WAT     H258131   5.777   2.940   6.253
19297WAT      O58132   9.553   6.450   7.208
19297WAT     H158133   9.593   6.363   7.236
19297WAT     H258134   9.618   6.500   7.151
19298WAT      O58135   4.988   8.998   1.859
19298WAT     H158136   4.888   8.999   1.857
19298WAT     H258137   5.020   8.918   1.909
19299WAT      O58138   9.334   5.704   0.909
19299WAT     H158139   9.317   5.788   0.961
19299WAT     H258140   9.281   5.629   0.948
19300WAT      O58141   8.885   9.822   8.874
19300WAT     H158142   8.857   9.892   8.940
19300WAT     H258143   8.814   9.752   8.868
19301WAT      O58144   9.442   2.901   4.528
19301WAT     H158145   9.369   2.902   4.597
19301WAT     H258146   9.401   2.901   4.437
19302WAT      O58147   9.487   0.533   7.031
19302WAT     H158148   9.518   0.569   7.119
19302WAT     H258149   9.535   0.580   6.957
19303WAT      O58150   5.129   8.841   6.729
19303WAT     H158151   5.109   8.939   6.722
19303WAT     H258152   5.223   8.829   6.760
19304WAT      O58153   2.175   1.681   2.639
19304WAT     H158154   2.076   1.676   2.633
19304WAT     H258155   2.206   1.771   2.609
19305WAT      O58156   1.409   2.770   7.436
19305WAT     H158157   1.432   2.866   7.455
19305WAT     H258158   1.394   2.758   7.337
19306WAT      O58159   1.314   7.671   7.224
19306WAT     H158160   1.269   7.679   7.313
19306WAT     H258161   1.405   7.632   7.236
19307WAT      O58162   1.915   2.031   8.335
19307WAT     H158163   1.829   2.059   8.375
19307WAT     H258164   1.943   2.097   8.265
19308WAT      O58165   3.257   2.900   8.758
19308WAT     H158166   3.190   2.973   8.771
19308WAT     H258167   3.238   2.852   8.672
19309WAT      O58168   2.812   2.170   1.908
19309WAT     H158169   2.880   2.212   1.968
19309WAT     H258170   2.808   2.071   1.925
19310WAT      O58171   1.284   1.274   0.716
19310WAT     H158172   1.360   1.316   0.765
19310WAT     H258173   1.312   1.255   0.622
19311WAT      O58174   9.396   8.094   5.234
19311WAT     H158175   9.350   8.026   5.292
19311WAT     H258176   9.393   8.183   5.279
19312WAT      O58177   7.627   9.357   3.663
19312WAT     H158178   7.610   9.430   3.596
19312WAT     H258179   7.568   9.370   3.742
19313WAT      O58180   0.575   5.476   9.544
19313WAT     H158181   0.587   5.377   9.535
19313WAT     H258182   0.627   5.523   9.472
19314WAT      O58183   6.732   6.747   6.876
19314WAT     H158184   6.644   6.796   6.878
19314WAT     H258185   6.779   6.760   6.963
19315WAT      O58186   2.131   7.656   5.650
19315WAT     H158187   2.161   7.654   5.554
19315WAT     H258188   2.210   7.637   5.709
19316WAT      O58189   5.040   8.736   2.248
19316WAT     H158190   4.943   8.710   2.247
19316WAT     H258191   5.084   8.697   2.329
19317WAT      O58192   5.419   2.725   5.454
19317WAT     H158193   5.346   2.789   5.476
19317WAT     H258194   5.380   2.638   5.424
19318WAT      O58195   6.257   8.403   9.597
19318WAT     H158196   6.337   8.432   9.545
19318WAT     H258197   6.279   8.398   9.694
19319WAT      O58198   8.356   0.882   4.532
19319WAT     H158199   8.297   0.849   4.459
19319WAT     H258200   8.391   0.804   4.584
19320WAT      O58201   9.651   7.877   2.596
19320WAT     H158202   9.638   7.893   2.694
19320WAT     H258203   9.718   7.804   2.582
19321WAT      O58204   0.795   6.221   0.498
19321WAT     H158205   0.848   6.174   0.568
19321WAT     H258206   0.722   6.161   0.465
19322WAT      O58207   7.542   7.370   6.206
19322WAT     H158208   7.543   7.344   6.302
19322WAT     H258209   7.448   7.384   6.176
19323WAT      O58210   0.850   6.081   5.614
19323WAT     H158211   0.923   6.141   5.581
19323WAT     H258212   0.807   6.035   5.536
19324WAT      O58213   9.434   9.215   8.662
19324WAT     H158214   9.396   9.303   8.634
19324WAT     H258215   9.457   9.218   8.759
19325WAT      O58216   6.705   5.435   0.682
19325WAT     H158217   6.798   5.407   0.707
19325WAT     H258218   6.648   5.353   0.670
19326WAT      O58219   6.396   7.136   8.886
19326WAT     H158220   6.393   7.183   8.798
19326WAT     H258221   6.488   7.099   8.901
19327WAT      O58222   1.430   4.710   5.551
19327WAT     H158223   1.507   4.687   5.492
19327WAT     H258224   1.422   4.641   5.624
19328WAT      O58225   0.953   0.188   7.788
19328WAT     H158226   0.964   0.163   7.884
19328WAT     H258227   0.871   0.245   7.778
19329WAT      O58228   7.111   2.046   6.492
19329WAT     H158229   7.158   2.094   6.566
19329WAT     H258230   7.178   2.005   6.430
19330WAT      O58231   1.363   7.094   7.498
19330WAT     H158232   1.429   7.115   7.570
19330WAT     H258233   1.282   7.051   7.539
19331WAT      O58234   0.872   3.731   5.928
19331WAT     H158235   0.821   3.677   5.860
19331WAT     H258236   0.822   3.815   5.948
19332WAT      O58237   2.053   2.346   8.862
19332WAT     H158238   1.957   2.335   8.837
19332WAT     H258239   2.107   2.273   8.821
19333WAT      O58240   9.564   2.236   6.193
19333WAT     H158241   9.526   2.326   6.171
19333WAT     H258242   9.663   2.245   6.208
19334WAT      O58243   6.340   7.988   5.617
19334WAT     H158244   6.390   7.998   5.703
19334WAT     H258245   6.253   7.942   5.634
19335WAT      O58246   2.980   7.747   9.162
19335WAT     H158247   2.930   7.811   9.219
19335WAT     H258248   2.955   7.654   9.185
19336WAT      O58249   5.241   1.807   2.343
19336WAT     H158250   5.142   1.820   2.352
19336WAT     H258251   5.274   1.748   2.417
19337WAT      O58252   0.798   9.381   6.622
19337WAT     H158253   0.811   9.427   6.535
19337WAT     H258254   0.747   9.296   6.608
19338WAT      O58255   6.641   2.517   7.545
19338WAT     H158256   6.738   2.510   7.569
19338WAT     H258257   6.587   2.530   7.629
19339WAT      O58258   2.972   3.557   8.598
19339WAT     H158259   2.984   3.656   8.588
19339WAT     H258260   2.875   3.535   8.605
19340WAT      O58261   9.230   0.493   4.244
19340WAT     H158262   9.138   0.456   4.256
19340WAT     H258263   9.286   0.429   4.192
19341WAT      O58264   6.346   3.351   0.951
19341WAT     H158265   6.422   3.391   1.003
19341WAT     H258266   6.382   3.283   0.888
19342WAT      O58267   0.355   7.912   8.517
19342WAT     H158268   0.364   7.929   8.615
19342WAT     H258269   0.397   7.987   8.466
19343WAT      O58270   5.462   2.283   1.620
19343WAT     H158271   5.423   2.335   1.544
19343WAT     H258272   5.417   2.193   1.625
19344WAT      O58273   6.479   8.022   4.950
19344WAT     H158274   6.554   8.076   4.988
19344WAT     H258275   6.503   7.925   4.955
19345WAT      O58276   1.716   7.486   6.247
19345WAT     H158277   1.788   7.512   6.183
19345WAT     H258278   1.668   7.568   6.278
19346WAT      O58279   6.291   5.972   2.685
19346WAT     H158280   6.379   5.929   2.664
19346WAT     H258281   6.219   5.928   2.631
19347WAT      O58282   8.303   6.815   3.653
19347WAT     H158283   8.324   6.724   3.689
19347WAT     H258284   8.277   6.876   3.727
19348WAT      O58285   5.606   1.293   5.920
19348WAT     H158286   5.644   1.203   5.941
19348WAT     H258287   5.621   1.355   5.997
19349WAT      O58288   8.718   9.672   6.434
19349WAT     H158289   8.757   9.760   6.405
19349WAT     H258290   8.773   9.597   6.399
19350WAT      O58291   4.364   8.250   8.232
19350WAT     H158292   4.377   8.184   8.159
19350WAT     H258293   4.302   8.211   8.301
19351WAT      O58294   3.085   7.387   8.148
19351WAT     H158295   3.173   7.341   8.154
19351WAT     H258296   3.052   7.383   8.054
19352WAT      O58297   5.916   5.422   8.122
19352WAT     H158298   5.954   5.468   8.202
19352WAT     H258299   5.831   5.467   8.095
19353WAT      O58300   2.731   3.241   7.621
19353WAT     H158301   2.666   3.239   7.697
19353WAT     H258302   2.789   3.160   7.625
19354WAT      O58303   4.017   7.296   0.804
19354WAT     H158304   3.987   7.392   0.799
19354WAT     H258305   4.061   7.280   0.892
19355WAT      O58306   5.890   8.905   8.656
19355WAT     H158307   5.907   8.843   8.580
19355WAT     H258308   5.869   8.853   8.738
19356WAT      O58309   7.393   1.990   1.629
19356WAT     H158310   7.442   2.023   1.709
19356WAT     H258311   7.457   1.953   1.563
19357WAT      O58312   9.402   6.924   6.427
19357WAT     H158313   9.361   7.008   6.392
19357WAT     H258314   9.431   6.866   6.351
19358WAT      O58315   6.327   3.437   0.606
19358WAT     H158316   6.245   3.388   0.636
19358WAT     H258317   6.318   3.534   0.628
19359WAT      O58318   8.671   6.817   8.761
19359WAT     H158319   8.620   6.740   8.722
19359WAT     H258320   8.644   6.902   8.715
19360WAT      O58321   1.241   2.283   7.439
19360WAT     H158322   1.229   2.359   7.504
19360WAT     H258323   1.240   2.320   7.346
19361WAT      O58324   9.539   8.451   4.498
19361WAT     H158325   9.498   8.517   4.561
19361WAT     H258326   9.601   8.391   4.548
19362WAT      O58327   7.244   4.276   1.794
19362WAT     H158328   7.322   4.213   1.796
19362WAT     H258329   7.172   4.242   1.855
19363WAT      O58330   1.511   5.305   5.944
19363WAT     H158331   1.455   5.283   5.864
19363WAT     H258332   1.517   5.404   5.954
19364WAT      O58333   4.575   7.536   3.354
19364WAT     H158334   4.634   7.490   3.288
19364WAT     H258335   4.549   7.626   3.319
19365WAT      O58336   4.254   6.691   9.533
19365WAT     H158337   4.276   6.622   9.464
19365WAT     H258338   4.155   6.701   9.540
19366WAT      O58339   9.386   7.028   4.145
19366WAT     H158340   9.369   7.053   4.241
19366WAT     H258341   9.427   6.937   4.141
19367WAT      O58342   8.449   6.401   4.500
19367WAT     H158343   8.469   6.493   4.535
19367WAT     H258344   8.497   6.388   4.413
19368WAT      O58345   7.866   6.275   0.680
19368WAT     H158346   7.816   6.197   0.718
19368WAT     H258347   7.932   6.309   0.746
19369WAT      O58348   5.415   6.574   7.487
19369WAT     H158349   5.377   6.645   7.429
19369WAT     H258350   5.352   6.496   7.491
19370WAT      O58351   6.141   0.560   4.715
19370WAT     H158352   6.195   0.489   4.670
19370WAT     H258353   6.049   0.560   4.678
19371WAT      O58354   1.697   6.349   2.397
19371WAT     H158355   1.676   6.267   2.452
19371WAT     H258356   1.753   6.412   2.451
19372WAT      O58357   7.876   4.432   0.737
19372WAT     H158358   7.855   4.401   0.830
19372WAT     H258359   7.930   4.515   0.741
19373WAT      O58360   2.315   4.679   1.869
19373WAT     H158361   2.296   4.679   1.771
19373WAT     H258362   2.230   4.670   1.920
19374WAT      O58363   8.818   1.122   7.832
19374WAT     H158364   8.813   1.216   7.868
19374WAT     H258365   8.739   1.070   7.863
19375WAT      O58366   3.639   5.899   1.125
19375WAT     H158367   3.736   5.906   1.148
19375WAT     H258368   3.620   5.953   1.044
19376WAT      O58369   4.171   6.581   4.523
19376WAT     H158370   4.269   6.568   4.510
19376WAT     H258371   4.150   6.679   4.522
19377WAT      O58372   8.981   1.063   9.135
19377WAT     H158373   9.022   0.987   9.185
19377WAT     H258374   8.914   1.028   9.069
19378WAT      O58375   0.573   2.591   9.483
19378WAT     H158376   0.507   2.566   9.554
19378WAT     H258377   0.559   2.532   9.403
19379WAT      O58378   3.675   8.278   0.531
19379WAT     H158379   3.663   8.238   0.440
19379WAT     H258380   3.750   8.231   0.578
19380WAT      O58381   1.420   4.886   3.734
19380WAT     H158382   1.440   4.961   3.670
19380WAT     H258383   1.434   4.798   3.687
19381WAT      O58384   3.766   1.193   2.617
19381WAT     H158385   3.862   1.206   2.593
19381WAT     H258386   3.742   1.253   2.693
19382WAT      O58387   8.889   4.491   6.807
19382WAT     H158388   8.856   4.585   6.805
19382WAT     H258389   8.849   4.443   6.885
19383WAT      O58390   4.823   7.562   2.157
19383WAT     H158391   4.794   7.628   2.226
19383WAT     H258392   4.745   7.503   2.133
19384WAT      O58393   8.855   7.421   1.852
19384WAT     H158394   8.946   7.405   1.890
19384WAT     H258395   8.817   7.335   1.818
19385WAT      O58396   6.986   6.544   5.513
19385WAT     H158397   6.952   6.513   5.602
19385WAT     H258398   7.026   6.466   5.464
19386WAT      O58399   1.809   4.309   6.877
19386WAT     H158400   1.748   4.366   6.821
19386WAT     H258401   1.786   4.320   6.973
19387WAT      O58402   4.523   7.672   1.739
19387WAT     H158403   4.563   7.739   1.677
19387WAT     H258404   4.478   7.719   1.815
19388WAT      O58405   8.191   5.727   2.397
19388WAT     H158406   8.269   5.783   2.371
19388WAT     H258407   8.117   5.739   2.330
19389WAT      O58408   0.563   6.097   0.418
19389WAT     H158409   0.541   6.000   0.429
19389WAT     H258410   0.532   6.130   0.329
19390WAT      O58411   9.791   7.697   9.731
19390WAT     H158412   9.712   7.730   9.679
19390WAT     H258413   9.846   7.637   9.673
19391WAT      O58414   1.646   3.955   9.526
19391WAT     H158415   1.669   3.863   9.559
19391WAT     H258416   1.709   3.980   9.453
19392WAT      O58417   0.997   8.650   3.186
19392WAT     H158418   1.081   8.670   3.137
19392WAT     H258419   1.018   8.629   3.282
19393WAT      O58420   3.104   4.475   0.052
19393WAT     H158421   3.055   4.560   0.036
19393WAT     H258422   3.104   4.420  -0.031
19394WAT      O58423   7.306   6.477   1.234
19394WAT     H158424   7.325   6.405   1.168
19394WAT     H258425   7.310   6.566   1.189
19395WAT      O58426   7.830   6.860   0.102
19395WAT     H158427   7.886   6.807   0.165
19395WAT     H258428   7.827   6.814   0.013
19396WAT      O58429   6.769   6.680   5.842
19396WAT     H158430   6.841   6.664   5.911
19396WAT     H258431   6.788   6.624   5.762
19397WAT      O58432   0.888   6.280   3.361
19397WAT     H158433   0.796   6.252   3.387
19397WAT     H258434   0.885   6.330   3.274
19398WAT      O58435   3.949   0.939   0.551
19398WAT     H158436   3.869   0.991   0.521
19398WAT     H258437   3.919   0.864   0.611
19399WAT      O58438   5.443   6.164   7.241
19399WAT     H158439   5.404   6.158   7.333
19399WAT     H258440   5.392   6.230   7.186
19400WAT      O58441   4.831   6.839   3.893
19400WAT     H158442   4.876   6.923   3.861
19400WAT     H258443   4.852   6.825   3.990
19401WAT      O58444   7.053   0.580   5.428
19401WAT     H158445   6.989   0.576   5.350
19401WAT     H258446   7.037   0.502   5.487
19402WAT      O58447   7.702   1.376   1.447
19402WAT     H158448   7.688   1.468   1.484
19402WAT     H258449   7.794   1.345   1.469
19403WAT      O58450   1.136   2.105   5.487
19403WAT     H158451   1.073   2.166   5.535
19403WAT     H258452   1.201   2.067   5.552
19404WAT      O58453   4.697   7.836   4.974
19404WAT     H158454   4.684   7.771   4.899
19404WAT     H258455   4.789   7.875   4.970
19405WAT      O58456   7.409   8.316   6.998
19405WAT     H158457   7.385   8.219   6.994
19405WAT     H258458   7.486   8.334   6.937
19406WAT      O58459   3.624   7.131   8.958
19406WAT     H158460   3.612   7.152   9.055
19406WAT     H258461   3.692   7.058   8.948
19407WAT      O58462   4.090   2.045   1.231
19407WAT     H158463   4.002   2.078   1.267
19407WAT     H258464   4.097   2.069   1.134
19408WAT      O58465   4.697   7.723   2.982
19408WAT     H158466   4.689   7.796   2.914
19408WAT     H258467   4.640   7.745   3.061
19409WAT      O58468   0.646   5.010   9.325
19409WAT     H158469   0.562   4.963   9.296
19409WAT     H258470   0.710   4.943   9.363
19410WAT      O58471   2.655   4.682   4.889
19410WAT     H158472   2.700   4.606   4.842
19410WAT     H258473   2.722   4.752   4.912
19411WAT      O58474   9.735   1.098   9.375
19411WAT     H158475   9.699   1.191   9.366
19411WAT     H258476   9.661   1.036   9.402
19412WAT      O58477   2.936   2.294   4.441
19412WAT     H158478   3.003   2.354   4.485
19412WAT     H258479   2.844   2.319   4.472
19413WAT      O58480   4.314   6.384   0.660
19413WAT     H158481   4.269   6.350   0.742
19413WAT     H258482   4.343   6.307   0.603
19414WAT      O58483   8.020   8.680   5.832
19414WAT     H158484   8.026   8.606   5.899
19414WAT     H258485   7.926   8.712   5.826
19415WAT      O58486   8.287   2.186   5.413
19415WAT     H158487   8.342   2.269   5.415
19415WAT     H258488   8.277   2.151   5.506
19416WAT      O58489   9.004   7.008   4.731
19416WAT     H158490   8.999   6.908   4.724
19416WAT     H258491   8.956   7.038   4.814
19417WAT      O58492   1.777   2.522   6.140
19417WAT     H158493   1.864   2.560   6.108
19417WAT     H258494   1.780   2.422   6.135
19418WAT      O58495   8.134   7.566   9.572
19418WAT     H158496   8.146   7.528   9.480
19418WAT     H258497   8.053   7.625   9.572
19419WAT      O58498   8.669   7.678   1.428
19419WAT     H158499   8.713   7.695   1.516
19419WAT     H258500   8.579   7.722   1.427
19420WAT      O58501   3.005   2.537   8.975
19420WAT     H158502   2.922   2.591   8.990
19420WAT     H258503   3.066   2.549   9.054
19421WAT      O58504   7.364   6.735   1.115
19421WAT     H158505   7.438   6.777   1.169
19421WAT     H258506   7.401   6.704   1.027
19422WAT      O58507   1.404   3.010   2.195
19422WAT     H158508   1.319   3.062   2.199
19422WAT     H258509   1.383   2.914   2.176
19423WAT      O58510   7.137   6.688   7.419
19423WAT     H158511   7.161   6.778   7.456
19423WAT     H258512   7.050   6.694   7.370
19424WAT      O58513   4.139   9.096   7.104
19424WAT     H158514   4.123   9.109   7.202
19424WAT     H258515   4.231   9.059   7.090
19425WAT      O58516   2.146   3.429   2.393
19425WAT     H158517   2.049   3.427   2.415
19425WAT     H258518   2.159   3.396   2.299
19426WAT      O58519   6.102   7.147   0.234
19426WAT     H158520   6.009   7.184   0.241
19426WAT     H258521   6.131   7.150   0.138
19427WAT      O58522   3.960   4.038   6.683
19427WAT     H158523   4.032   4.032   6.615
19427WAT     H258524   3.994   4.007   6.772
19428WAT      O58525   5.656   9.840   8.912
19428WAT     H158526   5.622   9.811   8.823
19428WAT     H258527   5.726   9.776   8.944
19429WAT      O58528   3.230   5.313   2.905
19429WAT     H158529   3.328   5.292   2.898
19429WAT     H258530   3.197   5.345   2.816
19430WAT      O58531   9.124   8.590   9.633
19430WAT     H158532   9.206   8.596   9.691
19430WAT     H258533   9.084   8.499   9.641
19431WAT      O58534   0.220   0.526   2.444
19431WAT     H158535   0.218   0.550   2.347
19431WAT     H258536   0.245   0.607   2.498
19432WAT      O58537   5.372   3.739   7.826
19432WAT     H158538   5.459   3.780   7.798
19432WAT     H258539   5.356   3.656   7.772
19433WAT      O58540   9.052   7.659   0.593
19433WAT     H158541   8.985   7.653   0.518
19433WAT     H258542   9.144   7.647   0.556
19434WAT      O58543   9.063   4.525   7.305
19434WAT     H158544   8.972   4.516   7.265
19434WAT     H258545   9.056   4.571   7.393
19435WAT      O58546   1.101   4.832   5.841
19435WAT     H158547   1.198   4.813   5.823
19435WAT     H258548   1.080   4.815   5.937
19436WAT      O58549   5.846   6.689   8.969
19436WAT     H158550   5.760   6.703   8.920
19436WAT     H258551   5.876   6.594   8.958
19437WAT      O58552   2.011   7.058   3.948
19437WAT     H158553   1.945   6.983   3.950
19437WAT     H258554   1.984   7.124   3.878
19438WAT      O58555   9.706   8.893   8.859
19438WAT     H158556   9.780   8.826   8.866
19438WAT     H258557   9.636   8.859   8.797
19439WAT      O58558   2.416   1.267   6.390
19439WAT     H158559   2.413   1.358   6.349
19439WAT     H258560   2.511   1.243   6.412
19440WAT      O58561   1.083   5.381   3.509
19440WAT     H158562   1.122   5.369   3.600
19440WAT     H258563   1.003   5.322   3.499
19441WAT      O58564   9.799   2.063   2.244
19441WAT     H158565   9.894   2.086   2.264
19441WAT     H258566   9.784   2.062   2.145
19442WAT      O58567   6.087   6.791   7.019
19442WAT     H158568   6.068   6.869   7.078
19442WAT     H258569   6.028   6.715   7.044
19443WAT      O58570   0.504   5.890   1.385
19443WAT     H158571   0.502   5.805   1.439
19443WAT     H258572   0.445   5.958   1.428
19444WAT      O58573   4.656   3.034   1.245
19444WAT     H158574   4.599   2.959   1.210
19444WAT     H258575   4.732   2.996   1.298
19445WAT      O58576   7.259   7.622   9.176
19445WAT     H158577   7.188   7.613   9.246
19445WAT     H258578   7.349   7.624   9.221
19446WAT      O58579   9.890   3.050   4.385
19446WAT     H158580   9.873   3.034   4.482
19446WAT     H258581   9.804   3.039   4.334
19447WAT      O58582   2.057   4.560   4.439
19447WAT     H158583   2.127   4.489   4.431
19447WAT     H258584   2.043   4.602   4.350
19448WAT      O58585   5.019   6.341   9.836
19448WAT     H158586   4.947   6.277   9.809
19448WAT     H258587   5.021   6.348   9.936
19449WAT      O58588   5.303   5.264   6.568
19449WAT     H158589   5.354   5.290   6.651
19449WAT     H258590   5.209   5.242   6.593
19450WAT      O58591   3.282   1.638   3.783
19450WAT     H158592   3.368   1.668   3.823
19450WAT     H258593   3.264   1.689   3.699
19451WAT      O58594   9.405   2.984   8.754
19451WAT     H158595   9.455   2.908   8.713
19451WAT     H258596   9.468   3.040   8.808
19452WAT      O58597   3.273   8.835   5.603
19452WAT     H158598   3.277   8.902   5.677
19452WAT     H258599   3.341   8.763   5.620
19453WAT      O58600   2.964   9.703   7.836
19453WAT     H158601   3.015   9.628   7.877
19453WAT     H258602   2.892   9.667   7.778
19454WAT      O58603   3.949   0.249   2.902
19454WAT     H158604   3.900   0.241   2.814
19454WAT     H258605   3.948   0.160   2.948
19455WAT      O58606   7.587   3.796   8.145
19455WAT     H158607   7.510   3.752   8.193
19455WAT     H258608   7.670   3.784   8.199
19456WAT      O58609   7.497   0.262   7.710
19456WAT     H158610   7.487   0.325   7.633
19456WAT     H258611   7.413   0.208   7.719
19457WAT      O58612   0.541   0.722   7.394
19457WAT     H158613   0.459   0.669   7.369
19457WAT     H258614   0.577   0.768   7.313
19458WAT      O58615   4.275   9.429   7.563
19458WAT     H158616   4.335   9.509   7.570
19458WAT     H258617   4.190   9.446   7.612
19459WAT      O58618   6.664   4.024   8.978
19459WAT     H158619   6.674   3.993   9.072
19459WAT     H258620   6.646   4.122   8.976
19460WAT      O58621   8.267   4.638   5.196
19460WAT     H158622   8.251   4.664   5.101
19460WAT     H258623   8.196   4.575   5.226
19461WAT      O58624   4.846   8.032   4.703
19461WAT     H158625   4.872   8.057   4.796
19461WAT     H258626   4.890   7.946   4.677
19462WAT      O58627   4.743   0.669   0.702
19462WAT     H158628   4.663   0.710   0.747
19462WAT     H258629   4.739   0.569   0.712
19463WAT      O58630   7.123   2.595   7.073
19463WAT     H158631   7.177   2.667   7.116
19463WAT     H258632   7.116   2.612   6.975
19464WAT      O58633   1.820   1.581   9.298
19464WAT     H158634   1.841   1.487   9.272
19464WAT     H258635   1.758   1.582   9.376
19465WAT      O58636   3.242   3.859   3.297
19465WAT     H158637   3.249   3.958   3.282
19465WAT     H258638   3.332   3.817   3.284
19466WAT      O58639   9.172   6.695   8.244
19466WAT     H158640   9.232   6.669   8.319
19466WAT     H258641   9.077   6.691   8.274
19467WAT      O58642   1.844   3.028   3.052
19467WAT     H158643   1.911   3.093   3.087
19467WAT     H258644   1.889   2.967   2.986
19468WAT      O58645   3.054   7.696   9.795
19468WAT     H158646   3.048   7.745   9.708
19468WAT     H258647   2.999   7.743   9.864
19469WAT      O58648   8.919   7.622   7.691
19469WAT     H158649   8.943   7.526   7.706
19469WAT     H258650   8.964   7.678   7.760
19470WAT      O58651   5.745   6.937   0.973
19470WAT     H158652   5.825   6.972   1.022
19470WAT     H258653   5.773   6.864   0.911
19471WAT      O58654   5.719   7.400   8.470
19471WAT     H158655   5.772   7.433   8.391
19471WAT     H258656   5.748   7.448   8.552
19472WAT      O58657   8.458   8.375   1.948
19472WAT     H158658   8.443   8.403   2.043
19472WAT     H258659   8.394   8.423   1.889
19473WAT      O58660   7.041   0.294   9.104
19473WAT     H158661   7.135   0.269   9.127
19473WAT     H258662   6.999   0.341   9.182
19474WAT      O58663   4.337   1.526   5.901
19474WAT     H158664   4.354   1.623   5.882
19474WAT     H258665   4.238   1.509   5.905
19475WAT      O58666   3.006   7.248   2.341
19475WAT     H158667   2.966   7.159   2.362
19475WAT     H258668   3.061   7.280   2.418
19476WAT      O58669   6.947   2.391   3.050
19476WAT     H158670   6.862   2.354   3.013
19476WAT     H258671   6.970   2.342   3.135
19477WAT      O58672   8.091   3.139   6.212
19477WAT     H158673   8.082   3.215   6.276
19477WAT     H258674   8.144   3.065   6.255
19478WAT      O58675   5.919   8.647   6.852
19478WAT     H158676   5.977   8.624   6.930
19478WAT     H258677   5.827   8.613   6.868
19479WAT      O58678   5.283   4.510   1.405
19479WAT     H158679   5.189   4.513   1.370
19479WAT     H258680   5.340   4.458   1.342
19480WAT      O58681   0.631   1.678   2.133
19480WAT     H158682   0.677   1.593   2.158
19480WAT     H258683   0.672   1.715   2.050
19481WAT      O58684   3.852   0.967   9.219
19481WAT     H158685   3.867   1.012   9.307
19481WAT     H258686   3.921   0.999   9.153
19482WAT      O58687   5.831   9.326   7.152
19482WAT     H158688   5.818   9.406   7.093
19482WAT     H258689   5.917   9.334   7.202
19483WAT      O58690   6.411   1.604   0.018
19483WAT     H158691   6.319   1.571   0.037
19483WAT     H258692   6.473   1.527   0.007
19484WAT      O58693   4.676   6.606   2.160
19484WAT     H158694   4.661   6.547   2.080
19484WAT     H258695   4.766   6.649   2.152
19485WAT      O58696   3.741   8.710   0.112
19485WAT     H158697   3.763   8.685   0.207
19485WAT     H258698   3.651   8.753   0.108
19486WAT      O58699   6.422   4.291   9.293
19486WAT     H158700   6.343   4.317   9.237
19486WAT     H258701   6.441   4.193   9.280
19487WAT      O58702   5.699   0.013   1.615
19487WAT     H158703   5.667  -0.023   1.703
19487WAT     H258704   5.622   0.023   1.553
19488WAT      O58705   4.211   3.629   3.541
19488WAT     H158706   4.266   3.651   3.460
19488WAT     H258707   4.192   3.713   3.592
19489WAT      O58708   1.478   1.365   8.151
19489WAT     H158709   1.506   1.338   8.243
19489WAT     H258710   1.387   1.329   8.131
19490WAT      O58711   2.288   0.742   8.742
19490WAT     H158712   2.253   0.704   8.827
19490WAT     H258713   2.329   0.669   8.688
19491WAT      O58714   2.191   9.398   7.043
19491WAT     H158715   2.242   9.417   6.959
19491WAT     H258716   2.254   9.387   7.119
19492WAT      O58717   0.525   9.198   1.354
19492WAT     H158718   0.438   9.248   1.354
19492WAT     H258719   0.506   9.100   1.361
19493WAT      O58720   1.433   0.757   6.561
19493WAT     H158721   1.349   0.784   6.513
19493WAT     H258722   1.463   0.667   6.528
19494WAT      O58723   8.739   6.889   0.918
19494WAT     H158724   8.662   6.907   0.856
19494WAT     H258725   8.740   6.958   0.990
19495WAT      O58726   6.408   0.198   6.568
19495WAT     H158727   6.468   0.204   6.647
19495WAT     H258728   6.369   0.106   6.561
19496WAT      O58729   7.861   0.146   1.331
19496WAT     H158730   7.799   0.224   1.320
19496WAT     H258731   7.913   0.132   1.247
19497WAT      O58732   1.709   2.255   6.512
19497WAT     H158733   1.678   2.212   6.427
19497WAT     H258734   1.787   2.205   6.548
19498WAT      O58735   9.660   4.621   6.817
19498WAT     H158736   9.725   4.580   6.880
19498WAT     H258737   9.585   4.557   6.800
19499WAT      O58738   5.976   3.902   5.550
19499WAT     H158739   5.929   3.954   5.479
19499WAT     H258740   6.049   3.958   5.590
19500WAT      O58741   7.238   4.343   9.177
19500WAT     H158742   7.194   4.289   9.105
19500WAT     H258743   7.228   4.440   9.156
19501WAT      O58744   5.562   8.086   4.738
19501WAT     H158745   5.468   8.108   4.713
19501WAT     H258746   5.571   8.087   4.838
19502WAT      O58747   4.546   7.335   6.484
19502WAT     H158748   4.629   7.386   6.504
19502WAT     H258749   4.554   7.242   6.520
19503WAT      O58750   6.840   8.406   1.126
19503WAT     H158751   6.892   8.366   1.050
19503WAT     H258752   6.745   8.417   1.099
19504WAT      O58753   8.394   0.106   1.001
19504WAT     H158754   8.461   0.174   1.028
19504WAT     H258755   8.442   0.023   0.969
19505WAT      O58756   7.157   5.787   8.477
19505WAT     H158757   7.116   5.841   8.550
19505WAT     H258758   7.194   5.848   8.407
19506WAT      O58759   5.800   7.992   1.020
19506WAT     H158760   5.856   8.073   1.038
19506WAT     H258761   5.815   7.924   1.092
19507WAT      O58762   0.049   4.982   8.973
19507WAT     H158763   0.018   5.045   9.044
19507WAT     H258764   0.135   5.015   8.934
19508WAT      O58765   8.253   7.184   8.760
19508WAT     H158766   8.201   7.263   8.791
19508WAT     H258767   8.317   7.156   8.832
19509WAT      O58768   8.188   7.868   4.249
19509WAT     H158769   8.158   7.847   4.342
19509WAT     H258770   8.139   7.948   4.215
19510WAT      O58771   6.166   8.777   5.291
19510WAT     H158772   6.176   8.690   5.339
19510WAT     H258773   6.074   8.813   5.308
19511WAT      O58774   9.439   5.255   3.637
19511WAT     H158775   9.497   5.176   3.658
19511WAT     H258776   9.372   5.267   3.710
19512WAT      O58777   8.827   4.073   0.442
19512WAT     H158778   8.851   3.981   0.410
19512WAT     H258779   8.888   4.100   0.516
19513WAT      O58780   3.640   9.597   5.706
19513WAT     H158781   3.714   9.643   5.756
19513WAT     H258782   3.670   9.505   5.680
19514WAT      O58783   7.057   3.246   3.456
19514WAT     H158784   7.050   3.335   3.410
19514WAT     H258785   6.971   3.226   3.503
19515WAT      O58786   2.946   4.736   4.622
19515WAT     H158787   2.949   4.765   4.526
19515WAT     H258788   2.978   4.810   4.681
19516WAT      O58789   8.069   0.791   8.302
19516WAT     H158790   8.023   0.818   8.218
19516WAT     H258791   8.123   0.708   8.285
19517WAT      O58792   7.934   4.629   2.225
19517WAT     H158793   7.980   4.552   2.180
19517WAT     H258794   7.965   4.634   2.320
19518WAT      O58795   2.074   6.968   9.850
19518WAT     H158796   2.051   7.054   9.804
19518WAT     H258797   2.173   6.953   9.846
19519WAT      O58798   1.477   1.806   8.761
19519WAT     H158799   1.495   1.709   8.746
19519WAT     H258800   1.555   1.860   8.729
19520WAT      O58801   4.035   2.226   0.138
19520WAT     H158802   4.036   2.139   0.188
19520WAT     H258803   4.089   2.293   0.188
19521WAT      O58804   2.751   4.564   6.926
19521WAT     H158805   2.699   4.500   6.871
19521WAT     H258806   2.800   4.628   6.867
19522WAT      O58807   8.028   1.956   0.079
19522WAT     H158808   8.030   1.980  -0.019
19522WAT     H258809   7.943   1.908   0.099
19523WAT      O58810   2.193   1.946   7.009
19523WAT     H158811   2.109   1.991   7.037
19523WAT     H258812   2.246   2.008   6.951
19524WAT      O58813   2.334   3.748   1.025
19524WAT     H158814   2.289   3.666   1.063
19524WAT     H258815   2.361   3.730   0.931
19525WAT      O58816   8.445   1.934   0.495
19525WAT     H158817   8.499   1.995   0.436
19525WAT     H258818   8.429   1.848   0.447
19526WAT      O58819   8.096   7.878   1.255
19526WAT     H158820   8.141   7.817   1.321
19526WAT     H258821   8.164   7.917   1.194
19527WAT      O58822   4.111   5.571   2.377
19527WAT     H158823   4.177   5.543   2.446
19527WAT     H258824   4.071   5.490   2.333
19528WAT      O58825   5.448   0.887   1.426
19528WAT     H158826   5.509   0.879   1.504
19528WAT     H258827   5.395   0.802   1.416
19529WAT      O58828   6.351   4.068   0.828
19529WAT     H158829   6.277   4.136   0.821
19529WAT     H258830   6.417   4.084   0.754
19530WAT      O58831   7.312   6.546   5.292
19530WAT     H158832   7.323   6.453   5.328
19530WAT     H258833   7.305   6.542   5.192
19531WAT      O58834   8.840   6.975   0.617
19531WAT     H158835   8.879   6.900   0.565
19531WAT     H258836   8.909   7.011   0.681
19532WAT      O58837   2.095   5.483   0.994
19532WAT     H158838   2.133   5.415   1.058
19532WAT     H258839   1.997   5.469   0.985
19533WAT      O58840   8.415   1.722   3.118
19533WAT     H158841   8.420   1.736   3.217
19533WAT     H258842   8.321   1.700   3.092
19534WAT      O58843   9.341   9.418   2.097
19534WAT     H158844   9.397   9.423   2.180
19534WAT     H258845   9.245   9.431   2.120
19535WAT      O58846   4.677   3.384   6.772
19535WAT     H158847   4.632   3.440   6.702
19535WAT     H258848   4.614   3.315   6.806
19536WAT      O58849   9.739   0.578   9.472
19536WAT     H158850   9.717   0.547   9.565
19536WAT     H258851   9.777   0.670   9.477
19537WAT      O58852   8.189   9.603   3.521
19537WAT     H158853   8.273   9.611   3.469
19537WAT     H258854   8.158   9.694   3.548
19538WAT      O58855   2.448   6.550   6.810
19538WAT     H158856   2.362   6.586   6.844
19538WAT     H258857   2.480   6.477   6.870
19539WAT      O58858   2.999   8.165   3.005
19539WAT     H158859   3.048   8.147   3.091
19539WAT     H258860   3.056   8.138   2.928
19540WAT      O58861   5.816   2.047   8.898
19540WAT     H158862   5.810   2.017   8.803
19540WAT     H258863   5.778   2.139   8.906
19541WAT      O58864   3.440   3.507   4.154
19541WAT     H158865   3.421   3.504   4.252
19541WAT     H258866   3.461   3.415   4.122
19542WAT      O58867   2.535   6.047   7.573
19542WAT     H158868   2.445   6.060   7.612
19542WAT     H258869   2.594   6.000   7.638
19543WAT      O58870   6.829   0.197   6.370
19543WAT     H158871   6.850   0.214   6.274
19543WAT     H258872   6.795   0.280   6.413
19544WAT      O58873   6.871   0.620   2.172
19544WAT     H158874   6.804   0.587   2.106
19544WAT     H258875   6.945   0.553   2.181
19545WAT      O58876   5.849   3.157   9.156
19545WAT     H158877   5.914   3.110   9.216
19545WAT     H258878   5.783   3.206   9.213
19546WAT      O58879   7.321   1.492   3.614
19546WAT     H158880   7.258   1.482   3.691
19546WAT     H258881   7.271   1.533   3.537
19547WAT      O58882   1.026   0.217   4.847
19547WAT     H158883   0.949   0.244   4.788
19547WAT     H258884   1.026   0.273   4.930
19548WAT      O58885   5.201   7.196   5.811
19548WAT     H158886   5.140   7.117   5.822
19548WAT     H258887   5.155   7.279   5.842
19549WAT      O58888   3.796   5.227   2.428
19549WAT     H158889   3.701   5.256   2.435
19549WAT     H258890   3.807   5.170   2.346
19550WAT      O58891   6.002   4.432   8.500
19550WAT     H158892   6.080   4.460   8.556
19550WAT     H258893   5.917   4.445   8.551
19551WAT      O58894   0.796   2.179   9.242
19551WAT     H158895   0.833   2.253   9.298
19551WAT     H258896   0.801   2.204   9.146
19552WAT      O58897   3.253   2.279   4.093
19552WAT     H158898   3.250   2.305   3.997
19552WAT     H258899   3.343   2.298   4.131
19553WAT      O58900   1.674   9.021   7.718
19553WAT     H158901   1.622   9.059   7.794
19553WAT     H258902   1.627   9.041   7.632
19554WAT      O58903   4.240   9.228   1.374
19554WAT     H158904   4.154   9.187   1.406
19554WAT     H258905   4.232   9.249   1.277
19555WAT      O58906   5.636   5.629   9.677
19555WAT     H158907   5.562   5.640   9.611
19555WAT     H258908   5.652   5.532   9.693
19556WAT      O58909   4.072   3.835   3.341
19556WAT     H158910   4.076   3.925   3.383
19556WAT     H258911   4.088   3.844   3.242
19557WAT      O58912   8.766   1.143   3.074
19557WAT     H158913   8.729   1.069   3.131
19557WAT     H258914   8.863   1.155   3.096
19558WAT      O58915   4.426   7.969   7.836
19558WAT     H158916   4.439   7.875   7.804
19558WAT     H258917   4.514   8.015   7.842
19559WAT      O58918   3.187   8.976   1.417
19559WAT     H158919   3.283   8.990   1.389
19559WAT     H258920   3.184   8.910   1.492
19560WAT      O58921   2.295   7.473   2.591
19560WAT     H158922   2.363   7.433   2.530
19560WAT     H258923   2.275   7.409   2.665
19561WAT      O58924   4.388   4.440   8.273
19561WAT     H158925   4.379   4.426   8.174
19561WAT     H258926   4.439   4.525   8.290
19562WAT      O58927   5.230   7.515   5.214
19562WAT     H158928   5.272   7.437   5.260
19562WAT     H258929   5.178   7.569   5.281
19563WAT      O58930   2.499   0.336   7.235
19563WAT     H158931   2.539   0.299   7.319
19563WAT     H258932   2.400   0.349   7.248
19564WAT      O58933   8.641   8.178   6.766
19564WAT     H158934   8.560   8.217   6.723
19564WAT     H258935   8.688   8.118   6.702
19565WAT      O58936   2.798   6.238   1.467
19565WAT     H158937   2.707   6.269   1.494
19565WAT     H258938   2.815   6.148   1.505
19566WAT      O58939   7.317   6.400   6.589
19566WAT     H158940   7.281   6.493   6.590
19566WAT     H258941   7.416   6.402   6.606
19567WAT      O58942   3.893   6.282   7.859
19567WAT     H158943   3.871   6.351   7.791
19567WAT     H258944   3.990   6.258   7.854
19568WAT      O58945   3.698   3.704   0.615
19568WAT     H158946   3.671   3.612   0.646
19568WAT     H258947   3.716   3.702   0.516
19569WAT      O58948   0.869   5.536   6.736
19569WAT     H158949   0.771   5.522   6.747
19569WAT     H258950   0.887   5.631   6.714
19570WAT      O58951   0.047   8.224   9.531
19570WAT     H158952   0.073   8.149   9.592
19570WAT     H258953   0.001   8.186   9.450
19571WAT      O58954   3.823   0.982   2.966
19571WAT     H158955   3.787   0.968   2.874
19571WAT     H258956   3.900   1.046   2.963
19572WAT      O58957   0.331   4.809   4.474
19572WAT     H158958   0.237   4.777   4.457
19572WAT     H258959   0.342   4.901   4.436
19573WAT      O58960   8.820   9.536   0.853
19573WAT     H158961   8.856   9.628   0.867
19573WAT     H258962   8.861   9.496   0.771
19574WAT      O58963   9.789   5.444   0.594
19574WAT     H158964   9.802   5.451   0.495
19574WAT     H258965   9.695   5.467   0.617
19575WAT      O58966   1.207   5.479   9.117
19575WAT     H158967   1.137   5.521   9.175
19575WAT     H258968   1.297   5.503   9.153
19576WAT      O58969   1.779   5.419   7.073
19576WAT     H158970   1.831   5.408   7.158
19576WAT     H258971   1.774   5.331   7.026
19577WAT      O58972   3.996   5.198   3.961
19577WAT     H158973   4.090   5.228   3.944
19577WAT     H258974   3.990   5.099   3.951
19578WAT      O58975   9.175   0.655   2.192
19578WAT     H158976   9.118   0.691   2.118
19578WAT     H258977   9.131   0.575   2.232
19579WAT      O58978   3.693   4.663   9.400
19579WAT     H158979   3.720   4.758   9.413
19579WAT     H258980   3.727   4.631   9.312
19580WAT      O58981   9.150   4.846   5.332
19580WAT     H158982   9.223   4.781   5.349
19580WAT     H258983   9.069   4.798   5.299
19581WAT      O58984   4.364   5.282   6.700
19581WAT     H158985   4.428   5.204   6.704
19581WAT     H258986   4.415   5.365   6.676
19582WAT      O58987   7.374   2.617   8.798
19582WAT     H158988   7.413   2.567   8.876
19582WAT     H258989   7.439   2.613   8.721
19583WAT      O58990   0.491   8.220   8.534
19583WAT     H158991   0.551   8.299   8.518
19583WAT     H258992   0.465   8.217   8.630
19584WAT      O58993   5.175   3.343   7.328
19584WAT     H158994   5.090   3.384   7.294
19584WAT     H258995   5.234   3.415   7.364
19585WAT      O58996   7.079   3.984   2.570
19585WAT     H158997   7.156   3.920   2.579
19585WAT     H258998   7.100   4.069   2.619
19586WAT      O58999   2.873   6.554   2.383
19586WAT     H159000   2.952   6.547   2.443
19586WAT     H259001   2.811   6.625   2.417
19587WAT      O59002   8.590   9.491   9.438
19587WAT     H159003   8.503   9.465   9.481
19587WAT     H259004   8.663   9.490   9.507
19588WAT      O59005   6.023   9.132   1.124
19588WAT     H159006   5.990   9.161   1.214
19588WAT     H259007   5.996   9.037   1.108
19589WAT      O59008   6.822   9.324   4.369
19589WAT     H159009   6.842   9.300   4.464
19589WAT     H259010   6.724   9.340   4.358
19590WAT      O59011   1.612   9.480   9.282
19590WAT     H159012   1.685   9.543   9.253
19590WAT     H259013   1.633   9.445   9.373
19591WAT      O59014   7.587   8.297   6.097
19591WAT     H159015   7.499   8.250   6.088
19591WAT     H259016   7.656   8.248   6.044
19592WAT      O59017   4.648   6.817   3.717
19592WAT     H159018   4.644   6.908   3.677
19592WAT     H259019   4.721   6.812   3.785
19593WAT      O59020   6.501   3.711   8.333
19593WAT     H159021   6.440   3.632   8.334
19593WAT     H259022   6.460   3.785   8.386
19594WAT      O59023   2.322   8.049   7.727
19594WAT     H159024   2.274   8.040   7.814
19594WAT     H259025   2.339   8.146   7.708
19595WAT      O59026   0.156   6.327   2.664
19595WAT     H159027   0.210   6.407   2.639
19595WAT     H259028   0.084   6.353   2.728
19596WAT      O59029   7.150   3.186   7.752
19596WAT     H159030   7.244   3.216   7.739
19596WAT     H259031   7.125   3.125   7.677
19597WAT      O59032   5.013   8.818   9.585
19597WAT     H159033   5.081   8.746   9.599
19597WAT     H259034   4.941   8.785   9.525
19598WAT      O59035   9.480   4.385   3.384
19598WAT     H159036   9.568   4.352   3.420
19598WAT     H259037   9.459   4.474   3.424
19599WAT      O59038   3.855   6.485   0.718
19599WAT     H159039   3.892   6.542   0.791
19599WAT     H259040   3.922   6.479   0.644
19600WAT      O59041   3.413   1.084   4.470
19600WAT     H159042   3.482   1.156   4.461
19600WAT     H259043   3.361   1.098   4.555
19601WAT      O59044   7.104   7.918   7.283
19601WAT     H159045   7.010   7.944   7.260
19601WAT     H259046   7.128   7.833   7.236
19602WAT      O59047   9.117   0.452   8.704
19602WAT     H159048   9.022   0.465   8.678
19602WAT     H259049   9.177   0.500   8.640
19603WAT      O59050   3.537   4.684   5.069
19603WAT     H159051   3.590   4.600   5.052
19603WAT     H259052   3.561   4.753   5.001
19604WAT      O59053   9.259   2.937   0.858
19604WAT     H159054   9.331   2.907   0.921
19604WAT     H259055   9.185   2.980   0.910
19605WAT      O59056   1.819   6.355   7.992
19605WAT     H159057   1.863   6.387   7.908
19605WAT     H259058   1.888   6.337   8.061
19606WAT      O59059   7.496   8.292   5.526
19606WAT     H159060   7.397   8.306   5.530
19606WAT     H259061   7.537   8.316   5.614
19607WAT      O59062   1.207   8.108   3.545
19607WAT     H159063   1.301   8.103   3.579
19607WAT     H259064   1.143   8.095   3.620
19608WAT      O59065   0.083   4.232   1.120
19608WAT     H159066   0.016   4.181   1.066
19608WAT     H259067   0.045   4.250   1.211
19609WAT      O59068   5.473   6.796   7.847
19609WAT     H159069   5.392   6.759   7.801
19609WAT     H259070   5.465   6.780   7.946
19610WAT      O59071   8.344   3.532   2.505
19610WAT     H159072   8.248   3.519   2.482
19610WAT     H259073   8.365   3.482   2.590
19611WAT      O59074   8.828   3.510   1.282
19611WAT     H159075   8.745   3.561   1.258
19611WAT     H259076   8.821   3.416   1.249
19612WAT      O59077   9.610   4.814   2.604
19612WAT     H159078   9.700   4.785   2.636
19612WAT     H259079   9.580   4.755   2.529
19613WAT      O59080   9.289   6.448   8.885
19613WAT     H159081   9.207   6.496   8.855
19613WAT     H259082   9.349   6.433   8.807
19614WAT      O59083   5.103   3.414   3.942
19614WAT     H159084   5.184   3.373   3.983
19614WAT     H259085   5.086   3.504   3.983
19615WAT      O59086   9.800   2.353   1.172
19615WAT     H159087   9.852   2.268   1.178
19615WAT     H259088   9.707   2.334   1.141
19616WAT      O59089   5.009   4.230   6.916
19616WAT     H159090   4.946   4.163   6.877
19616WAT     H259091   4.970   4.321   6.908
19617WAT      O59092   5.713   2.260   1.712
19617WAT     H159093   5.775   2.226   1.641
19617WAT     H259094   5.628   2.291   1.669
19618WAT      O59095   6.434   9.666   2.860
19618WAT     H159096   6.398   9.599   2.795
19618WAT     H259097   6.404   9.642   2.953
19619WAT      O59098   3.421   8.266   1.458
19619WAT     H159099   3.322   8.264   1.449
19619WAT     H259100   3.448   8.220   1.543
19620WAT      O59101   7.837   1.134   4.182
19620WAT     H159102   7.841   1.200   4.106
19620WAT     H259103   7.752   1.082   4.176
19621WAT      O59104   1.034   5.023   8.238
19621WAT     H159105   1.020   4.933   8.281
19621WAT     H259106   0.970   5.033   8.162
19622WAT      O59107   1.506   2.733   9.383
19622WAT     H159108   1.503   2.789   9.466
19622WAT     H259109   1.583   2.669   9.388
19623WAT      O59110   3.066   6.163   3.396
19623WAT     H159111   3.003   6.223   3.444
19623WAT     H259112   3.029   6.070   3.394
19624WAT      O59113   7.466   7.636   7.746
19624WAT     H159114   7.515   7.627   7.659
19624WAT     H259115   7.481   7.554   7.801
19625WAT      O59116   6.159   3.284   8.983
19625WAT     H159117   6.179   3.372   8.940
19625WAT     H259118   6.086   3.238   8.932
19626WAT      O59119   2.255   4.540   8.293
19626WAT     H159120   2.210   4.466   8.244
19626WAT     H259121   2.193   4.618   8.300
19627WAT      O59122   7.946   0.254   3.002
19627WAT     H159123   7.918   0.232   2.908
19627WAT     H259124   7.989   0.174   3.043
19628WAT      O59125   1.641   0.036   6.206
19628WAT     H159126   1.723   0.086   6.179
19628WAT     H259127   1.573   0.100   6.242
19629WAT      O59128   6.979   0.727   6.763
19629WAT     H159129   6.978   0.737   6.664
19629WAT     H259130   6.924   0.799   6.804
19630WAT      O59131   0.482   7.906   2.962
19630WAT     H159132   0.463   7.906   3.060
19630WAT     H259133   0.543   7.982   2.940
19631WAT      O59134   5.752   5.088   9.052
19631WAT     H159135   5.656   5.104   9.074
19631WAT     H259136   5.785   5.009   9.103
19632WAT      O59137   0.749   4.491   7.518
19632WAT     H159138   0.736   4.422   7.446
19632WAT     H259139   0.703   4.576   7.490
19633WAT      O59140   3.835   1.911   5.171
19633WAT     H159141   3.904   1.852   5.128
19633WAT     H259142   3.764   1.854   5.211
19634WAT      O59143   5.079   6.002   8.329
19634WAT     H159144   5.066   6.025   8.425
19634WAT     H259145   5.011   5.934   8.301
19635WAT      O59146   7.409   1.122   2.439
19635WAT     H159147   7.437   1.142   2.533
19635WAT     H259148   7.485   1.141   2.377
19636WAT      O59149   7.774   7.409   5.353
19636WAT     H159150   7.691   7.440   5.399
19636WAT     H259151   7.783   7.456   5.266
19637WAT      O59152   0.168   3.277   3.709
19637WAT     H159153   0.070   3.256   3.707
19637WAT     H259154   0.208   3.239   3.793
19638WAT      O59155   3.652   1.167   3.125
19638WAT     H159156   3.721   1.135   3.190
19638WAT     H259157   3.639   1.099   3.053
19639WAT      O59158   6.059   6.022   8.324
19639WAT     H159159   6.138   6.004   8.265
19639WAT     H259160   5.975   6.019   8.269
19640WAT      O59161   6.916   8.509   4.522
19640WAT     H159162   6.873   8.599   4.514
19640WAT     H259163   6.970   8.505   4.605
19641WAT      O59164   6.541   7.979   1.122
19641WAT     H159165   6.635   8.002   1.149
19641WAT     H259166   6.525   7.881   1.138
19642WAT      O59167   1.434   4.186   8.651
19642WAT     H159168   1.417   4.197   8.749
19642WAT     H259169   1.433   4.089   8.628
19643WAT      O59170   8.353   4.818   5.369
19643WAT     H159171   8.320   4.742   5.313
19643WAT     H259172   8.392   4.888   5.310
19644WAT      O59173   3.404   9.658   4.160
19644WAT     H159174   3.391   9.755   4.181
19644WAT     H259175   3.400   9.604   4.244
19645WAT      O59176   6.664   0.449   4.546
19645WAT     H159177   6.580   0.451   4.601
19645WAT     H259178   6.707   0.539   4.547
19646WAT      O59179   5.717   0.450   1.086
19646WAT     H159180   5.643   0.429   1.150
19646WAT     H259181   5.792   0.493   1.136
19647WAT      O59182   2.948   4.052   0.840
19647WAT     H159183   3.007   4.019   0.766
19647WAT     H259184   2.923   3.976   0.899
19648WAT      O59185   3.042   9.548   3.516
19648WAT     H159186   3.040   9.638   3.473
19648WAT     H259187   2.951   9.525   3.552
19649WAT      O59188   1.853   6.948   9.148
19649WAT     H159189   1.816   6.922   9.059
19649WAT     H259190   1.941   6.903   9.162
19650WAT      O59191   1.211   5.133   5.061
19650WAT     H159192   1.241   5.214   5.010
19650WAT     H259193   1.175   5.161   5.150
19651WAT      O59194   2.159   2.487   9.091
19651WAT     H159195   2.121   2.438   9.012
19651WAT     H259196   2.120   2.579   9.095
19652WAT      O59197   1.562   7.525   1.305
19652WAT     H159198   1.495   7.567   1.245
19652WAT     H259199   1.522   7.511   1.396
19653WAT      O59200   3.786   7.477   8.096
19653WAT     H159201   3.781   7.451   7.999
19653WAT     H259202   3.740   7.407   8.151
19654WAT      O59203   2.278   3.228   7.498
19654WAT     H159204   2.222   3.305   7.469
19654WAT     H259205   2.287   3.230   7.598
19655WAT      O59206   2.006   6.231   8.448
19655WAT     H159207   1.930   6.165   8.450
19655WAT     H259208   1.986   6.306   8.511
19656WAT      O59209   9.611   6.698   8.468
19656WAT     H159210   9.666   6.737   8.542
19656WAT     H259211   9.647   6.609   8.443
19657WAT      O59212   9.223   8.403   4.665
19657WAT     H159213   9.294   8.445   4.721
19657WAT     H259214   9.183   8.471   4.604
19658WAT      O59215   5.814   5.858   4.739
19658WAT     H159216   5.821   5.778   4.798
19658WAT     H259217   5.849   5.939   4.787
19659WAT      O59218   8.732   3.113   7.762
19659WAT     H159219   8.782   3.050   7.822
19659WAT     H259220   8.635   3.088   7.761
19660WAT      O59221   1.410   7.497   1.571
19660WAT     H159222   1.362   7.568   1.519
19660WAT     H259223   1.401   7.516   1.669
19661WAT      O59224   6.563   9.136   6.594
19661WAT     H159225   6.605   9.168   6.679
19661WAT     H259226   6.464   9.136   6.604
19662WAT      O59227   6.741   4.170   9.223
19662WAT     H159228   6.712   4.265   9.227
19662WAT     H259229   6.672   4.112   9.266
19663WAT      O59230   4.607   0.162   8.984
19663WAT     H159231   4.615   0.258   9.011
19663WAT     H259232   4.697   0.118   8.993
19664WAT      O59233   5.772   4.417   8.650
19664WAT     H159234   5.709   4.435   8.575
19664WAT     H259235   5.721   4.384   8.729
19665WAT      O59236   2.205   0.335   0.083
19665WAT     H159237   2.146   0.367   0.157
19665WAT     H259238   2.187   0.238   0.065
19666WAT      O59239   4.819   0.237   5.414
19666WAT     H159240   4.855   0.254   5.506
19666WAT     H259241   4.726   0.202   5.420
19667WAT      O59242   1.736   0.458   5.032
19667WAT     H159243   1.832   0.434   5.048
19667WAT     H259244   1.690   0.470   5.119
19668WAT      O59245   8.115   5.630   1.909
19668WAT     H159246   8.076   5.650   1.999
19668WAT     H259247   8.047   5.650   1.838
19669WAT      O59248   0.889   6.476   7.295
19669WAT     H159249   0.861   6.562   7.253
19669WAT     H259250   0.986   6.459   7.277
19670WAT      O59251   1.290   4.168   2.611
19670WAT     H159252   1.268   4.217   2.526
19670WAT     H259253   1.266   4.226   2.689
19671WAT      O59254   4.273   8.161   5.013
19671WAT     H159255   4.344   8.092   5.023
19671WAT     H259256   4.306   8.233   4.953
19672WAT      O59257   5.372   1.509   6.980
19672WAT     H159258   5.330   1.514   7.070
19672WAT     H259259   5.367   1.599   6.936
19673WAT      O59260   4.114   5.992   1.643
19673WAT     H159261   4.046   6.046   1.692
19673WAT     H259262   4.115   5.899   1.681
19674WAT      O59263   3.985   6.882   2.740
19674WAT     H159264   3.900   6.897   2.691
19674WAT     H259265   4.059   6.935   2.697
19675WAT      O59266   9.209   3.725   9.316
19675WAT     H159267   9.138   3.668   9.275
19675WAT     H259268   9.299   3.689   9.291
19676WAT      O59269   1.717   7.818   5.435
19676WAT     H159270   1.763   7.777   5.514
19676WAT     H259271   1.696   7.746   5.368
19677WAT      O59272   2.545   9.540   5.120
19677WAT     H159273   2.580   9.449   5.100
19677WAT     H259274   2.514   9.544   5.216
19678WAT      O59275   9.718   8.591   6.527
19678WAT     H159276   9.693   8.553   6.616
19678WAT     H259277   9.797   8.651   6.538
19679WAT      O59278   5.339   3.104   4.404
19679WAT     H159279   5.266   3.167   4.377
19679WAT     H259280   5.373   3.057   4.322
19680WAT      O59281   0.389   5.122   6.319
19680WAT     H159282   0.300   5.166   6.316
19680WAT     H259283   0.407   5.075   6.233
19681WAT      O59284   3.109   7.446   1.173
19681WAT     H159285   3.074   7.521   1.229
19681WAT     H259286   3.209   7.444   1.179
19682WAT      O59287   1.910   4.266   2.667
19682WAT     H159288   1.876   4.172   2.674
19682WAT     H259289   1.878   4.319   2.746
19683WAT      O59290   6.657   5.161   4.415
19683WAT     H159291   6.656   5.136   4.512
19683WAT     H259292   6.750   5.153   4.379
19684WAT      O59293   4.711   1.047   2.289
19684WAT     H159294   4.703   1.018   2.194
19684WAT     H259295   4.680   1.141   2.299
19685WAT      O59296   8.428   1.240   4.935
19685WAT     H159297   8.492   1.207   5.005
19685WAT     H259298   8.408   1.337   4.952
19686WAT      O59299   1.813   3.022   0.838
19686WAT     H159300   1.860   3.107   0.814
19686WAT     H259301   1.788   3.023   0.934
19687WAT      O59302   6.051   2.706   7.779
19687WAT     H159303   5.967   2.713   7.832
19687WAT     H259304   6.120   2.657   7.832
19688WAT      O59305   7.967   1.035   8.632
19688WAT     H159306   7.889   1.077   8.678
19688WAT     H259307   8.052   1.070   8.673
19689WAT      O59308   7.281   5.659   1.993
19689WAT     H159309   7.200   5.690   2.043
19689WAT     H259310   7.315   5.734   1.936
19690WAT      O59311   2.441   9.175   6.729
19690WAT     H159312   2.538   9.151   6.728
19690WAT     H259313   2.399   9.147   6.643
19691WAT      O59314   0.806   3.385   1.599
19691WAT     H159315   0.760   3.301   1.569
19691WAT     H259316   0.888   3.360   1.650
19692WAT      O59317   0.165   3.506   1.333
19692WAT     H159318   0.082   3.510   1.277
19692WAT     H259319   0.184   3.411   1.358
19693WAT      O59320   6.914   5.521   7.028
19693WAT     H159321   6.887   5.594   7.091
19693WAT     H259322   6.862   5.530   6.943
19694WAT      O59323   9.358   9.814   9.891
19694WAT     H159324   9.284   9.843   9.831
19694WAT     H259325   9.382   9.719   9.871
19695WAT      O59326   0.713   8.145   5.624
19695WAT     H159327   0.685   8.050   5.608
19695WAT     H259328   0.787   8.147   5.691
19696WAT      O59329   3.832   6.813   9.750
19696WAT     H159330   3.892   6.845   9.823
19696WAT     H259331   3.737   6.839   9.771
19697WAT      O59332   3.753   8.317   9.327
19697WAT     H159333   3.779   8.229   9.367
19697WAT     H259334   3.657   8.335   9.347
19698WAT      O59335   9.197   2.548   1.288
19698WAT     H159336   9.101   2.524   1.275
19698WAT     H259337   9.246   2.541   1.201
19699WAT      O59338   5.300   3.185   3.148
19699WAT     H159339   5.238   3.140   3.212
19699WAT     H259340   5.343   3.263   3.193
19700WAT      O59341   0.339   1.158   6.810
19700WAT     H159342   0.430   1.127   6.838
19700WAT     H259343   0.332   1.153   6.710
19701WAT      O59344   2.608   9.461   7.317
19701WAT     H159345   2.626   9.429   7.224
19701WAT     H259346   2.659   9.545   7.334
19702WAT      O59347   9.724   1.312   9.084
19702WAT     H159348   9.632   1.316   9.123
19702WAT     H259349   9.718   1.301   8.985
19703WAT      O59350   9.741   1.273   5.463
19703WAT     H159351   9.777   1.350   5.517
19703WAT     H259352   9.811   1.202   5.457
19704WAT      O59353   7.638   0.036   5.195
19704WAT     H159354   7.549   0.038   5.150
19704WAT     H259355   7.646   0.114   5.257
19705WAT      O59356   1.680   9.165   9.153
19705WAT     H159357   1.649   9.130   9.241
19705WAT     H259358   1.610   9.148   9.083
19706WAT      O59359   6.808   6.723   8.120
19706WAT     H159360   6.863   6.642   8.100
19706WAT     H259361   6.739   6.735   8.049
19707WAT      O59362   9.552   7.796   8.060
19707WAT     H159363   9.586   7.770   8.151
19707WAT     H259364   9.528   7.893   8.061
19708WAT      O59365   1.577   7.887   5.147
19708WAT     H159366   1.502   7.935   5.103
19708WAT     H259367   1.600   7.932   5.233
19709WAT      O59368   6.300   0.194   6.161
19709WAT     H159369   6.262   0.107   6.130
19709WAT     H259370   6.233   0.267   6.146
19710WAT      O59371   2.323   8.831   3.545
19710WAT     H159372   2.269   8.776   3.481
19710WAT     H259373   2.262   8.886   3.602
19711WAT      O59374   4.500   4.115   7.771
19711WAT     H159375   4.558   4.073   7.842
19711WAT     H259376   4.434   4.048   7.738
19712WAT      O59377   0.504   6.238   3.169
19712WAT     H159378   0.516   6.325   3.216
19712WAT     H259379   0.529   6.247   3.073
19713WAT      O59380   2.565   8.379   4.344
19713WAT     H159381   2.623   8.369   4.425
19713WAT     H259382   2.563   8.475   4.316
19714WAT      O59383   5.147   9.330   9.286
19714WAT     H159384   5.113   9.268   9.215
19714WAT     H259385   5.244   9.314   9.300
19715WAT      O59386   5.787   6.978   3.186
19715WAT     H159387   5.757   6.941   3.098
19715WAT     H259388   5.885   6.998   3.182
19716WAT      O59389   9.020   8.000   3.995
19716WAT     H159390   9.084   7.928   4.020
19716WAT     H259391   8.939   7.994   4.054
19717WAT      O59392   9.548   6.203   5.981
19717WAT     H159393   9.509   6.157   5.901
19717WAT     H259394   9.610   6.140   6.028
19718WAT      O59395   8.783   4.747   7.823
19718WAT     H159396   8.786   4.691   7.905
19718WAT     H259397   8.713   4.712   7.760
19719WAT      O59398   8.959   9.303   5.104
19719WAT     H159399   9.046   9.325   5.060
19719WAT     H259400   8.929   9.212   5.074
19720WAT      O59401   3.593   2.986   4.514
19720WAT     H159402   3.495   2.978   4.531
19720WAT     H259403   3.619   3.083   4.512
19721WAT      O59404   7.152   9.177   3.439
19721WAT     H159405   7.212   9.253   3.415
19721WAT     H259406   7.165   9.151   3.534
19722WAT      O59407   6.336   4.054   0.022
19722WAT     H159408   6.303   4.066   0.115
19722WAT     H259409   6.422   4.103   0.011
19723WAT      O59410   2.603   6.696   4.608
19723WAT     H159411   2.579   6.708   4.704
19723WAT     H259412   2.676   6.760   4.583
19724WAT      O59413   2.436   9.264   4.038
19724WAT     H159414   2.443   9.362   4.059
19724WAT     H259415   2.485   9.245   3.952
19725WAT      O59416   0.429   2.330   2.704
19725WAT     H159417   0.480   2.369   2.781
19725WAT     H259418   0.336   2.308   2.733
19726WAT      O59419   2.531   0.567   7.058
19726WAT     H159420   2.468   0.564   6.981
19726WAT     H259421   2.520   0.484   7.113
19727WAT      O59422   7.562   0.475   4.316
19727WAT     H159423   7.493   0.450   4.247
19727WAT     H259424   7.637   0.409   4.312
19728WAT      O59425   0.359   8.653   0.772
19728WAT     H159426   0.264   8.663   0.742
19728WAT     H259427   0.408   8.738   0.756
19729WAT      O59428   1.693   2.449   7.349
19729WAT     H159429   1.662   2.485   7.261
19729WAT     H259430   1.618   2.452   7.415
19730WAT      O59431   3.094   0.582   9.407
19730WAT     H159432   3.150   0.537   9.476
19730WAT     H259433   3.018   0.630   9.452
19731WAT      O59434   4.133   8.873   7.703
19731WAT     H159435   4.044   8.910   7.675
19731WAT     H259436   4.122   8.817   7.785
19732WAT      O59437   6.307   3.781   1.410
19732WAT     H159438   6.387   3.814   1.460
19732WAT     H259439   6.330   3.770   1.313
19733WAT      O59440   9.320   4.060   6.465
19733WAT     H159441   9.282   4.153   6.465
19733WAT     H259442   9.359   4.040   6.554
19734WAT      O59443   9.717   1.031   2.080
19734WAT     H159444   9.660   0.957   2.115
19734WAT     H259445   9.694   1.049   1.984
19735WAT      O59446   5.143   0.076   9.552
19735WAT     H159447   5.186   0.025   9.626
19735WAT     H259448   5.050   0.041   9.538
19736WAT      O59449   1.332   6.734   6.439
19736WAT     H159450   1.263   6.728   6.367
19736WAT     H259451   1.293   6.779   6.519
19737WAT      O59452   4.601   2.101   2.345
19737WAT     H159453   4.668   2.047   2.395
19737WAT     H259454   4.647   2.176   2.298
19738WAT      O59455   3.830   8.540   4.195
19738WAT     H159456   3.789   8.539   4.286
19738WAT     H259457   3.903   8.608   4.192
19739WAT      O59458   1.549   9.404   1.356
19739WAT     H159459   1.536   9.500   1.333
19739WAT     H259460   1.564   9.352   1.271
19740WAT      O59461   3.631   8.738   9.606
19740WAT     H159462   3.642   8.821   9.551
19740WAT     H259463   3.706   8.730   9.671
19741WAT      O59464   0.351   4.578   6.242
19741WAT     H159465   0.421   4.508   6.255
19741WAT     H259466   0.268   4.537   6.206
19742WAT      O59467   1.429   0.642   4.377
19742WAT     H159468   1.456   0.671   4.285
19742WAT     H259469   1.431   0.543   4.383
19743WAT      O59470   8.795   9.600   8.193
19743WAT     H159471   8.712   9.553   8.222
19743WAT     H259472   8.784   9.699   8.204
19744WAT      O59473   1.987   2.680   3.070
19744WAT     H159474   2.016   2.586   3.055
19744WAT     H259475   2.067   2.741   3.068
19745WAT      O59476   2.250   9.009   0.681
19745WAT     H159477   2.290   8.932   0.632
19745WAT     H259478   2.155   9.022   0.650
19746WAT      O59479   0.153   2.146   8.246
19746WAT     H159480   0.119   2.114   8.335
19746WAT     H259481   0.248   2.116   8.234
19747WAT      O59482   9.333   6.204   5.584
19747WAT     H159483   9.401   6.138   5.614
19747WAT     H259484   9.245   6.158   5.569
19748WAT      O59485   0.716   4.017   4.528
19748WAT     H159486   0.724   3.919   4.548
19748WAT     H259487   0.620   4.044   4.532
19749WAT      O59488   1.120   2.027   5.984
19749WAT     H159489   1.158   1.938   5.956
19749WAT     H259490   1.138   2.041   6.081
19750WAT      O59491   6.114   8.074   6.532
19750WAT     H159492   6.183   8.141   6.558
19750WAT     H259493   6.023   8.110   6.551
19751WAT      O59494   3.475   5.829   1.979
19751WAT     H159495   3.379   5.841   2.004
19751WAT     H259496   3.489   5.865   1.887
19752WAT      O59497   4.115   1.469   7.681
19752WAT     H159498   4.105   1.550   7.623
19752WAT     H259499   4.110   1.497   7.777
19753WAT      O59500   5.372   1.698   3.251
19753WAT     H159501   5.352   1.690   3.349
19753WAT     H259502   5.287   1.713   3.201
19754WAT      O59503   9.321   8.880   7.431
19754WAT     H159504   9.389   8.952   7.443
19754WAT     H259505   9.333   8.811   7.502
19755WAT      O59506   7.574   3.386   6.623
19755WAT     H159507   7.576   3.461   6.688
19755WAT     H259508   7.530   3.306   6.664
19756WAT      O59509   3.545   8.820   0.481
19756WAT     H159510   3.613   8.893   0.474
19756WAT     H259511   3.453   8.859   0.485
19757WAT      O59512   7.150   5.342   4.976
19757WAT     H159513   7.226   5.368   4.916
19757WAT     H259514   7.186   5.295   5.057
19758WAT      O59515   7.495   3.163   7.931
19758WAT     H159516   7.547   3.078   7.931
19758WAT     H259517   7.477   3.191   7.837
19759WAT      O59518   5.360   2.983   6.401
19759WAT     H159519   5.406   3.048   6.341
19759WAT     H259520   5.421   2.905   6.418
19760WAT      O59521   2.613   7.585   9.711
19760WAT     H159522   2.645   7.533   9.790
19760WAT     H259523   2.558   7.526   9.652
19761WAT      O59524   3.471   7.341   3.294
19761WAT     H159525   3.379   7.351   3.256
19761WAT     H259526   3.521   7.272   3.243
19762WAT      O59527   4.032   6.551   2.425
19762WAT     H159528   4.064   6.460   2.450
19762WAT     H259529   4.110   6.607   2.397
19763WAT      O59530   6.305   8.678   7.324
19763WAT     H159531   6.274   8.733   7.246
19763WAT     H259532   6.398   8.705   7.349
19764WAT      O59533   1.059   0.244   0.492
19764WAT     H159534   1.093   0.157   0.527
19764WAT     H259535   1.136   0.302   0.467
19765WAT      O59536   7.273   8.530   1.567
19765WAT     H159537   7.230   8.450   1.606
19765WAT     H259538   7.244   8.541   1.472
19766WAT      O59539   5.229   4.398   7.102
19766WAT     H159540   5.238   4.486   7.149
19766WAT     H259541   5.143   4.396   7.051
19767WAT      O59542   0.069   8.646   0.383
19767WAT     H159543   0.000   8.661   0.312
19767WAT     H259544   0.123   8.565   0.360
19768WAT      O59545   3.307   0.166   3.068
19768WAT     H159546   3.272   0.259   3.061
19768WAT     H259547   3.292   0.117   2.982
19769WAT      O59548   9.268   0.582   1.753
19769WAT     H159549   9.213   0.581   1.837
19769WAT     H259550   9.337   0.654   1.759
19770WAT      O59551   5.201   9.778   6.301
19770WAT     H159552   5.132   9.850   6.303
19770WAT     H259553   5.292   9.818   6.292
19771WAT      O59554   3.877   7.033   6.769
19771WAT     H159555   3.909   6.985   6.851
19771WAT     H259556   3.956   7.055   6.711
19772WAT      O59557   0.560   9.246   5.535
19772WAT     H159558   0.630   9.314   5.513
19772WAT     H259559   0.576   9.210   5.627
19773WAT      O59560   0.553   2.188   2.533
19773WAT     H159561   0.488   2.165   2.461
19773WAT     H259562   0.504   2.221   2.613
19774WAT      O59563   3.856   6.550   9.772
19774WAT     H159564   3.774   6.493   9.763
19774WAT     H259565   3.839   6.639   9.729
19775WAT      O59566   3.899   9.036   6.747
19775WAT     H159567   3.810   9.081   6.742
19775WAT     H259568   3.895   8.962   6.814
19776WAT      O59569   9.162   7.910   6.283
19776WAT     H159570   9.174   8.009   6.281
19776WAT     H259571   9.183   7.872   6.193
19777WAT      O59572   5.863   1.551   0.165
19777WAT     H159573   5.814   1.487   0.224
19777WAT     H259574   5.883   1.635   0.215
19778WAT      O59575   3.561   7.250   8.036
19778WAT     H159576   3.582   7.152   8.026
19778WAT     H259577   3.573   7.277   8.131
19779WAT      O59578   7.750   2.799   5.957
19779WAT     H159579   7.820   2.838   6.016
19779WAT     H259580   7.793   2.750   5.881
19780WAT      O59581   7.755   7.306   2.883
19780WAT     H159582   7.783   7.221   2.838
19780WAT     H259583   7.673   7.343   2.839
19781WAT      O59584   0.215   7.792   2.718
19781WAT     H159585   0.158   7.772   2.797
19781WAT     H259586   0.311   7.777   2.741
19782WAT      O59587   5.839   2.707   6.011
19782WAT     H159588   5.764   2.773   6.006
19782WAT     H259589   5.835   2.647   5.931
19783WAT      O59590   7.281   3.180   4.118
19783WAT     H159591   7.266   3.170   4.019
19783WAT     H259592   7.363   3.129   4.144
19784WAT      O59593   5.731   0.853   8.478
19784WAT     H159594   5.752   0.948   8.502
19784WAT     H259595   5.768   0.833   8.387
19785WAT      O59596   0.838   7.019   6.482
19785WAT     H159597   0.931   7.054   6.491
19785WAT     H259598   0.788   7.035   6.567
19786WAT      O59599   4.201   2.020   9.759
19786WAT     H159600   4.221   1.984   9.668
19786WAT     H259601   4.181   2.117   9.752
19787WAT      O59602   0.490   7.277   2.729
19787WAT     H159603   0.526   7.210   2.793
19787WAT     H259604   0.528   7.367   2.751
19788WAT      O59605   8.473   8.924   6.946
19788WAT     H159606   8.393   8.887   6.900
19788WAT     H259607   8.537   8.850   6.967
19789WAT      O59608   6.777   9.664   1.107
19789WAT     H159609   6.738   9.701   1.191
19789WAT     H259610   6.711   9.602   1.064
19790WAT      O59611   1.186   5.042   4.614
19790WAT     H159612   1.153   4.957   4.653
19790WAT     H259613   1.276   5.064   4.652
19791WAT      O59614   5.533   1.574   8.023
19791WAT     H159615   5.547   1.646   8.091
19791WAT     H259616   5.582   1.491   8.052
19792WAT      O59617   0.681   3.863   7.908
19792WAT     H159618   0.668   3.962   7.898
19792WAT     H259619   0.779   3.843   7.913
19793WAT      O59620   1.749   1.133   7.571
19793WAT     H159621   1.828   1.178   7.612
19793WAT     H259622   1.720   1.184   7.490
19794WAT      O59623   2.150   6.462   4.266
19794WAT     H159624   2.202   6.537   4.224
19794WAT     H259625   2.078   6.433   4.204
19795WAT      O59626   2.999   4.003   5.552
19795WAT     H159627   3.027   4.095   5.581
19795WAT     H259628   2.900   4.000   5.542
19796WAT      O59629   0.015   9.342   2.290
19796WAT     H159630  -0.017   9.387   2.373
19796WAT     H259631  -0.023   9.389   2.210
19797WAT      O59632   3.034   8.405   3.904
19797WAT     H159633   3.106   8.398   3.973
19797WAT     H259634   3.067   8.457   3.826
19798WAT      O59635   8.625   5.203   3.196
19798WAT     H159636   8.646   5.108   3.218
19798WAT     H259637   8.580   5.246   3.274
19799WAT      O59638   5.807   0.936   7.879
19799WAT     H159639   5.747   0.857   7.892
19799WAT     H259640   5.800   0.997   7.957
19800WAT      O59641   4.206   1.276   7.459
19800WAT     H159642   4.140   1.243   7.391
19800WAT     H259643   4.158   1.330   7.528
19801WAT      O59644   1.772   8.214   7.065
19801WAT     H159645   1.809   8.137   7.013
19801WAT     H259646   1.673   8.213   7.061
19802WAT      O59647   4.345   9.115   6.272
19802WAT     H159648   4.383   9.180   6.206
19802WAT     H259649   4.256   9.147   6.304
19803WAT      O59650   8.358   2.559   7.829
19803WAT     H159651   8.443   2.527   7.786
19803WAT     H259652   8.282   2.503   7.797
19804WAT      O59653   7.639   9.689   4.178
19804WAT     H159654   7.659   9.686   4.080
19804WAT     H259655   7.547   9.724   4.192
19805WAT      O59656   7.845   3.176   3.041
19805WAT     H159657   7.923   3.238   3.046
19805WAT     H259658   7.871   3.085   3.074
19806WAT      O59659   4.560   3.065   7.259
19806WAT     H159660   4.636   3.030   7.313
19806WAT     H259661   4.511   3.136   7.311
19807WAT      O59662   6.220   6.614   3.734
19807WAT     H159663   6.120   6.619   3.747
19807WAT     H259664   6.239   6.571   3.645
19808WAT      O59665   2.382   3.221   1.696
19808WAT     H159666   2.301   3.192   1.645
19808WAT     H259667   2.449   3.147   1.695
19809WAT      O59668   3.846   6.436   7.634
19809WAT     H159669   3.823   6.523   7.590
19809WAT     H259670   3.945   6.424   7.633
19810WAT      O59671   0.857   1.054   3.536
19810WAT     H159672   0.792   1.130   3.528
19810WAT     H259673   0.950   1.090   3.533
19811WAT      O59674   8.021   9.667   4.633
19811WAT     H159675   7.940   9.616   4.605
19811WAT     H259676   8.056   9.719   4.556
19812WAT      O59677   9.366   9.455   3.883
19812WAT     H159678   9.325   9.542   3.855
19812WAT     H259679   9.362   9.390   3.807
19813WAT      O59680   1.092   9.076   7.002
19813WAT     H159681   1.020   9.098   6.936
19813WAT     H259682   1.097   8.977   7.014
19814WAT      O59683   8.290   7.884   9.285
19814WAT     H159684   8.316   7.790   9.308
19814WAT     H259685   8.323   7.907   9.193
19815WAT      O59686   4.280   5.841   6.389
19815WAT     H159687   4.288   5.785   6.307
19815WAT     H259688   4.229   5.924   6.368
19816WAT      O59689   5.674   9.385   5.138
19816WAT     H159690   5.691   9.302   5.085
19816WAT     H259691   5.645   9.459   5.076
19817WAT      O59692   0.670   9.816   8.483
19817WAT     H159693   0.714   9.902   8.509
19817WAT     H259694   0.639   9.822   8.388
19818WAT      O59695   7.902   9.551   7.620
19818WAT     H159696   7.955   9.636   7.614
19818WAT     H259697   7.806   9.569   7.599
19819WAT      O59698   4.214   3.034   6.587
19819WAT     H159699   4.209   2.960   6.654
19819WAT     H259700   4.292   3.020   6.527
19820WAT      O59701   1.813   9.638   1.708
19820WAT     H159702   1.824   9.730   1.745
19820WAT     H259703   1.837   9.638   1.611
19821WAT      O59704   4.126   2.683   1.508
19821WAT     H159705   4.107   2.763   1.451
19821WAT     H259706   4.172   2.712   1.592
19822WAT      O59707   8.661   8.552   2.264
19822WAT     H159708   8.690   8.639   2.224
19822WAT     H259709   8.741   8.493   2.278
19823WAT      O59710   0.143   0.253   0.033
19823WAT     H159711   0.198   0.328   0.068
19823WAT     H259712   0.201   0.174   0.012
19824WAT      O59713   2.910   0.846   1.571
19824WAT     H159714   2.903   0.910   1.647
19824WAT     H259715   2.894   0.753   1.603
19825WAT      O59716   1.740   1.651   5.448
19825WAT     H159717   1.691   1.646   5.535
19825WAT     H259718   1.724   1.740   5.406
19826WAT      O59719   2.143   1.202   6.310
19826WAT     H159720   2.236   1.232   6.334
19826WAT     H259721   2.133   1.105   6.332
19827WAT      O59722   5.084   0.328   7.284
19827WAT     H159723   5.111   0.308   7.190
19827WAT     H259724   5.004   0.274   7.308
19828WAT      O59725   4.490   9.540   3.312
19828WAT     H159726   4.473   9.555   3.409
19828WAT     H259727   4.568   9.479   3.300
19829WAT      O59728   3.585   0.558   3.838
19829WAT     H159729   3.524   0.621   3.886
19829WAT     H259730   3.535   0.512   3.765
19830WAT      O59731   1.298   8.885   5.776
19830WAT     H159732   1.199   8.872   5.784
19830WAT     H259733   1.325   8.967   5.826
19831WAT      O59734   5.250   6.433   0.367
19831WAT     H159735   5.325   6.462   0.426
19831WAT     H259736   5.270   6.457   0.273
19832WAT      O59737   7.410   6.297   7.642
19832WAT     H159738   7.381   6.390   7.618
19832WAT     H259739   7.374   6.272   7.732
19833WAT      O59740   5.305   8.458   1.215
19833WAT     H159741   5.210   8.489   1.221
19833WAT     H259742   5.321   8.416   1.126
19834WAT      O59743   6.411   6.778   7.452
19834WAT     H159744   6.341   6.828   7.401
19834WAT     H259745   6.367   6.716   7.517
19835WAT      O59746   7.286   5.813   2.587
19835WAT     H159747   7.315   5.892   2.534
19835WAT     H259748   7.349   5.799   2.664
19836WAT      O59749   0.317   2.464   8.198
19836WAT     H159750   0.394   2.523   8.177
19836WAT     H259751   0.233   2.504   8.161
19837WAT      O59752   9.886   4.266   6.556
19837WAT     H159753   9.848   4.207   6.628
19837WAT     H259754   9.840   4.246   6.470
19838WAT      O59755   5.378   6.063   5.680
19838WAT     H159756   5.465   6.058   5.730
19838WAT     H259757   5.368   6.152   5.637
19839WAT      O59758   4.297   4.860   8.370
19839WAT     H159759   4.322   4.764   8.385
19839WAT     H259760   4.197   4.867   8.365
19840WAT      O59761   3.486   8.292   4.021
19840WAT     H159762   3.442   8.222   4.078
19840WAT     H259763   3.432   8.376   4.024
19841WAT      O59764   6.400   8.961   5.093
19841WAT     H159765   6.488   8.963   5.047
19841WAT     H259766   6.356   8.872   5.079
19842WAT      O59767   7.332   2.735   4.788
19842WAT     H159768   7.291   2.794   4.719
19842WAT     H259769   7.363   2.650   4.745
19843WAT      O59770   5.501   3.195   8.311
19843WAT     H159771   5.415   3.161   8.274
19843WAT     H259772   5.574   3.184   8.242
19844WAT      O59773   2.899   6.940   3.401
19844WAT     H159774   2.816   6.941   3.457
19844WAT     H259775   2.979   6.934   3.461
19845WAT      O59776   6.825   9.121   1.189
19845WAT     H159777   6.834   9.211   1.148
19845WAT     H259778   6.731   9.088   1.177
19846WAT      O59779   9.707   5.880   9.066
19846WAT     H159780   9.644   5.949   9.031
19846WAT     H259781   9.788   5.875   9.007
19847WAT      O59782   5.821   1.823   3.389
19847WAT     H159783   5.810   1.726   3.411
19847WAT     H259784   5.788   1.840   3.296
19848WAT      O59785   8.598   0.585   8.162
19848WAT     H159786   8.593   0.676   8.204
19848WAT     H259787   8.577   0.516   8.231
19849WAT      O59788   9.079   1.549   2.460
19849WAT     H159789   9.136   1.467   2.474
19849WAT     H259790   9.122   1.608   2.392
19850WAT      O59791   3.339   8.765   7.607
19850WAT     H159792   3.353   8.666   7.617
19850WAT     H259793   3.309   8.804   7.694
19851WAT      O59794   8.990   3.698   7.566
19851WAT     H159795   9.077   3.744   7.583
19851WAT     H259796   8.962   3.648   7.648
19852WAT      O59797   7.387   8.288   3.945
19852WAT     H159798   7.436   8.356   3.890
19852WAT     H259799   7.290   8.289   3.921
19853WAT      O59800   9.300   4.499   8.405
19853WAT     H159801   9.329   4.467   8.495
19853WAT     H259802   9.247   4.584   8.416
19854WAT      O59803   8.037   7.046   9.865
19854WAT     H159804   8.002   7.140   9.864
19854WAT     H259805   7.982   6.990   9.927
19855WAT      O59806   1.203   8.640   1.640
19855WAT     H159807   1.170   8.564   1.585
19855WAT     H259808   1.248   8.605   1.722
19856WAT      O59809   5.962   9.510   9.003
19856WAT     H159810   6.044   9.454   8.990
19856WAT     H259811   5.973   9.565   9.086
19857WAT      O59812   6.911   7.718   3.446
19857WAT     H159813   6.995   7.714   3.500
19857WAT     H259814   6.875   7.811   3.448
19858WAT      O59815   7.601   7.402   4.007
19858WAT     H159816   7.517   7.413   4.061
19858WAT     H259817   7.677   7.382   4.068
19859WAT      O59818   2.620   8.008   6.741
19859WAT     H159819   2.595   7.937   6.807
19859WAT     H259820   2.717   8.029   6.749
19860WAT      O59821   6.095   5.520   7.654
19860WAT     H159822   6.194   5.514   7.666
19860WAT     H259823   6.051   5.516   7.743
19861WAT      O59824   6.842   2.890   0.282
19861WAT     H159825   6.758   2.943   0.292
19861WAT     H259826   6.916   2.951   0.254
19862WAT      O59827   0.119   6.037   1.067
19862WAT     H159828   0.165   6.102   1.128
19862WAT     H259829   0.160   5.946   1.078
19863WAT      O59830   4.444   9.713   8.693
19863WAT     H159831   4.454   9.754   8.602
19863WAT     H259832   4.493   9.626   8.695
19864WAT      O59833   7.736   3.920   6.063
19864WAT     H159834   7.825   3.934   6.020
19864WAT     H259835   7.669   3.892   5.994
19865WAT      O59836   2.664   7.711   0.847
19865WAT     H159837   2.633   7.800   0.881
19865WAT     H259838   2.677   7.716   0.748
19866WAT      O59839   0.306   1.339   9.718
19866WAT     H159840   0.344   1.265   9.774
19866WAT     H259841   0.207   1.344   9.731
19867WAT      O59842   7.070   1.090   7.561
19867WAT     H159843   7.140   1.074   7.630
19867WAT     H259844   7.093   1.040   7.477
19868WAT      O59845   1.292   0.251   7.431
19868WAT     H159846   1.198   0.266   7.462
19868WAT     H259847   1.306   0.154   7.411
19869WAT      O59848   1.446   8.622   2.092
19869WAT     H159849   1.514   8.677   2.141
19869WAT     H259850   1.418   8.668   2.008
19870WAT      O59851   0.170   6.928   4.561
19870WAT     H159852   0.089   6.913   4.503
19870WAT     H259853   0.179   6.852   4.625
19871WAT      O59854   2.551   0.950   3.319
19871WAT     H159855   2.519   0.960   3.413
19871WAT     H259856   2.526   1.031   3.266
19872WAT      O59857   4.821   0.956   5.234
19872WAT     H159858   4.853   1.032   5.292
19872WAT     H259859   4.767   0.893   5.290
19873WAT      O59860   5.132   9.270   3.578
19873WAT     H159861   5.156   9.364   3.598
19873WAT     H259862   5.124   9.218   3.663
19874WAT      O59863   0.296   7.791   1.552
19874WAT     H159864   0.237   7.740   1.615
19874WAT     H259865   0.391   7.777   1.578
19875WAT      O59866   6.205   4.893   9.868
19875WAT     H159867   6.124   4.849   9.906
19875WAT     H259868   6.190   4.914   9.771
19876WAT      O59869   6.521   1.056   4.916
19876WAT     H159870   6.612   1.084   4.945
19876WAT     H259871   6.496   1.104   4.832
19877WAT      O59872   0.765   7.589   2.053
19877WAT     H159873   0.828   7.664   2.032
19877WAT     H259874   0.818   7.510   2.087
19878WAT      O59875   8.234   4.775   4.938
19878WAT     H159876   8.191   4.776   4.848
19878WAT     H259877   8.319   4.828   4.935
19879WAT      O59878   3.286   8.977   9.831
19879WAT     H159879   3.362   9.022   9.879
19879WAT     H259880   3.205   8.977   9.890
19880WAT      O59881   3.853   7.421   0.404
19880WAT     H159882   3.837   7.362   0.483
19880WAT     H259883   3.943   7.464   0.411
19881WAT      O59884   9.795   4.565   1.969
19881WAT     H159885   9.810   4.652   1.924
19881WAT     H259886   9.698   4.541   1.962
19882WAT      O59887   8.798   3.616   2.084
19882WAT     H159888   8.874   3.681   2.085
19882WAT     H259889   8.780   3.588   1.990
19883WAT      O59890   3.179   3.905   8.219
19883WAT     H159891   3.185   3.896   8.319
19883WAT     H259892   3.166   3.815   8.178
19884WAT      O59893   2.586   5.686   3.140
19884WAT     H159894   2.495   5.645   3.139
19884WAT     H259895   2.578   5.784   3.155
19885WAT      O59896   4.495   2.696   9.020
19885WAT     H159897   4.494   2.789   9.058
19885WAT     H259898   4.485   2.702   8.921
19886WAT      O59899   5.853   0.248   3.452
19886WAT     H159900   5.893   0.316   3.513
19886WAT     H259901   5.757   0.271   3.434
19887WAT      O59902   8.897   6.268   4.878
19887WAT     H159903   8.862   6.322   4.801
19887WAT     H259904   8.836   6.279   4.956
19888WAT      O59905   4.388   3.564   2.700
19888WAT     H159906   4.310   3.504   2.681
19888WAT     H259907   4.472   3.509   2.701
19889WAT      O59908   4.528   8.259   7.636
19889WAT     H159909   4.449   8.213   7.594
19889WAT     H259910   4.498   8.308   7.718
19890WAT      O59911   4.438   0.804   8.959
19890WAT     H159912   4.405   0.798   9.053
19890WAT     H259913   4.445   0.900   8.933
19891WAT      O59914   1.653   6.447   1.713
19891WAT     H159915   1.642   6.356   1.752
19891WAT     H259916   1.726   6.446   1.645
19892WAT      O59917   4.519   9.441   6.059
19892WAT     H159918   4.566   9.364   6.017
19892WAT     H259919   4.539   9.524   6.008
19893WAT      O59920   3.045   2.726   5.779
19893WAT     H159921   3.099   2.684   5.706
19893WAT     H259922   3.096   2.804   5.817
19894WAT      O59923   0.028   7.251   0.586
19894WAT     H159924  -0.004   7.208   0.502
19894WAT     H259925  -0.044   7.310   0.622
19895WAT      O59926   0.435   7.416   5.528
19895WAT     H159927   0.484   7.439   5.444
19895WAT     H259928   0.351   7.471   5.533
19896WAT      O59929   6.438   3.629   4.673
19896WAT     H159930   6.437   3.725   4.702
19896WAT     H259931   6.415   3.624   4.576
19897WAT      O59932   0.799   7.959   6.128
19897WAT     H159933   0.729   7.927   6.192
19897WAT     H259934   0.878   7.898   6.132
19898WAT      O59935   7.732   8.675   3.722
19898WAT     H159936   7.708   8.656   3.817
19898WAT     H259937   7.773   8.766   3.716
19899WAT      O59938   8.900   6.363   4.630
19899WAT     H159939   8.999   6.356   4.634
19899WAT     H259940   8.864   6.289   4.573
19900WAT      O59941   6.365   8.519   6.361
19900WAT     H159942   6.453   8.478   6.387
19900WAT     H259943   6.292   8.453   6.377
19901WAT      O59944   4.439   0.144   9.413
19901WAT     H159945   4.378   0.065   9.404
19901WAT     H259946   4.527   0.124   9.370
19902WAT      O59947   5.290   8.954   9.483
19902WAT     H159948   5.280   8.976   9.580
19902WAT     H259949   5.349   8.873   9.474
19903WAT      O59950   7.910   2.877   6.153
19903WAT     H159951   7.913   2.838   6.245
19903WAT     H259952   7.985   2.943   6.142
19904WAT      O59953   9.039   8.694   1.610
19904WAT     H159954   9.051   8.729   1.518
19904WAT     H259955   8.992   8.606   1.606
19905WAT      O59956   8.587   6.099   3.430
19905WAT     H159957   8.531   6.182   3.426
19905WAT     H259958   8.681   6.124   3.455
19906WAT      O59959   5.682   8.967   6.447
19906WAT     H159960   5.612   8.931   6.384
19906WAT     H259961   5.734   9.038   6.400
19907WAT      O59962   7.950   8.719   1.535
19907WAT     H159963   7.867   8.742   1.586
19907WAT     H259964   7.933   8.639   1.478
19908WAT      O59965   2.284   5.345   4.276
19908WAT     H159966   2.380   5.364   4.294
19908WAT     H259967   2.267   5.347   4.177
19909WAT      O59968   5.064   1.988   0.175
19909WAT     H159969   5.006   2.069   0.181
19909WAT     H259970   5.063   1.952   0.082
19910WAT      O59971   9.833   4.246   4.466
19910WAT     H159972   9.909   4.246   4.531
19910WAT     H259973   9.807   4.152   4.446
19911WAT      O59974   0.284   9.565   3.136
19911WAT     H159975   0.303   9.518   3.050
19911WAT     H259976   0.302   9.663   3.126
19912WAT      O59977   6.020   6.593   9.373
19912WAT     H159978   6.097   6.533   9.354
19912WAT     H259979   6.043   6.652   9.451
19913WAT      O59980   7.877   6.618   7.330
19913WAT     H159981   7.782   6.603   7.358
19913WAT     H259982   7.899   6.715   7.334
19914WAT      O59983   8.443   0.403   9.251
19914WAT     H159984   8.418   0.358   9.337
19914WAT     H259985   8.407   0.496   9.251
19915WAT      O59986   2.384   4.939   7.767
19915WAT     H159987   2.310   4.888   7.810
19915WAT     H259988   2.446   4.876   7.720
19916WAT      O59989   9.693   2.182   9.723
19916WAT     H159990   9.593   2.182   9.726
19916WAT     H259991   9.729   2.246   9.791
19917WAT      O59992   7.713   5.024   6.088
19917WAT     H159993   7.778   4.993   6.019
19917WAT     H259994   7.713   5.124   6.092
19918WAT      O59995   6.629   4.592   1.261
19918WAT     H159996   6.552   4.617   1.203
19918WAT     H259997   6.621   4.637   1.350
19919WAT      O59998   7.594   0.886   5.495
19919WAT     H159999   7.656   0.961   5.471
19919WAT     H260000   7.558   0.845   5.411
19920WAT      O60001   5.845   1.917   4.357
19920WAT     H160002   5.903   1.855   4.408
19920WAT     H260003   5.776   1.957   4.417
19921WAT      O60004   9.689   2.932   3.301
19921WAT     H160005   9.682   2.863   3.373
19921WAT     H260006   9.603   2.936   3.251
19922WAT      O60007   4.515   5.292   9.634
19922WAT     H160008   4.598   5.256   9.678
19922WAT     H260009   4.459   5.339   9.702
19923WAT      O60010   7.633   3.316   2.094
19923WAT     H160011   7.709   3.301   2.031
19923WAT     H260012   7.651   3.397   2.150
19924WAT      O60013   4.321   0.704   2.116
19924WAT     H160014   4.284   0.635   2.054
19924WAT     H260015   4.360   0.659   2.197
19925WAT      O60016   1.584   3.549   5.844
19925WAT     H160017   1.619   3.460   5.815
19925WAT     H260018   1.488   3.557   5.816
19926WAT      O60019   0.209   2.424   8.610
19926WAT     H160020   0.294   2.449   8.562
19926WAT     H260021   0.136   2.485   8.581
19927WAT      O60022   9.286   0.317   5.239
19927WAT     H160023   9.318   0.410   5.219
19927WAT     H260024   9.360   0.252   5.224
19928WAT      O60025   8.454   8.869   7.860
19928WAT     H160026   8.437   8.916   7.947
19928WAT     H260027   8.401   8.784   7.857
19929WAT      O60028   9.581   9.743   7.197
19929WAT     H160029   9.638   9.684   7.255
19929WAT     H260030   9.554   9.694   7.114
19930WAT      O60031   2.481   0.587   8.968
19930WAT     H160032   2.548   0.603   8.895
19930WAT     H260033   2.505   0.504   9.018
19931WAT      O60034   6.981   6.990   5.328
19931WAT     H160035   6.985   7.014   5.425
19931WAT     H260036   6.992   6.891   5.318
19932WAT      O60037   9.475   9.731   6.351
19932WAT     H160038   9.413   9.795   6.306
19932WAT     H260039   9.536   9.690   6.283
19933WAT      O60040   6.407   1.228   6.736
19933WAT     H160041   6.465   1.289   6.791
19933WAT     H260042   6.315   1.267   6.729
19934WAT      O60043   8.219   2.521   0.344
19934WAT     H160044   8.138   2.462   0.346
19934WAT     H260045   8.229   2.565   0.433
19935WAT      O60046   8.639   9.336   4.908
19935WAT     H160047   8.583   9.342   4.825
19935WAT     H260048   8.699   9.256   4.901
19936WAT      O60049   5.894   3.079   4.229
19936WAT     H160050   5.876   3.033   4.316
19936WAT     H260051   5.986   3.056   4.197
19937WAT      O60052   4.003   1.525   6.985
19937WAT     H160053   4.025   1.466   7.063
19937WAT     H260054   3.905   1.544   6.983
19938WAT      O60055   5.067   5.185   6.603
19938WAT     H160056   4.998   5.238   6.653
19938WAT     H260057   5.045   5.088   6.610
19939WAT      O60058   4.680   8.247   2.748
19939WAT     H160059   4.619   8.270   2.671
19939WAT     H260060   4.630   8.261   2.834
19940WAT      O60061   6.697   6.249   8.985
19940WAT     H160062   6.638   6.171   9.006
19940WAT     H260063   6.742   6.234   8.896
19941WAT      O60064   5.166   3.002   6.846
19941WAT     H160065   5.178   2.975   6.941
19941WAT     H260066   5.120   2.929   6.796
19942WAT      O60067   0.223   1.769   1.112
19942WAT     H160068   0.238   1.697   1.044
19942WAT     H260069   0.292   1.840   1.101
19943WAT      O60070   4.308   2.516   2.553
19943WAT     H160071   4.294   2.615   2.560
19943WAT     H260072   4.262   2.470   2.630
19944WAT      O60073   0.789   3.896   2.882
19944WAT     H160074   0.885   3.922   2.867
19944WAT     H260075   0.786   3.809   2.930
19945WAT      O60076   5.505   6.347   1.517
19945WAT     H160077   5.554   6.288   1.581
19945WAT     H260078   5.408   6.321   1.515
19946WAT      O60079   9.600   3.078   2.396
19946WAT     H160080   9.517   3.133   2.408
19946WAT     H260081   9.615   3.021   2.477
19947WAT      O60082   8.894   6.978   3.418
19947WAT     H160083   8.924   6.943   3.507
19947WAT     H260084   8.972   7.014   3.368
19948WAT      O60085   8.289   6.719   8.104
19948WAT     H160086   8.326   6.714   8.196
19948WAT     H260087   8.354   6.767   8.044
19949WAT      O60088   2.739   4.357   0.507
19949WAT     H160089   2.719   4.291   0.435
19949WAT     H260090   2.655   4.404   0.534
19950WAT      O60091   8.181   6.355   7.914
19950WAT     H160092   8.276   6.369   7.941
19950WAT     H260093   8.130   6.315   7.990
19951WAT      O60094   4.568   8.667   4.402
19951WAT     H160095   4.540   8.608   4.325
19951WAT     H260096   4.550   8.762   4.379
19952WAT      O60097   0.588   6.113   8.297
19952WAT     H160098   0.579   6.083   8.392
19952WAT     H260099   0.587   6.033   8.237
19953WAT      O60100   4.140   5.906   0.144
19953WAT     H160101   4.092   5.870   0.064
19953WAT     H260102   4.145   5.835   0.214
19954WAT      O60103   4.489   7.067   8.187
19954WAT     H160104   4.587   7.051   8.178
19954WAT     H260105   4.447   6.991   8.237
19955WAT      O60106   9.760   6.272   0.674
19955WAT     H160107   9.832   6.338   0.652
19955WAT     H260108   9.801   6.182   0.689
19956WAT      O60109   0.312   5.980   8.031
19956WAT     H160110   0.255   6.059   8.009
19956WAT     H260111   0.395   5.983   7.975
19957WAT      O60112   2.745   8.808   1.342
19957WAT     H160113   2.727   8.906   1.332
19957WAT     H260114   2.659   8.760   1.360
19958WAT      O60115   4.163   7.363   6.377
19958WAT     H160116   4.143   7.432   6.446
19958WAT     H260117   4.111   7.382   6.294
19959WAT      O60118   5.614   6.274   7.548
19959WAT     H160119   5.613   6.360   7.598
19959WAT     H260120   5.660   6.286   7.461
19960WAT      O60121   0.411   7.233   6.290
19960WAT     H160122   0.338   7.167   6.275
19960WAT     H260123   0.499   7.186   6.287
19961WAT      O60124   5.331   4.650   9.421
19961WAT     H160125   5.375   4.591   9.488
19961WAT     H260126   5.294   4.595   9.346
19962WAT      O60127   1.742   6.727   9.347
19962WAT     H160128   1.669   6.791   9.373
19962WAT     H260129   1.721   6.687   9.258
19963WAT      O60130   5.867   8.412   1.470
19963WAT     H160131   5.838   8.317   1.481
19963WAT     H260132   5.837   8.445   1.381
19964WAT      O60133   2.568   6.682   3.223
19964WAT     H160134   2.654   6.708   3.179
19964WAT     H260135   2.524   6.610   3.170
19965WAT      O60136   7.147   5.577   6.353
19965WAT     H160137   7.097   5.521   6.287
19965WAT     H260138   7.241   5.544   6.360
19966WAT      O60139   8.239   1.740   3.932
19966WAT     H160140   8.163   1.801   3.954
19966WAT     H260141   8.245   1.669   4.003
19967WAT      O60142   2.104   7.067   8.947
19967WAT     H160143   2.166   7.028   9.015
19967WAT     H260144   2.046   7.136   8.990
19968WAT      O60145   3.655   1.061   0.458
19968WAT     H160146   3.709   1.057   0.374
19968WAT     H260147   3.591   1.137   0.454
19969WAT      O60148   7.736   0.469   5.727
19969WAT     H160149   7.697   0.560   5.721
19969WAT     H260150   7.689   0.408   5.663
19970WAT      O60151   5.870   9.356   6.611
19970WAT     H160152   5.836   9.337   6.703
19970WAT     H260153   5.861   9.454   6.591
19971WAT      O60154   4.743   1.647   1.272
19971WAT     H160155   4.690   1.664   1.189
19971WAT     H260156   4.833   1.689   1.263
19972WAT      O60157   4.303   8.286   0.628
19972WAT     H160158   4.283   8.281   0.726
19972WAT     H260159   4.222   8.258   0.577
19973WAT      O60160   0.816   4.945   7.131
19973WAT     H160161   0.895   4.889   7.111
19973WAT     H260162   0.732   4.893   7.113
19974WAT      O60163   5.694   4.127   1.331
19974WAT     H160164   5.648   4.041   1.308
19974WAT     H260165   5.782   4.131   1.283
19975WAT      O60166   4.211   3.128   8.808
19975WAT     H160167   4.130   3.179   8.778
19975WAT     H260168   4.291   3.159   8.756
19976WAT      O60169   4.707   5.699   1.227
19976WAT     H160170   4.679   5.724   1.320
19976WAT     H260171   4.807   5.702   1.220
19977WAT      O60172   4.153   7.585   0.138
19977WAT     H160173   4.231   7.523   0.134
19977WAT     H260174   4.167   7.662   0.076
19978WAT      O60175   8.843   0.054   6.394
19978WAT     H160176   8.814   0.108   6.314
19978WAT     H260177   8.934   0.015   6.376
19979WAT      O60178   6.085   8.251   8.086
19979WAT     H160179   6.006   8.299   8.123
19979WAT     H260180   6.169   8.301   8.109
19980WAT      O60181   8.152   3.004   1.887
19980WAT     H160182   8.072   3.037   1.937
19980WAT     H260183   8.124   2.935   1.821
19981WAT      O60184   3.597   0.683   8.320
19981WAT     H160185   3.614   0.585   8.312
19981WAT     H260186   3.534   0.700   8.396
19982WAT      O60187   6.779   4.100   6.634
19982WAT     H160188   6.851   4.098   6.565
19982WAT     H260189   6.728   4.185   6.627
19983WAT      O60190   6.171   1.873   2.514
19983WAT     H160191   6.123   1.841   2.432
19983WAT     H260192   6.237   1.943   2.488
19984WAT      O60193   7.276   0.609   0.972
19984WAT     H160194   7.184   0.584   0.944
19984WAT     H260195   7.326   0.647   0.894
19985WAT      O60196   2.715   9.013   4.510
19985WAT     H160197   2.773   9.065   4.448
19985WAT     H260198   2.650   8.958   4.457
19986WAT      O60199   8.931   4.392   3.516
19986WAT     H160200   9.026   4.381   3.487
19986WAT     H260201   8.902   4.486   3.500
19987WAT      O60202   4.736   9.142   3.982
19987WAT     H160203   4.792   9.065   3.952
19987WAT     H260204   4.667   9.110   4.046
19988WAT      O60205   2.227   5.728   3.389
19988WAT     H160206   2.208   5.814   3.340
19988WAT     H260207   2.321   5.729   3.422
19989WAT      O60208   6.302   3.414   1.437
19989WAT     H160209   6.390   3.462   1.442
19989WAT     H260210   6.308   3.328   1.488
19990WAT      O60211   6.773   4.172   0.257
19990WAT     H160212   6.848   4.159   0.193
19990WAT     H260213   6.802   4.234   0.330
19991WAT      O60214   7.612   7.371   7.520
19991WAT     H160215   7.642   7.322   7.437
19991WAT     H260216   7.630   7.468   7.509
19992WAT      O60217   6.168   8.047   9.055
19992WAT     H160218   6.075   8.080   9.069
19992WAT     H260219   6.221   8.114   9.003
19993WAT      O60220   0.315   1.816   6.803
19993WAT     H160221   0.263   1.862   6.875
19993WAT     H260222   0.346   1.727   6.837
19994WAT      O60223   0.701   0.360   9.509
19994WAT     H160224   0.616   0.354   9.561
19994WAT     H260225   0.701   0.291   9.436
19995WAT      O60226   0.481   7.400   7.352
19995WAT     H160227   0.390   7.397   7.394
19995WAT     H260228   0.475   7.448   7.265
19996WAT      O60229   2.591   9.619   6.442
19996WAT     H160230   2.636   9.634   6.531
19996WAT     H260231   2.646   9.557   6.387
19997WAT      O60232   0.758   1.190   7.374
19997WAT     H160233   0.783   1.103   7.331
19997WAT     H260234   0.831   1.218   7.437
19998WAT      O60235   5.348   3.965   1.623
19998WAT     H160236   5.256   3.928   1.635
19998WAT     H260237   5.409   3.893   1.590
19999WAT      O60238   2.747   2.251   0.371
19999WAT     H160239   2.839   2.236   0.336
19999WAT     H260240   2.725   2.349   0.368
20000WAT      O60241   8.781   7.194   1.675
20000WAT     H160242   8.864   7.208   1.621
20000WAT     H260243   8.707   7.162   1.616
20001WAT      O60244   5.209   5.723   7.780
20001WAT     H160245   5.238   5.729   7.875
20001WAT     H260246   5.148   5.799   7.758
20002WAT      O60247   3.244   5.190   2.024
20002WAT     H160248   3.226   5.109   2.080
20002WAT     H260249   3.270   5.161   1.932
20003WAT      O60250   0.403   1.898   2.686
20003WAT     H160251   0.405   1.909   2.785
20003WAT     H260252   0.322   1.942   2.649
20004WAT      O60253   6.103   2.808   0.048
20004WAT     H160254   6.053   2.813  -0.039
20004WAT     H260255   6.182   2.869   0.045
20005WAT      O60256   0.018   7.347   9.268
20005WAT     H160257   0.085   7.333   9.341
20005WAT     H260258  -0.042   7.423   9.291
20006WAT      O60259   1.840   9.265   3.778
20006WAT     H160260   1.762   9.318   3.810
20006WAT     H260261   1.844   9.178   3.828
20007WAT      O60262   2.961   4.807   7.755
20007WAT     H160263   2.956   4.850   7.665
20007WAT     H260264   3.049   4.830   7.798
20008WAT      O60265   4.713   9.698   7.880
20008WAT     H160266   4.639   9.634   7.865
20008WAT     H260267   4.772   9.701   7.799
20009WAT      O60268   4.211   9.592   9.581
20009WAT     H160269   4.121   9.636   9.574
20009WAT     H260270   4.235   9.579   9.677
20010WAT      O60271   5.123   1.251   8.617
20010WAT     H160272   5.221   1.246   8.596
20010WAT     H260273   5.109   1.231   8.714
20011WAT      O60274   1.012   6.798   4.817
20011WAT     H160275   0.946   6.724   4.803
20011WAT     H260276   1.030   6.844   4.730
20012WAT      O60277   6.731   1.539   6.758
20012WAT     H160278   6.702   1.559   6.665
20012WAT     H260279   6.762   1.444   6.763
20013WAT      O60280   4.320   6.986   2.704
20013WAT     H160281   4.413   6.978   2.742
20013WAT     H260282   4.279   7.071   2.736
20014WAT      O60283   3.258   3.802   6.849
20014WAT     H160284   3.221   3.733   6.788
20014WAT     H260285   3.357   3.788   6.859
20015WAT      O60286   0.455   8.656   3.697
20015WAT     H160287   0.517   8.606   3.636
20015WAT     H260288   0.442   8.749   3.662
20016WAT      O60289   7.908   8.601   8.776
20016WAT     H160290   7.977   8.565   8.839
20016WAT     H260291   7.822   8.614   8.826
20017WAT      O60292   1.631   4.706   6.240
20017WAT     H160293   1.540   4.699   6.282
20017WAT     H260294   1.672   4.615   6.235
20018WAT      O60295   5.041   7.387   2.524
20018WAT     H160296   4.996   7.298   2.518
20018WAT     H260297   5.135   7.374   2.558
20019WAT      O60298   8.035   0.453   1.084
20019WAT     H160299   8.053   0.468   1.181
20019WAT     H260300   8.035   0.355   1.065
20020WAT      O60301   8.947   1.211   4.685
20020WAT     H160302   8.895   1.297   4.688
20020WAT     H260303   8.898   1.145   4.628
20021WAT      O60304   3.946   7.916   4.274
20021WAT     H160305   4.014   7.886   4.341
20021WAT     H260306   3.871   7.962   4.321
20022WAT      O60307   3.334   5.415   0.683
20022WAT     H160308   3.241   5.450   0.689
20022WAT     H260309   3.370   5.398   0.776
20023WAT      O60310   9.178   9.000   0.322
20023WAT     H160311   9.200   9.095   0.345
20023WAT     H260312   9.249   8.939   0.360
20024WAT      O60313   7.747   7.755   5.835
20024WAT     H160314   7.845   7.738   5.828
20024WAT     H260315   7.729   7.818   5.910
20025WAT      O60316   3.934   7.909   6.330
20025WAT     H160317   3.850   7.917   6.383
20025WAT     H260318   3.952   7.995   6.282
20026WAT      O60319   9.025   3.013   7.116
20026WAT     H160320   8.960   2.943   7.089
20026WAT     H260321   9.096   2.972   7.173
20027WAT      O60322   6.788   3.250   8.494
20027WAT     H160323   6.709   3.306   8.522
20027WAT     H260324   6.823   3.284   8.407
20028WAT      O60325   3.191   9.122   2.550
20028WAT     H160326   3.108   9.126   2.606
20028WAT     H260327   3.194   9.201   2.489
20029WAT      O60328   5.286   0.049   3.431
20029WAT     H160329   5.222  -0.027   3.440
20029WAT     H260330   5.344   0.053   3.513
20030WAT      O60331   3.724   7.222   2.520
20030WAT     H160332   3.666   7.232   2.439
20030WAT     H260333   3.808   7.275   2.507
20031WAT      O60334   6.057   3.777   8.834
20031WAT     H160335   6.000   3.837   8.889
20031WAT     H260336   6.002   3.737   8.760
20032WAT      O60337   1.254   9.798   7.435
20032WAT     H160338   1.324   9.772   7.368
20032WAT     H260339   1.213   9.716   7.475
20033WAT      O60340   9.470   5.557   4.530
20033WAT     H160341   9.566   5.528   4.527
20033WAT     H260342   9.432   5.535   4.620
20034WAT      O60343   6.377   4.464   7.696
20034WAT     H160344   6.364   4.456   7.598
20034WAT     H260345   6.312   4.403   7.743
20035WAT      O60346   9.856   1.936   7.094
20035WAT     H160347   9.945   1.929   7.048
20035WAT     H260348   9.870   1.963   7.189
20036WAT      O60349   9.093   2.819   8.948
20036WAT     H160350   9.016   2.879   8.967
20036WAT     H260351   9.132   2.841   8.859
20037WAT      O60352   6.266   5.355   9.524
20037WAT     H160353   6.340   5.289   9.537
20037WAT     H260354   6.238   5.390   9.613
20038WAT      O60355   3.486   4.810   7.696
20038WAT     H160356   3.437   4.876   7.639
20038WAT     H260357   3.552   4.859   7.753
20039WAT      O60358   0.041   0.400   3.650
20039WAT     H160359   0.081   0.481   3.692
20039WAT     H260360  -0.022   0.357   3.715
20040WAT      O60361   3.934   2.062   4.109
20040WAT     H160362   4.033   2.069   4.122
20040WAT     H260363   3.899   2.148   4.073
20041WAT      O60364   6.563   5.212   2.455
20041WAT     H160365   6.589   5.122   2.488
20041WAT     H260366   6.573   5.279   2.529
20042WAT      O60367   0.895   5.199   7.744
20042WAT     H160368   0.840   5.187   7.827
20042WAT     H260369   0.835   5.192   7.664
20043WAT      O60370   8.974   3.998   4.752
20043WAT     H160371   9.053   3.944   4.722
20043WAT     H260372   8.895   3.938   4.760
20044WAT      O60373   2.778   0.708   7.426
20044WAT     H160374   2.737   0.783   7.374
20044WAT     H260375   2.708   0.665   7.483
20045WAT      O60376   9.477   6.655   9.579
20045WAT     H160377   9.425   6.740   9.579
20045WAT     H260378   9.575   6.676   9.570
20046WAT      O60379   8.307   7.319   8.007
20046WAT     H160380   8.269   7.234   7.971
20046WAT     H260381   8.306   7.389   7.935
20047WAT      O60382   2.355   0.977   5.996
20047WAT     H160383   2.299   0.950   6.074
20047WAT     H260384   2.383   0.896   5.945
20048WAT      O60385   5.797   5.689   2.588
20048WAT     H160386   5.860   5.628   2.541
20048WAT     H260387   5.708   5.644   2.598
20049WAT      O60388   9.810   0.092   7.342
20049WAT     H160389   9.906   0.096   7.371
20049WAT     H260390   9.795   0.011   7.285
20050WAT      O60391   1.304   6.748   0.383
20050WAT     H160392   1.383   6.799   0.349
20050WAT     H260393   1.223   6.773   0.330
20051WAT      O60394   6.104   8.179   5.251
20051WAT     H160395   6.047   8.108   5.210
20051WAT     H260396   6.166   8.137   5.318
20052WAT      O60397   9.601   5.253   0.257
20052WAT     H160398   9.668   5.277   0.328
20052WAT     H260399   9.614   5.312   0.177
20053WAT      O60400   8.565   7.579   5.801
20053WAT     H160401   8.513   7.504   5.841
20053WAT     H260402   8.504   7.655   5.781
20054WAT      O60403   2.521   3.358   1.194
20054WAT     H160404   2.514   3.457   1.183
20054WAT     H260405   2.540   3.336   1.290
20055WAT      O60406   6.733   2.948   3.707
20055WAT     H160407   6.706   2.858   3.743
20055WAT     H260408   6.738   2.944   3.607
20056WAT      O60409   9.518   4.023   4.857
20056WAT     H160410   9.597   4.026   4.795
20056WAT     H260411   9.543   3.976   4.941
20057WAT      O60412   1.435   8.918   9.098
20057WAT     H160413   1.440   8.977   9.178
20057WAT     H260414   1.480   8.963   9.021
20058WAT      O60415   1.537   5.208   1.312
20058WAT     H160416   1.512   5.132   1.372
20058WAT     H260417   1.453   5.250   1.275
20059WAT      O60418   6.612   3.239   4.267
20059WAT     H160419   6.629   3.327   4.221
20059WAT     H260420   6.606   3.166   4.199
20060WAT      O60421   1.622   6.623   5.144
20060WAT     H160422   1.693   6.678   5.189
20060WAT     H260423   1.662   6.572   5.069
20061WAT      O60424   3.406   0.792   9.429
20061WAT     H160425   3.502   0.817   9.436
20061WAT     H260426   3.389   0.707   9.479
20062WAT      O60427   3.730   5.113   4.413
20062WAT     H160428   3.747   5.067   4.326
20062WAT     H260429   3.766   5.058   4.488
20063WAT      O60430   2.488   1.534   9.036
20063WAT     H160431   2.445   1.619   9.065
20063WAT     H260432   2.578   1.553   8.997
20064WAT      O60433   3.583   0.478   2.883
20064WAT     H160434   3.651   0.445   2.949
20064WAT     H260435   3.626   0.491   2.794
20065WAT      O60436   3.539   4.022   7.934
20065WAT     H160437   3.471   3.964   7.890
20065WAT     H260438   3.508   4.047   8.025
20066WAT      O60439   5.209   6.822   4.812
20066WAT     H160440   5.203   6.749   4.744
20066WAT     H260441   5.142   6.893   4.791
20067WAT      O60442   8.692   5.334   4.495
20067WAT     H160443   8.725   5.241   4.512
20067WAT     H260444   8.720   5.393   4.571
20068WAT      O60445   1.071   1.173   0.517
20068WAT     H160446   1.058   1.116   0.598
20068WAT     H260447   1.161   1.154   0.477
20069WAT      O60448   5.511   8.371   4.911
20069WAT     H160449   5.533   8.305   4.982
20069WAT     H260450   5.579   8.366   4.837
20070WAT      O60451   6.351   1.318   9.883
20070WAT     H160452   6.402   1.241   9.845
20070WAT     H260453   6.256   1.314   9.852
20071WAT      O60454   9.186   5.017   8.970
20071WAT     H160455   9.137   5.101   8.946
20071WAT     H260456   9.284   5.037   8.979
20072WAT      O60457   6.836   2.782   6.137
20072WAT     H160458   6.922   2.795   6.187
20072WAT     H260459   6.845   2.820   6.045
20073WAT      O60460   0.907   2.712   8.029
20073WAT     H160461   0.942   2.627   8.068
20073WAT     H260462   0.903   2.783   8.100
20074WAT      O60463   6.965   1.067   5.441
20074WAT     H160464   7.018   1.132   5.387
20074WAT     H260465   7.026   0.997   5.479
20075WAT      O60466   4.676   9.205   5.948
20075WAT     H160467   4.715   9.254   5.870
20075WAT     H260468   4.633   9.121   5.916
20076WAT      O60469   1.068   0.783   9.707
20076WAT     H160470   1.038   0.741   9.792
20076WAT     H260471   1.116   0.868   9.726
20077WAT      O60472   1.178   0.799   6.455
20077WAT     H160473   1.107   0.851   6.407
20077WAT     H260474   1.135   0.727   6.508
20078WAT      O60475   7.142   6.111   0.760
20078WAT     H160476   7.186   6.125   0.849
20078WAT     H260477   7.106   6.197   0.727
20079WAT      O60478   1.294   6.584   1.977
20079WAT     H160479   1.379   6.616   1.936
20079WAT     H260480   1.226   6.568   1.905
20080WAT      O60481   0.466   8.536   7.090
20080WAT     H160482   0.490   8.589   7.171
20080WAT     H260483   0.456   8.439   7.115
20081WAT      O60484   4.277   5.110   5.356
20081WAT     H160485   4.373   5.092   5.377
20081WAT     H260486   4.223   5.028   5.374
20082WAT      O60487   0.747   3.810   3.663
20082WAT     H160488   0.746   3.854   3.573
20082WAT     H260489   0.762   3.880   3.733
20083WAT      O60490   3.694   8.573   8.983
20083WAT     H160491   3.622   8.559   8.916
20083WAT     H260492   3.731   8.484   9.011
20084WAT      O60493   3.853   8.664   0.375
20084WAT     H160494   3.895   8.754   0.386
20084WAT     H260495   3.915   8.594   0.411
20085WAT      O60496   4.831   2.449   4.684
20085WAT     H160497   4.849   2.441   4.586
20085WAT     H260498   4.758   2.516   4.699
20086WAT      O60499   8.053   4.214   0.148
20086WAT     H160500   8.012   4.275   0.081
20086WAT     H260501   8.017   4.122   0.135
20087WAT      O60502   6.715   0.450   0.615
20087WAT     H160503   6.765   0.386   0.556
20087WAT     H260504   6.773   0.477   0.692
20088WAT      O60505   5.574   9.296   8.190
20088WAT     H160506   5.638   9.227   8.155
20088WAT     H260507   5.504   9.315   8.122
20089WAT      O60508   8.245   4.133   3.733
20089WAT     H160509   8.154   4.173   3.741
20089WAT     H260510   8.306   4.176   3.799
20090WAT      O60511   3.747   2.272   7.777
20090WAT     H160512   3.827   2.219   7.806
20090WAT     H260513   3.768   2.370   7.781
20091WAT      O60514   6.037   5.404   3.045
20091WAT     H160515   5.984   5.466   2.986
20091WAT     H260516   6.130   5.396   3.009
20092WAT      O60517   2.371   7.445   1.121
20092WAT     H160518   2.431   7.462   1.200
20092WAT     H260519   2.336   7.532   1.087
20093WAT      O60520   6.574   4.555   2.367
20093WAT     H160521   6.620   4.532   2.453
20093WAT     H260522   6.519   4.637   2.379
20094WAT      O60523   7.562   1.206   3.844
20094WAT     H160524   7.475   1.250   3.868
20094WAT     H260525   7.544   1.114   3.809
20095WAT      O60526   4.085   3.262   8.297
20095WAT     H160527   4.108   3.322   8.373
20095WAT     H260528   4.005   3.298   8.249
20096WAT      O60529   0.793   2.726   5.839
20096WAT     H160530   0.719   2.721   5.772
20096WAT     H260531   0.868   2.667   5.809
20097WAT      O60532   7.412   7.102   1.243
20097WAT     H160533   7.341   7.128   1.309
20097WAT     H260534   7.385   7.134   1.152
20098WAT      O60535   7.084   2.032   4.398
20098WAT     H160536   7.090   2.055   4.495
20098WAT     H260537   6.990   2.044   4.367
20099WAT      O60538   2.372   0.227   0.923
20099WAT     H160539   2.401   0.322   0.931
20099WAT     H260540   2.368   0.201   0.826
20100WAT      O60541   8.143   6.152   0.710
20100WAT     H160542   8.106   6.167   0.801
20100WAT     H260543   8.240   6.126   0.717
20101WAT      O60544   5.863   1.126   6.318
20101WAT     H160545   5.932   1.104   6.249
20101WAT     H260546   5.848   1.047   6.377
20102WAT      O60547   7.373   5.176   8.262
20102WAT     H160548   7.306   5.156   8.334
20102WAT     H260549   7.378   5.274   8.247
20103WAT      O60550   6.516   1.873   3.908
20103WAT     H160551   6.428   1.876   3.861
20103WAT     H260552   6.547   1.966   3.927
20104WAT      O60553   1.818   2.268   6.161
20104WAT     H160554   1.793   2.183   6.208
20104WAT     H260555   1.909   2.259   6.121
20105WAT      O60556   7.126   9.795   9.438
20105WAT     H160557   7.208   9.809   9.382
20105WAT     H260558   7.141   9.717   9.500
20106WAT      O60559   3.530   0.327   5.485
20106WAT     H160560   3.580   0.240   5.486
20106WAT     H260561   3.593   0.402   5.501
20107WAT      O60562   4.237   4.208   1.850
20107WAT     H160563   4.261   4.152   1.771
20107WAT     H260564   4.253   4.305   1.828
20108WAT      O60565   3.410   9.605   8.743
20108WAT     H160566   3.507   9.582   8.756
20108WAT     H260567   3.403   9.680   8.677
20109WAT      O60568   6.707   9.484   2.121
20109WAT     H160569   6.748   9.574   2.106
20109WAT     H260570   6.608   9.489   2.103
20110WAT      O60571   8.022   0.786   6.100
20110WAT     H160572   8.052   0.867   6.151
20110WAT     H260573   7.995   0.813   6.008
20111WAT      O60574   6.288   5.655   0.396
20111WAT     H160575   6.300   5.745   0.353
20111WAT     H260576   6.346   5.650   0.478
20112WAT      O60577   3.085   7.474   4.852
20112WAT     H160578   3.086   7.463   4.951
20112WAT     H260579   3.008   7.532   4.825
20113WAT      O60580   3.868   1.650   3.934
20113WAT     H160581   3.834   1.740   3.905
20113WAT     H260582   3.922   1.610   3.860
20114WAT      O60583   1.763   8.582   6.992
20114WAT     H160584   1.827   8.533   6.934
20114WAT     H260585   1.687   8.522   7.017
20115WAT      O60586   1.894   7.430   1.572
20115WAT     H160587   1.901   7.397   1.666
20115WAT     H260588   1.905   7.530   1.571
20116WAT      O60589   8.637   7.435   5.213
20116WAT     H160590   8.646   7.475   5.122
20116WAT     H260591   8.584   7.498   5.271
20117WAT      O60592   5.210   2.165   9.596
20117WAT     H160593   5.301   2.155   9.638
20117WAT     H260594   5.185   2.262   9.595
20118WAT      O60595   3.659   2.057   2.355
20118WAT     H160596   3.671   2.135   2.293
20118WAT     H260597   3.699   2.079   2.444
20119WAT      O60598   6.946   2.840   2.321
20119WAT     H160599   6.889   2.878   2.394
20119WAT     H260600   7.024   2.900   2.306
20120WAT      O60601   1.975   7.483   3.042
20120WAT     H160602   1.998   7.579   3.026
20120WAT     H260603   1.920   7.449   2.965
20121WAT      O60604   7.651   6.194   1.163
20121WAT     H160605   7.750   6.195   1.153
20121WAT     H260606   7.627   6.191   1.260
20122WAT      O60607   4.547   2.430   6.302
20122WAT     H160608   4.526   2.333   6.287
20122WAT     H260609   4.643   2.446   6.282
20123WAT      O60610   4.086   4.480   8.034
20123WAT     H160611   4.103   4.578   8.025
20123WAT     H260612   4.017   4.452   7.967
20124WAT      O60613   3.123   5.316   0.954
20124WAT     H160614   3.219   5.345   0.947
20124WAT     H260615   3.065   5.396   0.964
20125WAT      O60616   0.292   2.222   3.963
20125WAT     H160617   0.363   2.287   3.934
20125WAT     H260618   0.203   2.268   3.964
20126WAT      O60619   6.115   3.507   2.998
20126WAT     H160620   6.067   3.455   2.927
20126WAT     H260621   6.213   3.512   2.976
20127WAT      O60622   9.790   4.775   1.777
20127WAT     H160623   9.883   4.812   1.772
20127WAT     H260624   9.745   4.786   1.688
20128WAT      O60625   6.663   7.801   6.791
20128WAT     H160626   6.669   7.725   6.856
20128WAT     H260627   6.600   7.777   6.717
20129WAT      O60628   9.279   8.184   2.268
20129WAT     H160629   9.232   8.175   2.356
20129WAT     H260630   9.257   8.273   2.227
20130WAT      O60631   4.961   3.476   7.224
20130WAT     H160632   4.882   3.530   7.253
20130WAT     H260633   4.932   3.409   7.155
20131WAT      O60634   7.941   3.956   2.663
20131WAT     H160635   7.847   3.924   2.675
20131WAT     H260636   7.991   3.892   2.604
20132WAT      O60637   5.127   9.058   7.721
20132WAT     H160638   5.203   9.043   7.784
20132WAT     H260639   5.042   9.025   7.763
20133WAT      O60640   4.637   7.291   4.509
20133WAT     H160641   4.691   7.206   4.511
20133WAT     H260642   4.558   7.278   4.449
20134WAT      O60643   5.835   0.789   0.540
20134WAT     H160644   5.899   0.785   0.463
20134WAT     H260645   5.741   0.789   0.506
20135WAT      O60646   7.985   8.590   2.532
20135WAT     H160647   8.018   8.539   2.611
20135WAT     H260648   7.888   8.613   2.546
20136WAT      O60649   4.686   5.391   8.474
20136WAT     H160650   4.602   5.405   8.421
20136WAT     H260651   4.664   5.396   8.572
20137WAT      O60652   6.468   5.625   0.628
20137WAT     H160653   6.499   5.530   0.634
20137WAT     H260654   6.420   5.650   0.713
20138WAT      O60655   2.024   7.793   4.661
20138WAT     H160656   2.110   7.745   4.639
20138WAT     H260657   1.951   7.757   4.604
20139WAT      O60658   7.648   6.043   4.434
20139WAT     H160659   7.663   6.055   4.336
20139WAT     H260660   7.686   5.956   4.464
20140WAT      O60661   2.311   8.526   5.094
20140WAT     H160662   2.383   8.465   5.128
20140WAT     H260663   2.304   8.517   4.995
20141WAT      O60664   5.637   3.707   6.813
20141WAT     H160665   5.736   3.708   6.829
20141WAT     H260666   5.602   3.613   6.824
20142WAT      O60667   0.332   8.160   6.714
20142WAT     H160668   0.369   8.253   6.702
20142WAT     H260669   0.250   8.150   6.658
20143WAT      O60670   1.539   0.968   0.448
20143WAT     H160671   1.509   0.902   0.517
20143WAT     H260672   1.638   0.975   0.449
20144WAT      O60673   5.881   9.137   2.322
20144WAT     H160674   5.919   9.143   2.229
20144WAT     H260675   5.871   9.228   2.360
20145WAT      O60676   5.443   9.609   8.492
20145WAT     H160677   5.374   9.537   8.481
20145WAT     H260678   5.520   9.592   8.431
20146WAT      O60679   2.700   8.501   7.567
20146WAT     H160680   2.671   8.470   7.658
20146WAT     H260681   2.794   8.471   7.551
20147WAT      O60682   5.495   5.913   3.687
20147WAT     H160683   5.502   5.864   3.775
20147WAT     H260684   5.552   5.867   3.619
20148WAT      O60685   9.384   5.609   6.701
20148WAT     H160686   9.469   5.579   6.656
20148WAT     H260687   9.345   5.533   6.753
20149WAT      O60688   5.838   1.566   3.034
20149WAT     H160689   5.826   1.602   2.941
20149WAT     H260690   5.750   1.569   3.082
20150WAT      O60691   5.123   9.248   6.490
20150WAT     H160692   5.087   9.291   6.407
20150WAT     H260693   5.132   9.149   6.475
20151WAT      O60694   7.030   4.884   6.784
20151WAT     H160695   7.116   4.923   6.751
20151WAT     H260696   6.961   4.888   6.711
20152WAT      O60697   7.781   7.113   3.473
20152WAT     H160698   7.870   7.155   3.450
20152WAT     H260699   7.757   7.046   3.403
20153WAT      O60700   5.463   4.169   2.635
20153WAT     H160701   5.546   4.147   2.687
20153WAT     H260702   5.490   4.213   2.549
20154WAT      O60703   2.798   8.894   5.541
20154WAT     H160704   2.876   8.834   5.526
20154WAT     H260705   2.775   8.896   5.639
20155WAT      O60706   4.839   0.150   9.816
20155WAT     H160707   4.921   0.199   9.846
20155WAT     H260708   4.758   0.202   9.842
20156WAT      O60709   1.126   1.398   2.074
20156WAT     H160710   1.073   1.482   2.089
20156WAT     H260711   1.164   1.398   1.982
20157WAT      O60712   9.129   3.166   6.504
20157WAT     H160713   9.173   3.122   6.583
20157WAT     H260714   9.039   3.200   6.532
20158WAT      O60715   8.159   0.597   6.246
20158WAT     H160716   8.105   0.664   6.195
20158WAT     H260717   8.256   0.619   6.238
20159WAT      O60718   3.374   3.856   7.790
20159WAT     H160719   3.309   3.793   7.832
20159WAT     H260720   3.407   3.817   7.704
20160WAT      O60721   7.837   2.615   4.426
20160WAT     H160722   7.863   2.634   4.331
20160WAT     H260723   7.919   2.609   4.483
20161WAT      O60724   6.666   4.650   3.861
20161WAT     H160725   6.710   4.560   3.862
20161WAT     H260726   6.703   4.706   3.935
20162WAT      O60727   4.879   8.036   9.608
20162WAT     H160728   4.888   7.964   9.539
20162WAT     H260729   4.964   8.089   9.611
20163WAT      O60730   4.306   8.905   7.325
20163WAT     H160731   4.396   8.906   7.369
20163WAT     H260732   4.317   8.913   7.226
20164WAT      O60733   0.446   6.679   3.734
20164WAT     H160734   0.494   6.761   3.765
20164WAT     H260735   0.347   6.694   3.740
20165WAT      O60736   8.401   0.475   4.189
20165WAT     H160737   8.414   0.573   4.178
20165WAT     H260738   8.304   0.453   4.179
20166WAT      O60739   9.441   1.408   3.326
20166WAT     H160740   9.383   1.416   3.407
20166WAT     H260741   9.521   1.352   3.348
20167WAT      O60742   6.458   4.717   3.672
20167WAT     H160743   6.384   4.666   3.715
20167WAT     H260744   6.535   4.725   3.736
20168WAT      O60745   0.983   9.692   0.643
20168WAT     H160746   1.041   9.663   0.566
20168WAT     H260747   0.895   9.643   0.638
20169WAT      O60748   6.192   7.339   8.630
20169WAT     H160749   6.236   7.393   8.558
20169WAT     H260750   6.172   7.398   8.708
20170WAT      O60751   2.840   2.783   1.735
20170WAT     H160752   2.770   2.759   1.802
20170WAT     H260753   2.813   2.866   1.686
20171WAT      O60754   3.408   7.732   8.050
20171WAT     H160755   3.439   7.821   8.083
20171WAT     H260756   3.318   7.711   8.088
20172WAT      O60757   3.577   6.992   1.505
20172WAT     H160758   3.589   7.003   1.604
20172WAT     H260759   3.653   7.034   1.456
20173WAT      O60760   6.845   2.968   8.470
20173WAT     H160761   6.831   3.061   8.503
20173WAT     H260762   6.942   2.943   8.480
20174WAT      O60763   8.490   0.162   7.603
20174WAT     H160764   8.505   0.078   7.654
20174WAT     H260765   8.482   0.142   7.505
20175WAT      O60766   4.895   3.975   6.278
20175WAT     H160767   4.936   4.058   6.239
20175WAT     H260768   4.805   3.959   6.236
20176WAT      O60769   8.786   3.154   8.690
20176WAT     H160770   8.794   3.181   8.594
20176WAT     H260771   8.852   3.207   8.744
20177WAT      O60772   3.412   5.579   9.672
20177WAT     H160773   3.465   5.657   9.641
20177WAT     H260774   3.462   5.531   9.744
20178WAT      O60775   3.693   4.084   0.708
20178WAT     H160776   3.756   4.047   0.640
20178WAT     H260777   3.715   4.180   0.725
20179WAT      O60778   3.798   2.563   2.140
20179WAT     H160779   3.865   2.553   2.214
20179WAT     H260780   3.743   2.644   2.156
20180WAT      O60781   1.152   6.821   0.038
20180WAT     H160782   1.080   6.848  -0.026
20180WAT     H260783   1.115   6.821   0.131
20181WAT      O60784   5.176   7.570   4.304
20181WAT     H160785   5.259   7.610   4.345
20181WAT     H260786   5.128   7.516   4.373
20182WAT      O60787   6.060   4.937   2.692
20182WAT     H160788   6.156   4.910   2.693
20182WAT     H260789   6.002   4.855   2.690
20183WAT      O60790   9.397   7.453   5.980
20183WAT     H160791   9.336   7.504   5.920
20183WAT     H260792   9.471   7.413   5.927
20184WAT      O60793   2.800   1.565   4.581
20184WAT     H160794   2.814   1.469   4.608
20184WAT     H260795   2.709   1.576   4.541
20185WAT      O60796   4.751   3.359   6.254
20185WAT     H160797   4.833   3.405   6.288
20185WAT     H260798   4.775   3.269   6.219
20186WAT      O60799   1.167   9.626   5.297
20186WAT     H160800   1.087   9.589   5.345
20186WAT     H260801   1.225   9.550   5.268
20187WAT      O60802   6.788   0.526   2.702
20187WAT     H160803   6.859   0.594   2.718
20187WAT     H260804   6.726   0.559   2.631
20188WAT      O60805   6.367   9.485   0.567
20188WAT     H160806   6.340   9.559   0.628
20188WAT     H260807   6.360   9.516   0.472
20189WAT      O60808   8.477   1.228   3.769
20189WAT     H160809   8.573   1.214   3.744
20189WAT     H260810   8.423   1.240   3.686
20190WAT      O60811   8.185   0.672   4.414
20190WAT     H160812   8.125   0.594   4.393
20190WAT     H260813   8.197   0.728   4.331
20191WAT      O60814   8.437   0.362   4.964
20191WAT     H160815   8.453   0.441   4.905
20191WAT     H260816   8.454   0.278   4.912
20192WAT      O60817   5.039   2.791   6.723
20192WAT     H160818   5.091   2.708   6.742
20192WAT     H260819   4.949   2.766   6.687
20193WAT      O60820   7.673   9.679   7.588
20193WAT     H160821   7.697   9.771   7.620
20193WAT     H260822   7.588   9.650   7.631
20194WAT      O60823   2.065   4.299   0.553
20194WAT     H160824   2.047   4.396   0.565
20194WAT     H260825   1.990   4.246   0.593
20195WAT      O60826   5.737   3.467   5.873
20195WAT     H160827   5.799   3.423   5.808
20195WAT     H260828   5.745   3.567   5.864
20196WAT      O60829   9.505   8.053   8.095
20196WAT     H160830   9.426   8.033   8.153
20196WAT     H260831   9.477   8.117   8.022
20197WAT      O60832   8.157   5.600   2.631
20197WAT     H160833   8.141   5.651   2.546
20197WAT     H260834   8.077   5.609   2.691
20198WAT      O60835   1.763   4.745   5.717
20198WAT     H160836   1.726   4.653   5.731
20198WAT     H260837   1.852   4.738   5.672
20199WAT      O60838   5.010   1.672   5.242
20199WAT     H160839   4.927   1.659   5.296
20199WAT     H260840   5.088   1.638   5.293
20200WAT      O60841   3.138   6.857   6.472
20200WAT     H160842   3.161   6.912   6.391
20200WAT     H260843   3.067   6.792   6.448
20201WAT      O60844   7.679   2.129   7.966
20201WAT     H160845   7.748   2.080   8.019
20201WAT     H260846   7.678   2.225   7.992
20202WAT      O60847   2.853   5.791   1.891
20202WAT     H160848   2.861   5.765   1.987
20202WAT     H260849   2.917   5.737   1.836
20203WAT      O60850   5.866   2.475   1.982
20203WAT     H160851   5.773   2.510   1.978
20203WAT     H260852   5.897   2.451   1.889
20204WAT      O60853   7.147   4.046   3.804
20204WAT     H160854   7.135   4.007   3.895
20204WAT     H260855   7.188   3.978   3.744
20205WAT      O60856   3.108   6.589   3.551
20205WAT     H160857   3.044   6.571   3.625
20205WAT     H260858   3.150   6.503   3.522
20206WAT      O60859   4.751   1.870   2.687
20206WAT     H160860   4.711   1.799   2.745
20206WAT     H260861   4.708   1.958   2.707
20207WAT      O60862   5.224   2.446   5.854
20207WAT     H160863   5.203   2.388   5.933
20207WAT     H260864   5.156   2.519   5.847
20208WAT      O60865   8.888   9.006   0.625
20208WAT     H160866   8.845   8.999   0.535
20208WAT     H260867   8.960   9.076   0.622
20209WAT      O60868   5.131   1.094   3.517
20209WAT     H160869   5.171   1.055   3.600
20209WAT     H260870   5.063   1.163   3.542
20210WAT      O60871   1.488   9.068   9.359
20210WAT     H160872   1.393   9.095   9.344
20210WAT     H260873   1.511   9.080   9.456
20211WAT      O60874   0.079   9.663   7.620
20211WAT     H160875   0.120   9.681   7.709
20211WAT     H260876  -0.020   9.678   7.625
20212WAT      O60877   0.640   4.087   1.976
20212WAT     H160878   0.653   4.036   2.061
20212WAT     H260879   0.570   4.041   1.921
20213WAT      O60880   2.609   4.924   6.032
20213WAT     H160881   2.618   4.903   6.130
20213WAT     H260882   2.512   4.931   6.008
20214WAT      O60883   2.625   8.077   2.014
20214WAT     H160884   2.576   8.020   2.081
20214WAT     H260885   2.703   8.026   1.979
20215WAT      O60886   0.876   3.080   6.983
20215WAT     H160887   0.811   3.018   6.939
20215WAT     H260888   0.886   3.163   6.928
20216WAT      O60889   7.608   2.300   6.494
20216WAT     H160890   7.649   2.217   6.456
20216WAT     H260891   7.603   2.292   6.594
20217WAT      O60892   8.495   6.147   4.590
20217WAT     H160893   8.555   6.101   4.525
20217WAT     H260894   8.459   6.230   4.549
20218WAT      O60895   5.784   1.074   8.097
20218WAT     H160896   5.841   1.155   8.083
20218WAT     H260897   5.712   1.095   8.164
20219WAT      O60898   8.412   5.778   6.028
20219WAT     H160899   8.455   5.858   6.070
20219WAT     H260900   8.482   5.722   5.984
20220WAT      O60901   0.432   7.168   5.399
20220WAT     H160902   0.517   7.141   5.354
20220WAT     H260903   0.448   7.249   5.455
20221WAT      O60904   7.816   7.323   4.128
20221WAT     H160905   7.882   7.248   4.117
20221WAT     H260906   7.775   7.317   4.219
20222WAT      O60907   7.828   3.004   8.493
20222WAT     H160908   7.927   3.016   8.500
20222WAT     H260909   7.807   2.906   8.488
20223WAT      O60910   5.363   4.306   2.223
20223WAT     H160911   5.301   4.322   2.300
20223WAT     H260912   5.319   4.245   2.157
20224WAT      O60913   3.345   5.257   8.185
20224WAT     H160914   3.382   5.348   8.205
20224WAT     H260915   3.246   5.259   8.190
20225WAT      O60916   7.137   9.082   6.750
20225WAT     H160917   7.054   9.108   6.699
20225WAT     H260918   7.134   8.984   6.768
20226WAT      O60919   7.027   8.535   0.548
20226WAT     H160920   7.095   8.499   0.612
20226WAT     H260921   7.074   8.579   0.472
20227WAT      O60922   7.302   1.808   1.075
20227WAT     H160923   7.288   1.884   1.011
20227WAT     H260924   7.219   1.793   1.128
20228WAT      O60925   2.653   2.670   4.845
20228WAT     H160926   2.564   2.688   4.889
20228WAT     H260927   2.652   2.707   4.752
20229WAT      O60928   5.572   4.548   6.183
20229WAT     H160929   5.575   4.539   6.283
20229WAT     H260930   5.664   4.564   6.148
20230WAT      O60931   2.423   9.194   3.635
20230WAT     H160932   2.421   9.141   3.550
20230WAT     H260933   2.341   9.252   3.639
20231WAT      O60934   8.419   1.369   8.514
20231WAT     H160935   8.351   1.381   8.442
20231WAT     H260936   8.476   1.451   8.520
20232WAT      O60937   4.719   3.399   4.371
20232WAT     H160938   4.680   3.330   4.431
20232WAT     H260939   4.779   3.356   4.304
20233WAT      O60940   1.199   1.837   8.551
20233WAT     H160941   1.254   1.921   8.547
20233WAT     H260942   1.257   1.761   8.582
20234WAT      O60943   7.305   8.708   8.527
20234WAT     H160944   7.318   8.611   8.508
20234WAT     H260945   7.335   8.728   8.621
20235WAT      O60946   1.822   1.835   9.227
20235WAT     H160947   1.769   1.876   9.302
20235WAT     H260948   1.845   1.740   9.251
20236WAT      O60949   7.596   4.019   6.634
20236WAT     H160950   7.598   3.942   6.570
20236WAT     H260951   7.653   3.999   6.714
20237WAT      O60952   7.806   5.505   7.245
20237WAT     H160953   7.877   5.576   7.250
20237WAT     H260954   7.847   5.416   7.267
20238WAT      O60955   6.861   6.542   2.503
20238WAT     H160956   6.771   6.545   2.461
20238WAT     H260957   6.852   6.553   2.602
20239WAT      O60958   4.867   2.179   0.116
20239WAT     H160959   4.856   2.277   0.097
20239WAT     H260960   4.777   2.137   0.131
20240WAT      O60961   2.730   9.384   0.442
20240WAT     H160962   2.779   9.370   0.355
20240WAT     H260963   2.770   9.324   0.512
20241WAT      O60964   3.962   2.126   6.271
20241WAT     H160965   3.997   2.052   6.327
20241WAT     H260966   4.029   2.200   6.267
20242WAT      O60967   2.835   7.295   3.147
20242WAT     H160968   2.813   7.377   3.199
20242WAT     H260969   2.753   7.240   3.135
20243WAT      O60970   7.292   5.409   5.283
20243WAT     H160971   7.307   5.321   5.238
20243WAT     H260972   7.310   5.483   5.219
20244WAT      O60973   4.697   0.823   3.726
20244WAT     H160974   4.765   0.774   3.781
20244WAT     H260975   4.631   0.757   3.690
20245WAT      O60976   6.038   9.463   1.476
20245WAT     H160977   5.964   9.494   1.536
20245WAT     H260978   6.062   9.537   1.412
20246WAT      O60979   5.204   8.763   4.407
20246WAT     H160980   5.139   8.757   4.332
20246WAT     H260981   5.160   8.806   4.487
20247WAT      O60982   3.913   4.423   6.293
20247WAT     H160983   3.871   4.443   6.205
20247WAT     H260984   3.868   4.343   6.334
20248WAT      O60985   8.288   3.614   7.968
20248WAT     H160986   8.301   3.677   8.044
20248WAT     H260987   8.354   3.539   7.975
20249WAT      O60988   5.332   0.218   5.363
20249WAT     H160989   5.269   0.296   5.366
20249WAT     H260990   5.279   0.133   5.359
20250WAT      O60991   8.932   8.169   8.515
20250WAT     H160992   8.931   8.149   8.612
20250WAT     H260993   9.003   8.238   8.496
20251WAT      O60994   3.230   2.834   2.364
20251WAT     H160995   3.240   2.907   2.432
20251WAT     H260996   3.223   2.874   2.273
20252WAT      O60997   1.556   4.569   8.558
20252WAT     H160998   1.581   4.535   8.649
20252WAT     H260999   1.590   4.662   8.547
20253WAT      O61000   9.460   0.447   9.213
20253WAT     H161001   9.454   0.497   9.127
20253WAT     H261002   9.555   0.419   9.229
20254WAT      O61003   1.958   3.739   8.177
20254WAT     H161004   2.043   3.719   8.129
20254WAT     H261005   1.889   3.672   8.151
20255WAT      O61006   3.537   0.613   7.245
20255WAT     H161007   3.528   0.514   7.254
20255WAT     H261008   3.450   0.652   7.215
20256WAT      O61009   0.177   8.835   3.470
20256WAT     H161010   0.128   8.856   3.385
20256WAT     H261011   0.133   8.883   3.546
20257WAT      O61012   4.134   7.077   5.756
20257WAT     H161013   4.066   7.058   5.827
20257WAT     H261014   4.226   7.072   5.796
20258WAT      O61015   2.198   5.820   9.850
20258WAT     H161016   2.213   5.913   9.883
20258WAT     H261017   2.215   5.817   9.751
20259WAT      O61018   5.711   6.621   1.802
20259WAT     H161019   5.760   6.637   1.888
20259WAT     H261020   5.737   6.531   1.765
20260WAT      O61021   5.439   9.198   4.943
20260WAT     H161022   5.426   9.136   5.021
20260WAT     H261023   5.484   9.149   4.868
20261WAT      O61024   7.819   1.414   4.787
20261WAT     H161025   7.898   1.433   4.729
20261WAT     H261026   7.850   1.386   4.877
20262WAT      O61027   9.015   0.580   9.096
20262WAT     H161028   8.967   0.623   9.019
20262WAT     H261029   9.060   0.497   9.065
20263WAT      O61030   8.034   2.207   5.321
20263WAT     H161031   8.124   2.182   5.358
20263WAT     H261032   8.005   2.294   5.361
20264WAT      O61033   2.161   2.207   2.438
20264WAT     H161034   2.254   2.236   2.417
20264WAT     H261035   2.164   2.129   2.500
20265WAT      O61036   0.117   4.919   7.763
20265WAT     H161037   0.034   4.967   7.791
20265WAT     H261038   0.193   4.985   7.759
20266WAT      O61039   7.683   4.136   0.366
20266WAT     H161040   7.625   4.090   0.433
20266WAT     H261041   7.698   4.076   0.288
20267WAT      O61042   9.568   5.207   0.640
20267WAT     H161043   9.614   5.252   0.716
20267WAT     H261044   9.627   5.137   0.601
20268WAT      O61045   2.599   1.192   5.613
20268WAT     H161046   2.507   1.221   5.586
20268WAT     H261047   2.616   1.219   5.708
20269WAT      O61048   4.891   7.077   6.239
20269WAT     H161049   4.874   7.174   6.222
20269WAT     H261050   4.803   7.028   6.240
20270WAT      O61051   7.634   0.972   4.125
20270WAT     H161052   7.614   0.986   4.028
20270WAT     H261053   7.604   0.881   4.152
20271WAT      O61054   6.087   3.052   1.233
20271WAT     H161055   6.120   3.142   1.206
20271WAT     H261056   6.154   2.982   1.207
20272WAT      O61057   6.227   3.873   5.724
20272WAT     H161058   6.322   3.896   5.705
20272WAT     H261059   6.207   3.783   5.685
20273WAT      O61060   8.649   4.112   2.408
20273WAT     H161061   8.670   4.099   2.505
20273WAT     H261062   8.569   4.171   2.399
20274WAT      O61063   7.227   1.995   7.997
20274WAT     H161064   7.285   1.954   7.926
20274WAT     H261065   7.194   1.922   8.057
20275WAT      O61066   3.685   7.963   1.911
20275WAT     H161067   3.706   8.020   1.831
20275WAT     H261068   3.764   7.908   1.936
20276WAT      O61069   3.572   4.160   7.397
20276WAT     H161070   3.480   4.149   7.359
20276WAT     H261071   3.566   4.181   7.494
20277WAT      O61072   1.382   6.009   6.436
20277WAT     H161073   1.289   6.045   6.434
20277WAT     H261074   1.379   5.910   6.449
20278WAT      O61075   2.107   5.730   2.811
20278WAT     H161076   2.119   5.750   2.908
20278WAT     H261077   2.117   5.632   2.796
20279WAT      O61078   3.826   8.173   8.138
20279WAT     H161079   3.768   8.185   8.057
20279WAT     H261080   3.910   8.226   8.126
20280WAT      O61081   9.588   4.868   1.298
20280WAT     H161082   9.646   4.829   1.227
20280WAT     H261083   9.495   4.878   1.263
20281WAT      O61084   3.217   8.547   3.748
20281WAT     H161085   3.310   8.584   3.754
20281WAT     H261086   3.208   8.492   3.665
20282WAT      O61087   5.469   4.836   3.613
20282WAT     H161088   5.548   4.830   3.553
20282WAT     H261089   5.438   4.744   3.636
20283WAT      O61090   2.146   2.172   9.422
20283WAT     H161091   2.086   2.200   9.348
20283WAT     H261092   2.182   2.081   9.403
20284WAT      O61093   7.064   6.834   8.144
20284WAT     H161094   7.121   6.763   8.184
20284WAT     H261095   6.979   6.793   8.109
20285WAT      O61096   9.740   9.765   8.699
20285WAT     H161097   9.812   9.821   8.657
20285WAT     H261098   9.682   9.823   8.756
20286WAT      O61099   3.663   8.982   3.752
20286WAT     H161100   3.594   8.912   3.736
20286WAT     H261101   3.750   8.939   3.776
20287WAT      O61102   2.416   1.573   4.803
20287WAT     H161103   2.457   1.534   4.721
20287WAT     H261104   2.462   1.659   4.826
20288WAT      O61105   9.298   6.295   2.470
20288WAT     H161106   9.314   6.268   2.375
20288WAT     H261107   9.362   6.246   2.530
20289WAT      O61108   3.078   9.564   9.395
20289WAT     H161109   2.979   9.569   9.382
20289WAT     H261110   3.123   9.552   9.307
20290WAT      O61111   5.014   8.998   5.711
20290WAT     H161112   5.081   9.011   5.638
20290WAT     H261113   5.010   8.902   5.737
20291WAT      O61114   7.278   8.263   4.893
20291WAT     H161115   7.320   8.196   4.832
20291WAT     H261116   7.222   8.326   4.840
20292WAT      O61117   0.404   7.511   8.579
20292WAT     H161118   0.385   7.416   8.554
20292WAT     H261119   0.323   7.550   8.623
20293WAT      O61120   2.301   1.798   1.869
20293WAT     H161121   2.241   1.775   1.945
20293WAT     H261122   2.246   1.819   1.788
20294WAT      O61123   0.943   4.802   1.955
20294WAT     H161124   0.956   4.749   2.039
20294WAT     H261125   1.013   4.778   1.888
20295WAT      O61126   8.557   0.903   1.080
20295WAT     H161127   8.474   0.905   1.024
20295WAT     H261128   8.598   0.812   1.077
20296WAT      O61129   6.451   3.051   2.289
20296WAT     H161130   6.385   2.990   2.245
20296WAT     H261131   6.440   3.046   2.388
20297WAT      O61132   3.800   6.632   7.996
20297WAT     H161133   3.896   6.659   7.997
20297WAT     H261134   3.759   6.650   8.086
20298WAT      O61135   1.182   9.769   5.833
20298WAT     H161136   1.089   9.774   5.795
20298WAT     H261137   1.206   9.674   5.850
20299WAT      O61138   1.392   1.382   7.873
20299WAT     H161139   1.408   1.286   7.896
20299WAT     H261140   1.428   1.402   7.782
20300WAT      O61141   8.797   1.541   5.170
20300WAT     H161142   8.874   1.602   5.152
20300WAT     H261143   8.764   1.555   5.263
20301WAT      O61144   8.425   2.757   4.142
20301WAT     H161145   8.384   2.715   4.061
20301WAT     H261146   8.516   2.792   4.119
20302WAT      O61147   4.527   6.656   7.016
20302WAT     H161148   4.446   6.610   7.053
20302WAT     H261149   4.589   6.587   6.978
20303WAT      O61150   9.583   5.475   3.193
20303WAT     H161151   9.582   5.496   3.290
20303WAT     H261152   9.552   5.381   3.178
20304WAT      O61153   0.592   7.142   7.400
20304WAT     H161154   0.562   7.225   7.354
20304WAT     H261155   0.556   7.141   7.494
20305WAT      O61156   6.710   8.257   8.671
20305WAT     H161157   6.692   8.344   8.716
20305WAT     H261158   6.684   8.262   8.575
20306WAT      O61159   7.530   5.224   8.558
20306WAT     H161160   7.616   5.193   8.518
20306WAT     H261161   7.466   5.148   8.562
20307WAT      O61162   2.039   7.426   1.350
20307WAT     H161163   2.123   7.474   1.375
20307WAT     H261164   1.983   7.412   1.431
20308WAT      O61165   7.788   1.850   6.895
20308WAT     H161166   7.760   1.945   6.906
20308WAT     H261167   7.731   1.791   6.952
20309WAT      O61168   8.955   0.075   4.694
20309WAT     H161169   8.974   0.165   4.653
20309WAT     H261170   9.024   0.010   4.663
20310WAT      O61171   3.311   5.271   6.325
20310WAT     H161172   3.366   5.224   6.394
20310WAT     H261173   3.254   5.340   6.369
20311WAT      O61174   2.011   8.702   8.364
20311WAT     H161175   2.109   8.714   8.380
20311WAT     H261176   1.960   8.760   8.428
20312WAT      O61177   6.093   1.932   3.013
20312WAT     H161178   6.137   1.858   3.064
20312WAT     H261179   6.018   1.895   2.959
20313WAT      O61180   2.271   4.988   0.048
20313WAT     H161181   2.277   5.031  -0.042
20313WAT     H261182   2.323   5.042   0.114
20314WAT      O61183   8.067   0.582   9.218
20314WAT     H161184   8.082   0.546   9.310
20314WAT     H261185   7.969   0.589   9.200
20315WAT      O61186   4.921   0.979   9.075
20315WAT     H161187   4.875   1.060   9.040
20315WAT     H261188   4.957   0.998   9.166
20316WAT      O61189   9.891   2.019   6.681
20316WAT     H161190   9.864   2.091   6.746
20316WAT     H261191   9.822   2.012   6.609
20317WAT      O61192   9.211   5.112   2.584
20317WAT     H161193   9.261   5.170   2.649
20317WAT     H261194   9.256   5.115   2.495
20318WAT      O61195   4.824   2.728   4.131
20318WAT     H161196   4.889   2.663   4.090
20318WAT     H261197   4.872   2.786   4.197
20319WAT      O61198   6.527   2.512   9.319
20319WAT     H161199   6.531   2.418   9.352
20319WAT     H261200   6.570   2.518   9.228
20320WAT      O61201   7.221   0.727   6.873
20320WAT     H161202   7.243   0.640   6.918
20320WAT     H261203   7.136   0.717   6.821
20321WAT      O61204   7.291   0.209   5.680
20321WAT     H161205   7.238   0.129   5.708
20321WAT     H261206   7.304   0.206   5.581
20322WAT      O61207   6.009   5.728   3.360
20322WAT     H161208   5.927   5.738   3.303
20322WAT     H261209   6.060   5.814   3.361
20323WAT      O61210   2.812   7.855   7.759
20323WAT     H161211   2.855   7.876   7.846
20323WAT     H261212   2.873   7.797   7.704
20324WAT      O61213   9.735   5.387   1.690
20324WAT     H161214   9.797   5.394   1.769
20324WAT     H261215   9.665   5.459   1.696
20325WAT      O61216   6.241   7.624   6.801
20325WAT     H161217   6.254   7.572   6.716
20325WAT     H261218   6.215   7.718   6.779
20326WAT      O61219   6.514   9.679   2.047
20326WAT     H161220   6.475   9.682   2.139
20326WAT     H261221   6.570   9.761   2.032
20327WAT      O61222   8.331   3.198   4.170
20327WAT     H161223   8.273   3.139   4.114
20327WAT     H261224   8.419   3.152   4.187
20328WAT      O61225   6.773   5.842   7.968
20328WAT     H161226   6.853   5.900   7.983
20328WAT     H261227   6.770   5.770   8.037
20329WAT      O61228   1.377   9.710   8.417
20329WAT     H161229   1.392   9.718   8.516
20329WAT     H261230   1.466   9.706   8.371
20330WAT      O61231   8.605   6.999   5.515
20330WAT     H161232   8.644   6.908   5.528
20330WAT     H261233   8.526   6.993   5.454
20331WAT      O61234   5.872   3.963   3.461
20331WAT     H161235   5.773   3.963   3.449
20331WAT     H261236   5.909   4.050   3.431
20332WAT      O61237   2.939   5.373   4.465
20332WAT     H161238   3.022   5.399   4.514
20332WAT     H261239   2.945   5.277   4.436
20333WAT      O61240   3.909   0.864   6.525
20333WAT     H161241   3.983   0.929   6.514
20333WAT     H261242   3.885   0.857   6.622
20334WAT      O61243   9.613   3.411   9.310
20334WAT     H161244   9.528   3.370   9.276
20334WAT     H261245   9.690   3.350   9.292
20335WAT      O61246   1.142   0.083   8.415
20335WAT     H161247   1.145  -0.017   8.423
20335WAT     H261248   1.057   0.110   8.370
20336WAT      O61249   2.035   6.653   1.477
20336WAT     H161250   2.079   6.602   1.552
20336WAT     H261251   1.994   6.589   1.413
20337WAT      O61252   4.233   4.822   2.707
20337WAT     H161253   4.275   4.774   2.630
20337WAT     H261254   4.141   4.853   2.682
20338WAT      O61255   0.516   8.369   9.641
20338WAT     H161256   0.487   8.364   9.736
20338WAT     H261257   0.435   8.372   9.582
20339WAT      O61258   1.373   6.809   5.932
20339WAT     H161259   1.294   6.748   5.942
20339WAT     H261260   1.410   6.830   6.022
20340WAT      O61261   2.134   5.900   4.262
20340WAT     H161262   2.225   5.891   4.303
20340WAT     H261263   2.073   5.947   4.326
20341WAT      O61264   0.451   1.967   2.958
20341WAT     H161265   0.515   1.900   2.920
20341WAT     H261266   0.503   2.048   2.988
20342WAT      O61267   6.933   5.240   0.718
20342WAT     H161268   7.030   5.264   0.715
20342WAT     H261269   6.911   5.184   0.638
20343WAT      O61270   6.176   7.221   1.181
20343WAT     H161271   6.271   7.205   1.205
20343WAT     H261272   6.119   7.215   1.263
20344WAT      O61273   8.636   8.344   0.512
20344WAT     H161274   8.575   8.295   0.575
20344WAT     H261275   8.719   8.372   0.560
20345WAT      O61276   6.150   7.245   4.596
20345WAT     H161277   6.171   7.341   4.614
20345WAT     H261278   6.185   7.219   4.506
20346WAT      O61279   1.751   0.625   4.332
20346WAT     H161280   1.682   0.669   4.274
20346WAT     H261281   1.705   0.577   4.407
20347WAT      O61282   9.545   7.857   6.381
20347WAT     H161283   9.645   7.862   6.390
20347WAT     H261284   9.521   7.782   6.319
20348WAT      O61285   8.415   3.969   9.274
20348WAT     H161286   8.351   4.041   9.245
20348WAT     H261287   8.415   3.964   9.374
20349WAT      O61288   9.823   3.845   5.879
20349WAT     H161289   9.776   3.764   5.844
20349WAT     H261290   9.912   3.818   5.917
20350WAT      O61291   5.153   9.811   2.482
20350WAT     H161292   5.210   9.736   2.448
20350WAT     H261293   5.146   9.882   2.412
20351WAT      O61294   4.253   0.210   2.525
20351WAT     H161295   4.196   0.260   2.460
20351WAT     H261296   4.300   0.275   2.585
20352WAT      O61297   9.090   4.328   6.134
20352WAT     H161298   9.161   4.292   6.074
20352WAT     H261299   9.050   4.253   6.186
20353WAT      O61300   4.532   4.669   4.420
20353WAT     H161301   4.546   4.725   4.502
20353WAT     H261302   4.612   4.675   4.361
20354WAT      O61303   9.434   6.855   9.330
20354WAT     H161304   9.463   6.762   9.304
20354WAT     H261305   9.358   6.884   9.272
20355WAT      O61306   6.813   1.408   1.975
20355WAT     H161307   6.890   1.424   2.036
20355WAT     H261308   6.745   1.350   2.021
20356WAT      O61309   7.132   8.815   6.319
20356WAT     H161310   7.201   8.830   6.248
20356WAT     H261311   7.067   8.891   6.318
20357WAT      O61312   0.704   7.258   9.607
20357WAT     H161313   0.673   7.270   9.513
20357WAT     H261314   0.657   7.179   9.648
20358WAT      O61315   9.482   5.684   9.122
20358WAT     H161316   9.553   5.746   9.089
20358WAT     H261317   9.438   5.723   9.203
20359WAT      O61318   9.847   5.043   4.982
20359WAT     H161319   9.898   5.129   4.971
20359WAT     H261320   9.827   5.029   5.079
20360WAT      O61321   6.082   9.470   5.439
20360WAT     H161322   6.027   9.387   5.445
20360WAT     H261323   6.025   9.549   5.463
20361WAT      O61324   3.501   0.057   9.700
20361WAT     H161325   3.448   0.122   9.755
20361WAT     H261326   3.442  -0.021   9.675
20362WAT      O61327   7.711   6.588   3.370
20362WAT     H161328   7.778   6.659   3.349
20362WAT     H261329   7.643   6.623   3.434
20363WAT      O61330   2.201   2.724   7.438
20363WAT     H161331   2.172   2.758   7.348
20363WAT     H261332   2.138   2.653   7.469
20364WAT      O61333   4.587   2.245   5.063
20364WAT     H161334   4.514   2.211   5.003
20364WAT     H261335   4.549   2.312   5.127
20365WAT      O61336   7.680   1.912   4.610
20365WAT     H161337   7.688   1.978   4.535
20365WAT     H261338   7.698   1.959   4.697
20366WAT      O61339   9.016   7.300   2.754
20366WAT     H161340   9.047   7.390   2.783
20366WAT     H261341   9.046   7.231   2.820
20367WAT      O61342   1.299   6.509   0.292
20367WAT     H161343   1.311   6.600   0.331
20367WAT     H261344   1.387   6.476   0.257
20368WAT      O61345   4.671   2.098   2.844
20368WAT     H161346   4.604   2.161   2.805
20368WAT     H261347   4.627   2.040   2.912
20369WAT      O61348   0.733   2.812   6.075
20369WAT     H161349   0.649   2.765   6.105
20369WAT     H261350   0.757   2.782   5.983
20370WAT      O61351   0.206   2.379   5.699
20370WAT     H161352   0.184   2.325   5.780
20370WAT     H261353   0.191   2.476   5.719
20371WAT      O61354   6.009   2.026   9.260
20371WAT     H161355   5.956   1.942   9.273
20371WAT     H261356   6.036   2.033   9.164
20372WAT      O61357   3.121   4.418   0.577
20372WAT     H161358   3.049   4.392   0.642
20372WAT     H261359   3.102   4.377   0.488
20373WAT      O61360   7.315   0.564   9.811
20373WAT     H161361   7.297   0.624   9.733
20373WAT     H261362   7.274   0.475   9.794
20374WAT      O61363   1.014   4.397   2.619
20374WAT     H161364   0.975   4.316   2.664
20374WAT     H261365   1.006   4.387   2.520
20375WAT      O61366   4.543   8.366   9.338
20375WAT     H161367   4.586   8.284   9.377
20375WAT     H261368   4.493   8.415   9.410
20376WAT      O61369   7.829   5.710   4.105
20376WAT     H161370   7.812   5.748   4.014
20376WAT     H261371   7.771   5.629   4.119
20377WAT      O61372   0.178   0.919   5.641
20377WAT     H161373   0.131   0.936   5.728
20377WAT     H261374   0.276   0.908   5.659
20378WAT      O61375   2.331   5.196   0.831
20378WAT     H161376   2.335   5.295   0.816
20378WAT     H261377   2.240   5.171   0.866
20379WAT      O61378   3.181   7.485   7.420
20379WAT     H161379   3.244   7.420   7.464
20379WAT     H261380   3.150   7.552   7.488
20380WAT      O61381   5.010   2.567   7.445
20380WAT     H161382   4.918   2.606   7.438
20380WAT     H261383   5.008   2.470   7.419
20381WAT      O61384   5.619   1.059   7.709
20381WAT     H161385   5.689   1.040   7.777
20381WAT     H261386   5.643   1.142   7.658
20382WAT      O61387   9.786   4.534   0.979
20382WAT     H161388   9.854   4.551   0.908
20382WAT     H261389   9.731   4.455   0.954
20383WAT      O61390   1.822   4.022   1.249
20383WAT     H161391   1.914   4.061   1.236
20383WAT     H261392   1.829   3.936   1.299
20384WAT      O61393   6.558   4.358   0.492
20384WAT     H161394   6.472   4.364   0.544
20384WAT     H261395   6.628   4.315   0.549
20385WAT      O61396   0.585   4.943   1.293
20385WAT     H161397   0.492   4.954   1.259
20385WAT     H261398   0.637   5.027   1.278
20386WAT      O61399   1.345   0.668   0.448
20386WAT     H161400   1.422   0.709   0.497
20386WAT     H261401   1.259   0.700   0.488
20387WAT      O61402   4.030   4.907   8.339
20387WAT     H161403   3.995   4.983   8.393
20387WAT     H261404   3.996   4.914   8.246
20388WAT      O61405   0.503   4.634   8.027
20388WAT     H161406   0.567   4.633   8.104
20388WAT     H261407   0.412   4.660   8.060
20389WAT      O61408   7.516   5.787   3.850
20389WAT     H161409   7.528   5.777   3.751
20389WAT     H261410   7.468   5.707   3.886
20390WAT      O61411   0.940   7.563   4.930
20390WAT     H161412   0.909   7.470   4.909
20390WAT     H261413   1.025   7.559   4.982
20391WAT      O61414   2.127   0.043   8.799
20391WAT     H161415   2.143   0.078   8.891
20391WAT     H261416   2.147  -0.055   8.796
20392WAT      O61417   0.598   1.722   1.257
20392WAT     H161418   0.682   1.757   1.214
20392WAT     H261419   0.549   1.664   1.192
20393WAT      O61420   9.853   1.303   8.033
20393WAT     H161421   9.951   1.289   8.017
20393WAT     H261422   9.807   1.319   7.946
20394WAT      O61423   5.781   9.805   6.088
20394WAT     H161424   5.844   9.797   6.010
20394WAT     H261425   5.770   9.715   6.131
20395WAT      O61426   0.719   4.055   6.886
20395WAT     H161427   0.734   4.137   6.832
20395WAT     H261428   0.733   3.974   6.829
20396WAT      O61429   1.054   0.706   0.833
20396WAT     H161430   1.007   0.637   0.778
20396WAT     H261431   1.102   0.661   0.908
20397WAT      O61432   3.049   0.906   4.812
20397WAT     H161433   3.092   0.989   4.848
20397WAT     H261434   3.091   0.826   4.854
20398WAT      O61435   8.603   9.426   2.546
20398WAT     H161436   8.617   9.399   2.450
20398WAT     H261437   8.652   9.511   2.565
20399WAT      O61438   4.805   7.731   1.900
20399WAT     H161439   4.847   7.652   1.944
20399WAT     H261440   4.724   7.701   1.849
20400WAT      O61441   8.032   9.833   7.003
20400WAT     H161442   8.007   9.750   7.054
20400WAT     H261443   8.026   9.813   6.905
20401WAT      O61444   7.791   5.029   0.676
20401WAT     H161445   7.740   5.110   0.705
20401WAT     H261446   7.810   5.034   0.578
20402WAT      O61447   7.543  -0.002   1.086
20402WAT     H161448   7.488   0.027   1.008
20402WAT     H261449   7.487   0.002   1.169
20403WAT      O61450   1.789   6.632   0.996
20403WAT     H161451   1.729   6.562   0.958
20403WAT     H261452   1.737   6.688   1.060
20404WAT      O61453   7.047   0.575   2.475
20404WAT     H161454   7.037   0.497   2.538
20404WAT     H261455   6.967   0.634   2.481
20405WAT      O61456   3.079   5.102   5.268
20405WAT     H161457   3.007   5.034   5.281
20405WAT     H261458   3.130   5.113   5.354
20406WAT      O61459   8.253   8.680   3.374
20406WAT     H161460   8.237   8.768   3.330
20406WAT     H261461   8.171   8.652   3.424
20407WAT      O61462   2.333   9.062   8.680
20407WAT     H161463   2.302   8.967   8.688
20407WAT     H261464   2.283   9.119   8.745
20408WAT      O61465   2.696   7.745   0.587
20408WAT     H161466   2.711   7.651   0.557
20408WAT     H261467   2.741   7.808   0.524
20409WAT      O61468   0.640   9.376   4.328
20409WAT     H161469   0.609   9.282   4.314
20409WAT     H261470   0.573   9.439   4.290
20410WAT      O61471   6.659   0.590   8.939
20410WAT     H161472   6.656   0.669   8.879
20410WAT     H261473   6.750   0.583   8.981
20411WAT      O61474   8.346   0.768   4.957
20411WAT     H161475   8.249   0.746   4.971
20411WAT     H261476   8.397   0.684   4.939
20412WAT      O61477   1.570   0.195   4.243
20412WAT     H161478   1.553   0.117   4.183
20412WAT     H261479   1.665   0.223   4.234
20413WAT      O61480   4.402   7.485   5.188
20413WAT     H161481   4.328   7.493   5.121
20413WAT     H261482   4.417   7.574   5.231
20414WAT      O61483   6.599   6.054   1.192
20414WAT     H161484   6.684   6.001   1.183
20414WAT     H261485   6.618   6.139   1.241
20415WAT      O61486   9.448   5.037   4.967
20415WAT     H161487   9.470   4.995   5.055
20415WAT     H261488   9.502   4.993   4.895
20416WAT      O61489   2.038   4.766   6.998
20416WAT     H161490   2.058   4.861   7.022
20416WAT     H261491   2.066   4.750   6.903
20417WAT      O61492   8.621   1.950   2.942
20417WAT     H161493   8.530   1.987   2.960
20417WAT     H261494   8.676   2.019   2.896
20418WAT      O61495   3.672   9.120   8.447
20418WAT     H161496   3.742   9.114   8.518
20418WAT     H261497   3.686   9.047   8.380
20419WAT      O61498   7.358   8.252   3.136
20419WAT     H161499   7.431   8.225   3.197
20419WAT     H261500   7.319   8.340   3.166
20420WAT      O61501   3.803   5.203   5.594
20420WAT     H161502   3.869   5.133   5.568
20420WAT     H261503   3.761   5.243   5.513
20421WAT      O61504   6.169   8.620   4.270
20421WAT     H161505   6.250   8.608   4.328
20421WAT     H261506   6.087   8.619   4.327
20422WAT      O61507   9.081   3.350   9.510
20422WAT     H161508   9.085   3.337   9.411
20422WAT     H261509   9.034   3.436   9.531
20423WAT      O61510   4.842   3.782   0.575
20423WAT     H161511   4.789   3.719   0.631
20423WAT     H261512   4.897   3.842   0.633
20424WAT      O61513   8.835   5.917   5.775
20424WAT     H161514   8.844   5.818   5.788
20424WAT     H261515   8.770   5.954   5.841
20425WAT      O61516   7.497   2.618   1.361
20425WAT     H161517   7.449   2.532   1.348
20425WAT     H261518   7.477   2.679   1.285
20426WAT      O61519   6.105   3.860   3.661
20426WAT     H161520   6.031   3.834   3.599
20426WAT     H261521   6.107   3.797   3.738
20427WAT      O61522   5.678   3.548   8.647
20427WAT     H161523   5.632   3.598   8.720
20427WAT     H261524   5.613   3.524   8.576
20428WAT      O61525   9.276   9.329   5.050
20428WAT     H161526   9.273   9.229   5.050
20428WAT     H261527   9.349   9.359   4.989
20429WAT      O61528   1.393   5.721   3.395
20429WAT     H161529   1.395   5.812   3.438
20429WAT     H261530   1.308   5.675   3.421
20430WAT      O61531   1.333   9.637   4.976
20430WAT     H161532   1.326   9.692   4.892
20430WAT     H261533   1.255   9.656   5.035
20431WAT      O61534   6.653   7.159   6.252
20431WAT     H161535   6.598   7.223   6.305
20431WAT     H261536   6.632   7.169   6.154
20432WAT      O61537   4.403   0.097   0.897
20432WAT     H161538   4.430   0.190   0.920
20432WAT     H261539   4.309   0.097   0.864
20433WAT      O61540   4.821   8.848   9.849
20433WAT     H161541   4.878   8.799   9.782
20433WAT     H261542   4.828   8.803   9.938
20434WAT      O61543   2.649   2.750   0.434
20434WAT     H161544   2.638   2.761   0.533
20434WAT     H261545   2.625   2.835   0.388
20435WAT      O61546   8.831   7.813   9.060
20435WAT     H161547   8.802   7.763   8.979
20435WAT     H261548   8.901   7.880   9.034
20436WAT      O61549   6.672   9.019   8.627
20436WAT     H161550   6.746   8.961   8.662
20436WAT     H261551   6.710   9.107   8.598
20437WAT      O61552   8.832   8.574   6.090
20437WAT     H161553   8.741   8.558   6.054
20437WAT     H261554   8.857   8.500   6.152
20438WAT      O61555   3.230   5.229   4.069
20438WAT     H161556   3.206   5.172   3.991
20438WAT     H261557   3.317   5.275   4.051
20439WAT      O61558   6.464   4.670   1.613
20439WAT     H161559   6.509   4.746   1.566
20439WAT     H261560   6.382   4.703   1.661
20440WAT      O61561   7.212   2.031   2.639
20440WAT     H161562   7.196   2.109   2.578
20440WAT     H261563   7.246   2.063   2.727
20441WAT      O61564   1.498   0.485   9.355
20441WAT     H161565   1.534   0.443   9.438
20441WAT     H261566   1.568   0.484   9.284
20442WAT      O61567   9.418   2.489   1.144
20442WAT     H161568   9.461   2.404   1.114
20442WAT     H261569   9.425   2.497   1.243
20443WAT      O61570   8.729   1.267   1.591
20443WAT     H161571   8.816   1.310   1.612
20443WAT     H261572   8.715   1.189   1.652
20444WAT      O61573   0.137   3.583   0.210
20444WAT     H161574   0.138   3.502   0.268
20444WAT     H261575   0.071   3.649   0.246
20445WAT      O61576   6.419   4.767   2.439
20445WAT     H161577   6.372   4.787   2.525
20445WAT     H261578   6.356   4.776   2.362
20446WAT      O61579   7.953   7.518   7.043
20446WAT     H161580   8.003   7.581   6.984
20446WAT     H261581   8.017   7.469   7.102
20447WAT      O61582   2.640   5.121   4.063
20447WAT     H161583   2.717   5.183   4.055
20447WAT     H261584   2.555   5.173   4.058
20448WAT      O61585   4.328   2.876   1.338
20448WAT     H161586   4.349   2.928   1.421
20448WAT     H261587   4.402   2.887   1.272
20449WAT      O61588   3.198   2.661   5.561
20449WAT     H161589   3.145   2.733   5.518
20449WAT     H261590   3.295   2.676   5.543
20450WAT      O61591   3.476   1.504   2.622
20450WAT     H161592   3.380   1.511   2.594
20450WAT     H261593   3.509   1.410   2.606
20451WAT      O61594   3.586   6.453   0.446
20451WAT     H161595   3.518   6.434   0.375
20451WAT     H261596   3.583   6.380   0.515
20452WAT      O61597   6.951   5.975   4.216
20452WAT     H161598   6.864   5.963   4.167
20452WAT     H261599   7.026   5.943   4.159
20453WAT      O61600   5.228   8.827   6.232
20453WAT     H161601   5.233   8.841   6.133
20453WAT     H261602   5.228   8.915   6.278
20454WAT      O61603   2.799   8.568   7.028
20454WAT     H161604   2.787   8.496   7.097
20454WAT     H261605   2.710   8.588   6.986
20455WAT      O61606   0.064   8.293   3.989
20455WAT     H161607   0.148   8.241   3.974
20455WAT     H261608   0.084   8.372   4.047
20456WAT      O61609   5.956   1.567   4.226
20456WAT     H161610   6.037   1.513   4.204
20456WAT     H261611   5.880   1.538   4.168
20457WAT      O61612   2.273   7.966   7.170
20457WAT     H161613   2.331   7.903   7.222
20457WAT     H261614   2.327   8.011   7.099
20458WAT      O61615   4.334   1.665   9.493
20458WAT     H161616   4.241   1.686   9.462
20458WAT     H261617   4.352   1.568   9.479
20459WAT      O61618   8.885   1.610   7.416
20459WAT     H161619   8.824   1.684   7.442
20459WAT     H261620   8.956   1.645   7.355
20460WAT      O61621   6.675   2.423   0.406
20460WAT     H161622   6.734   2.345   0.389
20460WAT     H261623   6.731   2.506   0.414
20461WAT      O61624   1.000   7.594   1.472
20461WAT     H161625   0.929   7.664   1.470
20461WAT     H261626   0.969   7.516   1.526
20462WAT      O61627   1.787   0.227   9.729
20462WAT     H161628   1.734   0.204   9.810
20462WAT     H261629   1.835   0.145   9.696
20463WAT      O61630   5.844   6.905   5.098
20463WAT     H161631   5.865   6.874   5.191
20463WAT     H261632   5.858   7.003   5.092
20464WAT      O61633   2.771   2.974   5.305
20464WAT     H161634   2.771   3.041   5.230
20464WAT     H261635   2.850   2.989   5.363
20465WAT      O61636   3.969   1.065   3.626
20465WAT     H161637   4.016   0.978   3.608
20465WAT     H261638   4.010   1.108   3.707
20466WAT      O61639   8.793   8.745   2.525
20466WAT     H161640   8.845   8.659   2.526
20466WAT     H261641   8.734   8.749   2.606
20467WAT      O61642   2.410   6.437   7.334
20467WAT     H161643   2.378   6.520   7.289
20467WAT     H261644   2.436   6.458   7.428
20468WAT      O61645   0.740   0.709   0.353
20468WAT     H161646   0.750   0.613   0.328
20468WAT     H261647   0.807   0.764   0.302
20469WAT      O61648   7.034   8.128   2.250
20469WAT     H161649   6.945   8.161   2.221
20469WAT     H261650   7.039   8.127   2.349
20470WAT      O61651   2.562   4.671   9.721
20470WAT     H161652   2.500   4.689   9.798
20470WAT     H261653   2.529   4.718   9.640
20471WAT      O61654   6.342   0.821   5.531
20471WAT     H161655   6.418   0.865   5.580
20471WAT     H261656   6.302   0.886   5.467
20472WAT      O61657   0.278   9.037   9.523
20472WAT     H161658   0.319   9.125   9.497
20472WAT     H261659   0.349   8.977   9.559
20473WAT      O61660   5.457   2.514   5.941
20473WAT     H161661   5.376   2.467   5.907
20473WAT     H261662   5.536   2.487   5.888
20474WAT      O61663   0.300   2.173   5.129
20474WAT     H161664   0.229   2.120   5.175
20474WAT     H261665   0.351   2.113   5.067
20475WAT      O61666   0.102   4.007   5.527
20475WAT     H161667   0.013   4.038   5.563
20475WAT     H261668   0.140   3.939   5.589
20476WAT      O61669   0.827   3.965   3.868
20476WAT     H161670   0.745   4.010   3.903
20476WAT     H261671   0.907   4.023   3.887
20477WAT      O61672   8.945   2.469   9.686
20477WAT     H161673   9.016   2.402   9.708
20477WAT     H261674   8.863   2.450   9.740
20478WAT      O61675   9.465   7.325   5.525
20478WAT     H161676   9.517   7.327   5.610
20478WAT     H261677   9.369   7.305   5.546
20479WAT      O61678   6.590   6.862   5.898
20479WAT     H161679   6.664   6.796   5.912
20479WAT     H261680   6.564   6.863   5.802
20480WAT      O61681   7.347   8.315   2.644
20480WAT     H161682   7.339   8.226   2.599
20480WAT     H261683   7.299   8.313   2.732
20481WAT      O61684   6.096   3.850   9.448
20481WAT     H161685   6.160   3.775   9.465
20481WAT     H261686   6.068   3.849   9.352
20482WAT      O61687   3.066   5.507   9.291
20482WAT     H161688   3.160   5.510   9.257
20482WAT     H261689   3.003   5.513   9.214
20483WAT      O61690   3.981   0.492   7.062
20483WAT     H161691   3.903   0.430   7.052
20483WAT     H261692   4.047   0.475   6.989
20484WAT      O61693   1.005   4.129   8.233
20484WAT     H161694   0.912   4.126   8.197
20484WAT     H261695   1.070   4.140   8.158
20485WAT      O61696   3.146   7.798   0.555
20485WAT     H161697   3.206   7.729   0.514
20485WAT     H261698   3.168   7.888   0.517
20486WAT      O61699   3.893   8.467   7.003
20486WAT     H161700   3.855   8.559   7.014
20486WAT     H261701   3.852   8.406   7.071
20487WAT      O61702   0.907   8.891   4.801
20487WAT     H161703   0.857   8.934   4.726
20487WAT     H261704   0.939   8.962   4.864
20488WAT      O61705   0.329   4.089   3.460
20488WAT     H161706   0.369   4.012   3.410
20488WAT     H261707   0.362   4.089   3.554
20489WAT      O61708   4.529   4.725   0.023
20489WAT     H161709   4.448   4.763   0.068
20489WAT     H261710   4.564   4.649   0.077
20490WAT      O61711   0.175   6.214   7.978
20490WAT     H161712   0.090   6.165   7.957
20490WAT     H261713   0.198   6.275   7.902
20491WAT      O61714   4.588   4.509   6.135
20491WAT     H161715   4.500   4.493   6.089
20491WAT     H261716   4.660   4.523   6.067
20492WAT      O61717   4.094   8.289   8.118
20492WAT     H161718   4.159   8.215   8.100
20492WAT     H261719   4.096   8.354   8.042
20493WAT      O61720   1.965   1.410   1.658
20493WAT     H161721   1.974   1.311   1.652
20493WAT     H261722   1.934   1.446   1.570
20494WAT      O61723   9.528   8.907   9.687
20494WAT     H161724   9.508   8.888   9.784
20494WAT     H261725   9.518   8.822   9.635
20495WAT      O61726   6.710   3.163   3.331
20495WAT     H161727   6.711   3.072   3.373
20495WAT     H261728   6.733   3.231   3.400
20496WAT      O61729   5.392   2.413   1.399
20496WAT     H161730   5.477   2.422   1.346
20496WAT     H261731   5.314   2.415   1.337
20497WAT      O61732   6.724   2.711   5.430
20497WAT     H161733   6.697   2.784   5.492
20497WAT     H261734   6.684   2.624   5.461
20498WAT      O61735   7.688   2.807   4.611
20498WAT     H161736   7.747   2.755   4.549
20498WAT     H261737   7.653   2.888   4.564
20499WAT      O61738   4.948   2.361   5.711
20499WAT     H161739   4.872   2.399   5.658
20499WAT     H261740   4.919   2.350   5.806
20500WAT      O61741   3.227   0.014   4.589
20500WAT     H161742   3.303   0.067   4.550
20500WAT     H261743   3.180  -0.035   4.515
20501WAT      O61744   1.190   0.165   5.423
20501WAT     H161745   1.189   0.182   5.522
20501WAT     H261746   1.280   0.188   5.387
20502WAT      O61747   4.020   9.058   4.929
20502WAT     H161748   3.988   8.977   4.978
20502WAT     H261749   3.947   9.094   4.872
20503WAT      O61750   2.045   0.032   2.247
20503WAT     H161751   2.106  -0.023   2.304
20503WAT     H261752   2.045  -0.004   2.154
20504WAT      O61753   7.032   9.148   2.008
20504WAT     H161754   6.990   9.235   1.980
20504WAT     H261755   6.980   9.109   2.084
20505WAT      O61756   4.355   6.305   1.297
20505WAT     H161757   4.292   6.259   1.359
20505WAT     H261758   4.415   6.237   1.254
20506WAT      O61759   1.208   0.182   9.284
20506WAT     H161760   1.114   0.194   9.252
20506WAT     H261761   1.258   0.124   9.220
20507WAT      O61762   4.013   0.025   2.547
20507WAT     H161763   4.060   0.112   2.538
20507WAT     H261764   3.925   0.040   2.593
20508WAT      O61765   3.940   6.766   5.347
20508WAT     H161766   3.878   6.798   5.275
20508WAT     H261767   3.891   6.765   5.434
20509WAT      O61768   7.836   9.435   4.520
20509WAT     H161769   7.842   9.487   4.435
20509WAT     H261770   7.742   9.439   4.555
20510WAT      O61771   5.911   8.519   7.353
20510WAT     H161772   5.871   8.459   7.283
20510WAT     H261773   5.940   8.464   7.431
20511WAT      O61774   2.409   7.638   5.793
20511WAT     H161775   2.499   7.670   5.824
20511WAT     H261776   2.373   7.571   5.857
20512WAT      O61777   0.534   5.132   7.223
20512WAT     H161778   0.575   5.182   7.147
20512WAT     H261779   0.482   5.055   7.188
20513WAT      O61780   1.502   8.083   1.462
20513WAT     H161781   1.473   8.005   1.517
20513WAT     H261782   1.540   8.153   1.521
20514WAT      O61783   2.183   0.221   4.074
20514WAT     H161784   2.252   0.156   4.041
20514WAT     H261785   2.116   0.238   4.002
20515WAT      O61786   5.257   4.372   2.835
20515WAT     H161787   5.299   4.446   2.888
20515WAT     H261788   5.328   4.315   2.795
20516WAT      O61789   3.558   6.006   2.974
20516WAT     H161790   3.497   5.942   2.928
20516WAT     H261791   3.533   6.012   3.071
20517WAT      O61792   8.433   9.036   3.302
20517WAT     H161793   8.374   9.069   3.228
20517WAT     H261794   8.525   9.020   3.267
20518WAT      O61795   5.197   0.214   1.238
20518WAT     H161796   5.248   0.243   1.319
20518WAT     H261797   5.231   0.264   1.158
20519WAT      O61798   7.595   3.056   4.537
20519WAT     H161799   7.690   3.062   4.505
20519WAT     H261800   7.537   3.021   4.463
20520WAT      O61801   6.686   6.385   2.150
20520WAT     H161802   6.781   6.411   2.131
20520WAT     H261803   6.626   6.423   2.080
20521WAT      O61804   7.406   2.191   4.711
20521WAT     H161805   7.385   2.203   4.614
20521WAT     H261806   7.342   2.125   4.751
20522WAT      O61807   3.483   0.366   9.336
20522WAT     H161808   3.560   0.421   9.304
20522WAT     H261809   3.428   0.336   9.258
20523WAT      O61810   6.732   7.871   7.793
20523WAT     H161811   6.635   7.866   7.817
20523WAT     H261812   6.757   7.965   7.772
20524WAT      O61813   0.543   5.265   8.212
20524WAT     H161814   0.541   5.165   8.211
20524WAT     H261815   0.465   5.301   8.159
20525WAT      O61816   4.433   7.117   2.441
20525WAT     H161817   4.523   7.124   2.482
20525WAT     H261818   4.363   7.113   2.512
20526WAT      O61819   4.784   8.744   9.442
20526WAT     H161820   4.745   8.799   9.368
20526WAT     H261821   4.710   8.701   9.493
20527WAT      O61822   5.786   8.111   7.963
20527WAT     H161823   5.813   8.176   8.034
20527WAT     H261824   5.717   8.049   7.999
20528WAT      O61825   9.037   6.938   3.133
20528WAT     H161826   9.081   6.875   3.069
20528WAT     H261827   8.937   6.931   3.124
20529WAT      O61828   7.851   2.866   6.987
20529WAT     H161829   7.934   2.858   7.043
20529WAT     H261830   7.778   2.906   7.043
20530WAT      O61831   3.621   1.581   2.180
20530WAT     H161832   3.690   1.648   2.206
20530WAT     H261833   3.531   1.624   2.181
20531WAT      O61834   0.639   2.334   5.210
20531WAT     H161835   0.554   2.305   5.256
20531WAT     H261836   0.629   2.429   5.180
20532WAT      O61837   1.868   2.126   5.102
20532WAT     H161838   1.916   2.175   5.174
20532WAT     H261839   1.874   2.177   5.016
20533WAT      O61840   3.902   2.128   8.681
20533WAT     H161841   3.833   2.117   8.753
20533WAT     H261842   3.991   2.098   8.717
20534WAT      O61843   3.884   0.745   6.273
20534WAT     H161844   3.885   0.784   6.365
20534WAT     H261845   3.969   0.767   6.226
20535WAT      O61846   0.887   2.234   4.546
20535WAT     H161847   0.966   2.251   4.604
20535WAT     H261848   0.856   2.320   4.505
20536WAT      O61849   4.659   4.388   9.468
20536WAT     H161850   4.730   4.387   9.398
20536WAT     H261851   4.575   4.350   9.431
20537WAT      O61852   9.422   1.549   8.668
20537WAT     H161853   9.395   1.597   8.585
20537WAT     H261854   9.514   1.578   8.695
20538WAT      O61855   3.942   1.087   5.404
20538WAT     H161856   3.906   1.137   5.483
20538WAT     H261857   3.930   0.988   5.419
20539WAT      O61858   0.237   9.529   0.388
20539WAT     H161859   0.137   9.525   0.384
20539WAT     H261860   0.272   9.438   0.412
20540WAT      O61861   2.450   8.597   1.942
20540WAT     H161862   2.495   8.508   1.950
20540WAT     H261863   2.507   8.668   1.984
20541WAT      O61864   4.753   9.181   9.107
20541WAT     H161865   4.655   9.185   9.089
20541WAT     H261866   4.787   9.274   9.123
20542WAT      O61867   8.654   8.567   5.296
20542WAT     H161868   8.681   8.600   5.205
20542WAT     H261869   8.577   8.621   5.329
20543WAT      O61870   9.879   3.243   2.841
20543WAT     H161871   9.877   3.333   2.799
20543WAT     H261872   9.909   3.250   2.936
20544WAT      O61873   4.594   1.631   4.752
20544WAT     H161874   4.517   1.612   4.813
20544WAT     H261875   4.600   1.558   4.683
20545WAT      O61876   1.993   0.321   7.497
20545WAT     H161877   1.903   0.348   7.464
20545WAT     H261878   2.059   0.326   7.422
20546WAT      O61879   2.770   2.625   7.156
20546WAT     H161880   2.805   2.672   7.237
20546WAT     H261881   2.671   2.615   7.164
20547WAT      O61882   3.742   7.293   7.173
20547WAT     H161883   3.661   7.333   7.129
20547WAT     H261884   3.713   7.220   7.235
20548WAT      O61885   0.395   4.737   3.167
20548WAT     H161886   0.345   4.823   3.182
20548WAT     H261887   0.453   4.746   3.086
20549WAT      O61888   9.193   2.689   5.526
20549WAT     H161889   9.218   2.625   5.599
20549WAT     H261890   9.162   2.775   5.567
20550WAT      O61891   2.274   0.820   6.232
20550WAT     H161892   2.187   0.846   6.274
20550WAT     H261893   2.348   0.877   6.268
20551WAT      O61894   6.059   0.548   1.881
20551WAT     H161895   6.128   0.611   1.847
20551WAT     H261896   5.979   0.600   1.913
20552WAT      O61897   2.366   6.855   3.015
20552WAT     H161898   2.406   6.935   2.971
20552WAT     H261899   2.326   6.882   3.103
20553WAT      O61900   9.870   7.778   0.610
20553WAT     H161901   9.919   7.776   0.697
20553WAT     H261902   9.809   7.857   0.608
20554WAT      O61903   6.391   5.360   3.791
20554WAT     H161904   6.395   5.450   3.747
20554WAT     H261905   6.334   5.298   3.736
20555WAT      O61906   4.027   0.592   3.217
20555WAT     H161907   4.063   0.669   3.163
20555WAT     H261908   3.964   0.627   3.286
20556WAT      O61909   6.694   7.068   3.693
20556WAT     H161910   6.633   7.063   3.772
20556WAT     H261911   6.692   7.160   3.654
20557WAT      O61912   4.957   6.879   9.490
20557WAT     H161913   4.879   6.817   9.492
20557WAT     H261914   5.031   6.840   9.545
20558WAT      O61915   4.100   9.621   8.881
20558WAT     H161916   4.176   9.659   8.934
20558WAT     H261917   4.038   9.695   8.854
20559WAT      O61918   5.158   0.912   4.969
20559WAT     H161919   5.113   0.832   4.930
20559WAT     H261920   5.245   0.927   4.924
20560WAT      O61921   2.294   9.019   4.910
20560WAT     H161922   2.370   8.953   4.914
20560WAT     H261923   2.305   9.087   4.983
20561WAT      O61924   4.739   3.856   7.785
20561WAT     H161925   4.697   3.873   7.696
20561WAT     H261926   4.690   3.908   7.856
20562WAT      O61927   4.568   8.055   6.976
20562WAT     H161928   4.488   8.057   6.916
20562WAT     H261929   4.643   8.104   6.933
20563WAT      O61930   7.919   2.260   6.256
20563WAT     H161931   7.883   2.289   6.167
20563WAT     H261932   8.012   2.226   6.245
20564WAT      O61933   1.791   1.117   8.645
20564WAT     H161934   1.829   1.210   8.644
20564WAT     H261935   1.730   1.105   8.567
20565WAT      O61936   2.701   6.364   6.465
20565WAT     H161937   2.696   6.374   6.365
20565WAT     H261938   2.793   6.335   6.490
20566WAT      O61939   6.393   4.711   8.101
20566WAT     H161940   6.326   4.661   8.045
20566WAT     H261941   6.447   4.771   8.043
20567WAT      O61942   6.261   9.444   1.162
20567WAT     H161943   6.211   9.530   1.151
20567WAT     H261944   6.246   9.386   1.082
20568WAT      O61945   3.686   0.454   9.229
20568WAT     H161946   3.726   0.377   9.180
20568WAT     H261947   3.731   0.539   9.200
20569WAT      O61948   1.174   5.811   5.653
20569WAT     H161949   1.077   5.794   5.637
20569WAT     H261950   1.218   5.840   5.568
20570WAT      O61951   4.558   6.931   7.031
20570WAT     H161952   4.565   6.980   7.118
20570WAT     H261953   4.550   6.833   7.049
20571WAT      O61954   1.176   6.455   0.818
20571WAT     H161955   1.197   6.534   0.760
20571WAT     H261956   1.246   6.385   0.806
20572WAT      O61957   3.744   6.689   9.249
20572WAT     H161958   3.657   6.691   9.200
20572WAT     H261959   3.727   6.694   9.347
20573WAT      O61960   3.154   3.277   2.898
20573WAT     H161961   3.098   3.350   2.937
20573WAT     H261962   3.137   3.192   2.948
20574WAT      O61963   8.878   7.357   2.117
20574WAT     H161964   8.797   7.334   2.172
20574WAT     H261965   8.851   7.417   2.042
20575WAT      O61966   0.239   7.630   9.773
20575WAT     H161967   0.182   7.615   9.854
20575WAT     H261968   0.309   7.558   9.768
20576WAT      O61969   2.762   4.576   5.317
20576WAT     H161970   2.821   4.529   5.250
20576WAT     H261971   2.792   4.671   5.326
20577WAT      O61972   9.773   5.562   8.604
20577WAT     H161973   9.791   5.653   8.565
20577WAT     H261974   9.676   5.555   8.627
20578WAT      O61975   5.204   6.608   2.249
20578WAT     H161976   5.185   6.530   2.308
20578WAT     H261977   5.195   6.580   2.153
20579WAT      O61978   1.442   9.411   5.334
20579WAT     H161979   1.401   9.321   5.351
20579WAT     H261980   1.452   9.425   5.236
20580WAT      O61981   3.112   3.904   7.301
20580WAT     H161982   3.118   3.831   7.234
20580WAT     H261983   3.109   3.866   7.393
20581WAT      O61984   0.789   4.976   2.293
20581WAT     H161985   0.863   4.915   2.321
20581WAT     H261986   0.753   5.025   2.373
20582WAT      O61987   3.036   8.537   9.687
20582WAT     H161988   3.085   8.612   9.731
20582WAT     H261989   3.064   8.532   9.591
20583WAT      O61990   0.054   9.255   5.653
20583WAT     H161991   0.147   9.269   5.619
20583WAT     H261992  -0.004   9.226   5.578
20584WAT      O61993   7.399   3.010   3.149
20584WAT     H161994   7.453   3.003   3.232
20584WAT     H261995   7.458   3.036   3.072
20585WAT      O61996   6.059   4.281   8.037
20585WAT     H161997   6.103   4.257   7.950
20585WAT     H261998   5.962   4.296   8.023
20586WAT      O61999   3.019   4.103   0.437
20586WAT     H162000   3.069   4.165   0.376
20586WAT     H262001   3.077   4.080   0.515
20587WAT      O62002   1.241   3.930   6.708
20587WAT     H162003   1.193   3.939   6.795
20587WAT     H262004   1.241   4.018   6.661
20588WAT      O62005   3.263   7.316   7.715
20588WAT     H162006   3.234   7.411   7.702
20588WAT     H262007   3.328   7.290   7.644
20589WAT      O62008   0.109   0.370   2.885
20589WAT     H162009   0.061   0.322   2.959
20589WAT     H262010   0.074   0.463   2.879
20590WAT      O62011   0.987   6.192   5.939
20590WAT     H162012   1.041   6.196   5.854
20590WAT     H262013   1.010   6.109   5.989
20591WAT      O62014   3.477   5.345   7.825
20591WAT     H162015   3.383   5.379   7.813
20591WAT     H262016   3.540   5.422   7.824
20592WAT      O62017   4.746   5.698   0.359
20592WAT     H162018   4.815   5.767   0.382
20592WAT     H262019   4.670   5.704   0.424
20593WAT      O62020   6.708   9.481   7.678
20593WAT     H162021   6.687   9.576   7.697
20593WAT     H262022   6.776   9.475   7.605
20594WAT      O62023   2.739   5.074   2.341
20594WAT     H162024   2.687   4.990   2.359
20594WAT     H262025   2.726   5.139   2.416
20595WAT      O62026   1.313   8.492   8.625
20595WAT     H162027   1.357   8.519   8.711
20595WAT     H262028   1.215   8.509   8.631
20596WAT      O62029   9.365   4.151   4.143
20596WAT     H162030   9.301   4.224   4.170
20596WAT     H262031   9.454   4.192   4.121
20597WAT      O62032   9.282   6.015   7.176
20597WAT     H162033   9.259   6.075   7.099
20597WAT     H262034   9.295   6.070   7.259
20598WAT      O62035   7.445   5.342   9.191
20598WAT     H162036   7.416   5.385   9.106
20598WAT     H262037   7.459   5.244   9.176
20599WAT      O62038   3.040   0.205   7.038
20599WAT     H162039   3.036   0.196   6.939
20599WAT     H262040   3.132   0.183   7.070
20600WAT      O62041   7.396   5.047   9.473
20600WAT     H162042   7.326   5.109   9.510
20600WAT     H262043   7.380   4.954   9.508
20601WAT      O62044   5.092   2.933   5.743
20601WAT     H162045   5.042   2.998   5.800
20601WAT     H262046   5.189   2.954   5.745
20602WAT      O62047   5.392   1.493   9.352
20602WAT     H162048   5.465   1.428   9.374
20602WAT     H262049   5.324   1.494   9.425
20603WAT      O62050   4.884   3.579   1.288
20603WAT     H162051   4.811   3.565   1.356
20603WAT     H262052   4.906   3.492   1.244
20604WAT      O62053   5.779   2.890   9.389
20604WAT     H162054   5.855   2.936   9.343
20604WAT     H262055   5.753   2.809   9.337
20605WAT      O62056   3.859   0.505   3.850
20605WAT     H162057   3.913   0.554   3.783
20605WAT     H262058   3.769   0.547   3.858
20606WAT      O62059   3.585   3.118   6.877
20606WAT     H162060   3.513   3.075   6.822
20606WAT     H262061   3.546   3.193   6.930
20607WAT      O62062   1.407   6.511   3.129
20607WAT     H162063   1.377   6.591   3.078
20607WAT     H262064   1.506   6.511   3.138
20608WAT      O62065   8.952   3.662   4.859
20608WAT     H162066   8.997   3.710   4.935
20608WAT     H262067   9.021   3.611   4.806
20609WAT      O62068   1.606   5.835   1.343
20609WAT     H162069   1.526   5.886   1.374
20609WAT     H262070   1.577   5.745   1.310
20610WAT      O62071   8.431   5.218   7.437
20610WAT     H162072   8.454   5.152   7.509
20610WAT     H262073   8.333   5.211   7.415
20611WAT      O62074   5.254   5.457   4.378
20611WAT     H162075   5.170   5.510   4.367
20611WAT     H262076   5.273   5.444   4.475
20612WAT      O62077   6.688   0.342   0.982
20612WAT     H162078   6.713   0.275   0.913
20612WAT     H262079   6.699   0.302   1.073
20613WAT      O62080   1.610   0.247   4.885
20613WAT     H162081   1.528   0.224   4.937
20613WAT     H262082   1.659   0.320   4.932
20614WAT      O62083   2.322   3.689   6.324
20614WAT     H162084   2.304   3.611   6.264
20614WAT     H262085   2.243   3.704   6.384
20615WAT      O62086   8.854   8.065   1.799
20615WAT     H162087   8.786   8.011   1.850
20615WAT     H262088   8.911   8.004   1.745
20616WAT      O62089   1.141   0.709   3.261
20616WAT     H162090   1.067   0.772   3.287
20616WAT     H262091   1.219   0.723   3.322
20617WAT      O62092   0.481   7.075   9.676
20617WAT     H162093   0.442   7.110   9.761
20617WAT     H262094   0.413   7.019   9.629
20618WAT      O62095   1.568   4.891   5.215
20618WAT     H162096   1.516   4.806   5.211
20618WAT     H262097   1.603   4.904   5.308
20619WAT      O62098   8.272   0.474   7.970
20619WAT     H162099   8.354   0.525   7.942
20619WAT     H262100   8.279   0.380   7.939
20620WAT      O62101   4.612   1.563   6.347
20620WAT     H162102   4.538   1.506   6.311
20620WAT     H262103   4.574   1.634   6.406
20621WAT      O62104   6.715   8.033   0.495
20621WAT     H162105   6.704   8.101   0.423
20621WAT     H262106   6.630   7.981   0.505
20622WAT      O62107   3.322   5.050   0.788
20622WAT     H162108   3.336   5.062   0.689
20622WAT     H262109   3.248   4.984   0.802
20623WAT      O62110   0.400   1.915   5.067
20623WAT     H162111   0.329   1.846   5.053
20623WAT     H262112   0.455   1.924   4.984
20624WAT      O62113   9.348   0.803   4.630
20624WAT     H162114   9.323   0.736   4.700
20624WAT     H262115   9.289   0.883   4.639
20625WAT      O62116   7.562   4.397   2.366
20625WAT     H162117   7.557   4.456   2.446
20625WAT     H262118   7.571   4.302   2.394
20626WAT      O62119   2.233   8.803   0.058
20626WAT     H162120   2.144   8.775   0.022
20626WAT     H262121   2.302   8.734   0.034
20627WAT      O62122   5.139   7.465   0.667
20627WAT     H162123   5.193   7.448   0.585
20627WAT     H262124   5.132   7.381   0.721
20628WAT      O62125   8.630   6.018   9.623
20628WAT     H162126   8.537   6.033   9.591
20628WAT     H262127   8.636   5.930   9.671
20629WAT      O62128   2.351   4.632   1.550
20629WAT     H162129   2.274   4.676   1.503
20629WAT     H262130   2.428   4.696   1.553
20630WAT      O62131   8.305   7.624   9.341
20630WAT     H162132   8.211   7.606   9.312
20630WAT     H262133   8.307   7.637   9.440
20631WAT      O62134   6.274   6.225   0.842
20631WAT     H162135   6.333   6.166   0.897
20631WAT     H262136   6.237   6.173   0.765
20632WAT      O62137   7.547   8.731   9.365
20632WAT     H162138   7.469   8.758   9.420
20632WAT     H262139   7.538   8.770   9.273
20633WAT      O62140   6.082   2.646   2.359
20633WAT     H162141   6.066   2.745   2.364
20633WAT     H262142   6.177   2.626   2.382
20634WAT      O62143   0.522   0.749   3.835
20634WAT     H162144   0.429   0.781   3.853
20634WAT     H262145   0.522   0.650   3.823
20635WAT      O62146   2.980   5.398   6.814
20635WAT     H162147   3.007   5.304   6.834
20635WAT     H262148   2.894   5.398   6.764
20636WAT      O62149   8.760   3.571   0.912
20636WAT     H162150   8.683   3.515   0.882
20636WAT     H262151   8.788   3.632   0.837
20637WAT      O62152   1.919   7.232   9.088
20637WAT     H162153   1.877   7.153   9.132
20637WAT     H262154   1.859   7.267   9.016
20638WAT      O62155   3.328   3.303   4.645
20638WAT     H162156   3.398   3.342   4.705
20638WAT     H262157   3.237   3.321   4.683
20639WAT      O62158   7.067   9.204   4.442
20639WAT     H162159   6.976   9.222   4.405
20639WAT     H262160   7.088   9.270   4.514
20640WAT      O62161   9.289   0.454   9.871
20640WAT     H162162   9.292   0.554   9.872
20640WAT     H262163   9.261   0.423   9.780
20641WAT      O62164   3.305   2.919   7.303
20641WAT     H162165   3.384   2.861   7.289
20641WAT     H262166   3.251   2.884   7.380
20642WAT      O62167   6.606   4.420   6.959
20642WAT     H162168   6.510   4.444   6.964
20642WAT     H262169   6.624   4.373   6.872
20643WAT      O62170   3.801   5.051   5.946
20643WAT     H162171   3.758   4.971   5.986
20643WAT     H262172   3.900   5.035   5.936
20644WAT      O62173   8.381   3.108   5.592
20644WAT     H162174   8.311   3.162   5.545
20644WAT     H262175   8.354   3.096   5.688
20645WAT      O62176   1.525   2.501   3.129
20645WAT     H162177   1.453   2.561   3.165
20645WAT     H262178   1.523   2.502   3.030
20646WAT      O62179   9.813   3.327   1.611
20646WAT     H162180   9.718   3.326   1.643
20646WAT     H262181   9.873   3.351   1.686
20647WAT      O62182   8.252   7.968   9.725
20647WAT     H162183   8.158   7.992   9.750
20647WAT     H262184   8.275   8.010   9.638
20648WAT      O62185   9.877   5.000   3.321
20648WAT     H162186   9.936   4.952   3.387
20648WAT     H262187   9.884   4.955   3.232
20649WAT      O62188   7.333   5.278   0.120
20649WAT     H162189   7.330   5.214   0.197
20649WAT     H262190   7.249   5.332   0.119
20650WAT      O62191   3.797   1.862   7.793
20650WAT     H162192   3.749   1.847   7.707
20650WAT     H262193   3.744   1.825   7.868
20651WAT      O62194   3.041   2.281   8.899
20651WAT     H162195   2.994   2.282   8.811
20651WAT     H262196   3.036   2.372   8.941
20652WAT      O62197   8.750   7.641   8.824
20652WAT     H162198   8.788   7.554   8.856
20652WAT     H262199   8.659   7.625   8.786
20653WAT      O62200   3.509   3.534   7.711
20653WAT     H162201   3.501   3.490   7.801
20653WAT     H262202   3.598   3.513   7.672
20654WAT      O62203   3.201   5.123   4.538
20654WAT     H162204   3.244   5.213   4.539
20654WAT     H262205   3.257   5.061   4.483
20655WAT      O62206   9.160   4.686   7.799
20655WAT     H162207   9.150   4.613   7.867
20655WAT     H262208   9.208   4.764   7.840
20656WAT      O62209   2.926   5.845   6.706
20656WAT     H162210   2.921   5.830   6.607
20656WAT     H262211   3.020   5.832   6.737
20657WAT      O62212   3.494   1.399   5.113
20657WAT     H162213   3.570   1.430   5.056
20657WAT     H262214   3.522   1.399   5.209
20658WAT      O62215   0.269   4.165   1.669
20658WAT     H162216   0.314   4.186   1.583
20658WAT     H262217   0.173   4.142   1.653
20659WAT      O62218   0.034   3.667   9.594
20659WAT     H162219  -0.050   3.674   9.540
20659WAT     H262220   0.066   3.758   9.617
20660WAT      O62221   1.901   2.527   9.735
20660WAT     H162222   1.951   2.529   9.822
20660WAT     H262223   1.903   2.434   9.698
20661WAT      O62224   3.134   2.274   7.138
20661WAT     H162225   3.120   2.175   7.131
20661WAT     H262226   3.048   2.321   7.119
20662WAT      O62227   9.862   1.724   1.391
20662WAT     H162228   9.961   1.733   1.375
20662WAT     H262229   9.827   1.808   1.432
20663WAT      O62230   9.556   7.695   3.343
20663WAT     H162231   9.558   7.624   3.413
20663WAT     H262232   9.623   7.675   3.272
20664WAT      O62233   3.721   3.974   1.827
20664WAT     H162234   3.628   3.963   1.861
20664WAT     H262235   3.747   4.071   1.833
20665WAT      O62236   5.106   1.360   6.366
20665WAT     H162237   5.098   1.317   6.277
20665WAT     H262238   5.150   1.450   6.356
20666WAT      O62239   2.745   6.615   1.732
20666WAT     H162240   2.779   6.674   1.658
20666WAT     H262241   2.740   6.668   1.816
20667WAT      O62242   3.584   2.763   5.365
20667WAT     H162243   3.677   2.727   5.365
20667WAT     H262244   3.541   2.743   5.277
20668WAT      O62245   1.145   7.160   0.100
20668WAT     H162246   1.152   7.224   0.023
20668WAT     H262247   1.209   7.085   0.086
20669WAT      O62248   1.659   8.933   0.945
20669WAT     H162249   1.648   8.926   1.045
20669WAT     H262250   1.625   8.850   0.902
20670WAT      O62251   6.759   2.632   4.276
20670WAT     H162252   6.666   2.657   4.248
20670WAT     H262253   6.824   2.676   4.215
20671WAT      O62254   5.899   8.908   3.410
20671WAT     H162255   5.938   8.827   3.365
20671WAT     H262256   5.848   8.880   3.491
20672WAT      O62257   0.715   3.028   0.396
20672WAT     H162258   0.758   3.001   0.482
20672WAT     H262259   0.786   3.056   0.331
20673WAT      O62260   4.815   2.240   7.709
20673WAT     H162261   4.909   2.267   7.689
20673WAT     H262262   4.811   2.195   7.798
20674WAT      O62263   1.904   0.714   0.382
20674WAT     H162264   1.813   0.723   0.341
20674WAT     H262265   1.921   0.618   0.405
20675WAT      O62266   8.712   3.180   3.707
20675WAT     H162267   8.616   3.207   3.712
20675WAT     H262268   8.769   3.260   3.691
20676WAT      O62269   2.797   6.919   4.595
20676WAT     H162270   2.872   6.855   4.577
20676WAT     H262271   2.815   6.969   4.680
20677WAT      O62272   4.488   7.317   6.794
20677WAT     H162273   4.526   7.245   6.736
20677WAT     H262274   4.524   7.307   6.887
20678WAT      O62275   7.830   7.645   3.249
20678WAT     H162276   7.797   7.645   3.343
20678WAT     H262277   7.803   7.731   3.205
20679WAT      O62278   9.671   7.972   5.907
20679WAT     H162279   9.769   7.990   5.909
20679WAT     H262280   9.631   8.014   5.826
20680WAT      O62281   3.101   9.342   7.161
20680WAT     H162282   3.109   9.374   7.255
20680WAT     H262283   3.079   9.245   7.160
20681WAT      O62284   5.211   2.528   3.130
20681WAT     H162285   5.129   2.489   3.087
20681WAT     H262286   5.195   2.541   3.227
20682WAT      O62287   7.071   3.064   0.217
20682WAT     H162288   7.160   3.032   0.184
20682WAT     H262289   7.066   3.054   0.316
20683WAT      O62290   7.429   3.345   5.176
20683WAT     H162291   7.474   3.322   5.262
20683WAT     H262292   7.474   3.298   5.101
20684WAT      O62293   7.750   6.557   0.146
20684WAT     H162294   7.663   6.584   0.106
20684WAT     H262295   7.734   6.500   0.227
20685WAT      O62296   8.315   9.341   5.341
20685WAT     H162297   8.309   9.382   5.250
20685WAT     H262298   8.258   9.258   5.345
20686WAT      O62299   6.256   7.915   9.566
20686WAT     H162300   6.218   7.962   9.486
20686WAT     H262301   6.301   7.831   9.536
20687WAT      O62302   2.762   7.892   7.092
20687WAT     H162303   2.846   7.843   7.069
20687WAT     H262304   2.785   7.973   7.146
20688WAT      O62305   2.258   0.411   5.077
20688WAT     H162306   2.207   0.459   5.006
20688WAT     H262307   2.245   0.312   5.067
20689WAT      O62308   8.209   9.341   4.979
20689WAT     H162309   8.235   9.412   5.044
20689WAT     H262310   8.207   9.379   4.887
20690WAT      O62311   3.527   0.068   1.472
20690WAT     H162312   3.433   0.034   1.466
20690WAT     H262313   3.529   0.165   1.449
20691WAT      O62314   5.195   7.444   8.810
20691WAT     H162315   5.221   7.393   8.892
20691WAT     H262316   5.178   7.381   8.734
20692WAT      O62317   2.623   5.612   4.142
20692WAT     H162318   2.603   5.693   4.196
20692WAT     H262319   2.601   5.628   4.046
20693WAT      O62320   7.506   5.001   2.803
20693WAT     H162321   7.580   4.936   2.820
20693WAT     H262322   7.442   4.999   2.879
20694WAT      O62323   0.935   2.800   6.261
20694WAT     H162324   0.999   2.725   6.244
20694WAT     H262325   0.855   2.790   6.202
20695WAT      O62326   2.060   1.148   0.234
20695WAT     H162327   2.141   1.153   0.176
20695WAT     H262328   1.998   1.224   0.212
20696WAT      O62329   7.039   0.494   0.841
20696WAT     H162330   6.948   0.531   0.856
20696WAT     H262331   7.063   0.500   0.744
20697WAT      O62332   0.291   4.153   6.572
20697WAT     H162333   0.342   4.068   6.561
20697WAT     H262334   0.197   4.140   6.538
20698WAT      O62335   1.789   7.155   7.068
20698WAT     H162336   1.755   7.120   7.155
20698WAT     H262337   1.838   7.083   7.020
20699WAT      O62338   4.288   4.515   5.007
20699WAT     H162339   4.350   4.455   4.956
20699WAT     H262340   4.340   4.566   5.075
20700WAT      O62341   9.562   2.123   9.433
20700WAT     H162342   9.534   2.135   9.528
20700WAT     H262343   9.661   2.136   9.426
20701WAT      O62344   8.095   8.886   3.692
20701WAT     H162345   8.094   8.831   3.609
20701WAT     H262346   8.167   8.955   3.686
20702WAT      O62347   2.575   8.652   6.536
20702WAT     H162348   2.503   8.616   6.477
20702WAT     H262349   2.536   8.722   6.597
20703WAT      O62350   7.987   1.207   8.397
20703WAT     H162351   8.018   1.291   8.442
20703WAT     H262352   7.990   1.131   8.463
20704WAT      O62353   5.770   6.373   7.327
20704WAT     H162354   5.757   6.446   7.393
20704WAT     H262355   5.868   6.352   7.319
20705WAT      O62356   5.568   9.186   7.151
20705WAT     H162357   5.485   9.232   7.119
20705WAT     H262358   5.644   9.251   7.155
20706WAT      O62359   3.829   4.510   1.463
20706WAT     H162360   3.867   4.445   1.398
20706WAT     H262361   3.891   4.520   1.541
20707WAT      O62362   9.870   1.535   3.853
20707WAT     H162363   9.778   1.495   3.846
20707WAT     H262364   9.923   1.484   3.920
20708WAT      O62365   5.234   9.438   0.449
20708WAT     H162366   5.153   9.381   0.462
20708WAT     H262367   5.308   9.407   0.509
20709WAT      O62368   7.126   5.750   3.715
20709WAT     H162369   7.037   5.777   3.677
20709WAT     H262370   7.117   5.739   3.814
20710WAT      O62371   8.309   4.793   3.894
20710WAT     H162372   8.224   4.814   3.846
20710WAT     H262373   8.385   4.838   3.847
20711WAT      O62374   9.093   6.716   5.126
20711WAT     H162375   9.051   6.673   5.206
20711WAT     H262376   9.039   6.696   5.044
20712WAT      O62377   1.948   4.506   5.820
20712WAT     H162378   1.856   4.538   5.795
20712WAT     H262379   1.977   4.550   5.905
20713WAT      O62380   1.432   4.655   5.214
20713WAT     H162381   1.453   4.615   5.125
20713WAT     H262382   1.352   4.610   5.254
20714WAT      O62383   9.312   1.454   7.380
20714WAT     H162384   9.313   1.388   7.455
20714WAT     H262385   9.273   1.411   7.299
20715WAT      O62386   2.021   4.647   0.307
20715WAT     H162387   2.098   4.593   0.273
20715WAT     H262388   2.031   4.742   0.278
20716WAT      O62389   7.749   2.743   8.475
20716WAT     H162390   7.677   2.710   8.536
20716WAT     H262391   7.831   2.687   8.488
20717WAT      O62392   1.214   5.176   2.297
20717WAT     H162393   1.178   5.087   2.327
20717WAT     H262394   1.259   5.165   2.209
20718WAT      O62395   1.964   0.357   5.113
20718WAT     H162396   2.014   0.286   5.064
20718WAT     H262397   1.940   0.325   5.204
20719WAT      O62398   6.942   6.553   9.428
20719WAT     H162399   6.954   6.455   9.413
20719WAT     H262400   7.031   6.594   9.451
20720WAT      O62401   9.259   0.014   2.590
20720WAT     H162402   9.250  -0.059   2.657
20720WAT     H262403   9.298   0.095   2.634
20721WAT      O62404   4.442   2.241   6.650
20721WAT     H162405   4.458   2.332   6.611
20721WAT     H262406   4.368   2.197   6.599
20722WAT      O62407   8.978   3.314   8.835
20722WAT     H162408   9.011   3.351   8.748
20722WAT     H262409   9.050   3.321   8.904
20723WAT      O62410   3.268   1.341   9.171
20723WAT     H162411   3.312   1.379   9.252
20723WAT     H262412   3.333   1.344   9.094
20724WAT      O62413   8.787   8.567   2.894
20724WAT     H162414   8.730   8.618   2.829
20724WAT     H262415   8.823   8.485   2.849
20725WAT      O62416   0.769   0.744   8.764
20725WAT     H162417   0.749   0.793   8.679
20725WAT     H262418   0.800   0.808   8.834
20726WAT      O62419   4.455   6.116   5.092
20726WAT     H162420   4.416   6.029   5.062
20726WAT     H262421   4.470   6.176   5.013
20727WAT      O62422   9.703   4.749   4.343
20727WAT     H162423   9.703   4.844   4.312
20727WAT     H262424   9.641   4.740   4.421
20728WAT      O62425   1.259   5.191   2.002
20728WAT     H162426   1.177   5.141   2.033
20728WAT     H262427   1.231   5.278   1.962
20729WAT      O62428   9.476   3.333   2.659
20729WAT     H162429   9.496   3.428   2.633
20729WAT     H262430   9.433   3.286   2.583
20730WAT      O62431   2.382   7.580   4.331
20730WAT     H162432   2.296   7.616   4.296
20730WAT     H262433   2.388   7.483   4.310
20731WAT      O62434   3.910   5.629   9.093
20731WAT     H162435   3.850   5.631   9.014
20731WAT     H262436   3.931   5.723   9.121
20732WAT      O62437   1.641   0.061   6.575
20732WAT     H162438   1.631  -0.027   6.621
20732WAT     H262439   1.576   0.067   6.500
20733WAT      O62440   5.080   9.003   1.609
20733WAT     H162441   5.125   8.917   1.587
20733WAT     H262442   5.053   9.004   1.705
20734WAT      O62443   2.657   0.263   5.711
20734WAT     H162444   2.630   0.168   5.727
20734WAT     H262445   2.733   0.265   5.646
20735WAT      O62446   3.891   0.747   5.910
20735WAT     H162447   3.855   0.667   5.862
20735WAT     H262448   3.982   0.770   5.875
20736WAT      O62449   2.662   5.744   5.936
20736WAT     H162450   2.738   5.795   5.896
20736WAT     H262451   2.583   5.805   5.945
20737WAT      O62452   4.285   9.680   9.072
20737WAT     H162453   4.302   9.684   9.170
20737WAT     H262454   4.341   9.750   9.026
20738WAT      O62455   6.402   3.665   4.373
20738WAT     H162456   6.466   3.737   4.346
20738WAT     H262457   6.363   3.624   4.291
20739WAT      O62458   3.409   2.702   0.358
20739WAT     H162459   3.352   2.770   0.311
20739WAT     H262460   3.484   2.673   0.298
20740WAT      O62461   4.914   2.460   8.651
20740WAT     H162462   4.831   2.418   8.612
20740WAT     H262463   4.977   2.387   8.678
20741WAT      O62464   2.315   3.111   3.253
20741WAT     H162465   2.366   3.197   3.256
20741WAT     H262466   2.279   3.090   3.344
20742WAT      O62467   9.348   3.008   5.771
20742WAT     H162468   9.368   3.102   5.744
20742WAT     H262469   9.321   3.005   5.867
20743WAT      O62470   8.167   1.688   0.587
20743WAT     H162471   8.077   1.655   0.616
20743WAT     H262472   8.156   1.772   0.535
20744WAT      O62473   6.202   1.726   4.540
20744WAT     H162474   6.113   1.703   4.501
20744WAT     H262475   6.261   1.763   4.469
20745WAT      O62476   2.995   5.872   6.406
20745WAT     H162477   2.976   5.970   6.397
20745WAT     H262478   3.094   5.857   6.403
20746WAT      O62479   4.924   0.383   3.567
20746WAT     H162480   4.975   0.435   3.635
20746WAT     H262481   4.868   0.314   3.612
20747WAT      O62482   9.594   7.314   1.402
20747WAT     H162483   9.645   7.317   1.316
20747WAT     H262484   9.615   7.395   1.456
20748WAT      O62485   8.930   2.090   4.238
20748WAT     H162486   8.893   2.011   4.190
20748WAT     H262487   8.860   2.160   4.246
20749WAT      O62488   0.029   6.697   8.462
20749WAT     H162489   0.124   6.668   8.473
20749WAT     H262490  -0.010   6.720   8.551
20750WAT      O62491   6.040   4.353   3.193
20750WAT     H162492   5.984   4.366   3.111
20750WAT     H262493   6.107   4.427   3.199
20751WAT      O62494   7.248   6.667   9.328
20751WAT     H162495   7.316   6.596   9.307
20751WAT     H262496   7.294   6.749   9.360
20752WAT      O62497   0.411   3.852   8.935
20752WAT     H162498   0.490   3.886   8.884
20752WAT     H262499   0.421   3.753   8.950
20753WAT      O62500   1.931   1.348   8.948
20753WAT     H162501   1.906   1.278   9.015
20753WAT     H262502   2.031   1.360   8.949
20754WAT      O62503   1.360   5.879   0.140
20754WAT     H162504   1.307   5.843   0.063
20754WAT     H262505   1.307   5.866   0.225
20755WAT      O62506   3.658   3.789   6.416
20755WAT     H162507   3.730   3.721   6.407
20755WAT     H262508   3.677   3.849   6.494
20756WAT      O62509   4.812   7.231   7.416
20756WAT     H162510   4.894   7.253   7.469
20756WAT     H262511   4.834   7.162   7.347
20757WAT      O62512   0.462   5.652   7.086
20757WAT     H162513   0.367   5.636   7.057
20757WAT     H262514   0.476   5.749   7.102
20758WAT      O62515   1.885   5.164   0.892
20758WAT     H162516   1.809   5.119   0.846
20758WAT     H262517   1.934   5.222   0.827
20759WAT      O62518   2.915   9.831   5.775
20759WAT     H162519   2.982   9.818   5.848
20759WAT     H262520   2.962   9.857   5.691
20760WAT      O62521   0.057   6.967   1.012
20760WAT     H162522   0.135   7.003   1.062
20760WAT     H262523  -0.027   6.985   1.064
20761WAT      O62524   1.245   9.308   4.519
20761WAT     H162525   1.184   9.252   4.575
20761WAT     H262526   1.260   9.396   4.565
20762WAT      O62527   6.068   1.833   3.979
20762WAT     H162528   6.147   1.854   3.922
20762WAT     H262529   6.028   1.918   4.013
20763WAT      O62530   5.451   1.985   7.472
20763WAT     H162531   5.392   1.997   7.392
20763WAT     H262532   5.529   2.048   7.466
20764WAT      O62533   0.001   1.951   4.088
20764WAT     H162534   0.090   1.968   4.046
20764WAT     H262535   0.013   1.900   4.172
20765WAT      O62536   0.851   3.030   4.285
20765WAT     H162537   0.784   3.010   4.213
20765WAT     H262538   0.873   3.127   4.283
20766WAT      O62539   5.665   0.005   6.990
20766WAT     H162540   5.692   0.012   6.894
20766WAT     H262541   5.712   0.075   7.043
20767WAT      O62542   8.879   4.770   1.216
20767WAT     H162543   8.792   4.819   1.221
20767WAT     H262544   8.862   4.672   1.210
20768WAT      O62545   7.281   8.126   2.107
20768WAT     H162546   7.340   8.052   2.139
20768WAT     H262547   7.194   8.124   2.156
20769WAT      O62548   0.474   0.260   7.190
20769WAT     H162549   0.569   0.291   7.194
20769WAT     H262550   0.436   0.285   7.101
20770WAT      O62551   2.312   1.270   7.565
20770WAT     H162552   2.287   1.248   7.659
20770WAT     H262553   2.239   1.242   7.503
20771WAT      O62554   4.587   6.843   6.471
20771WAT     H162555   4.505   6.800   6.509
20771WAT     H262556   4.604   6.929   6.517
20772WAT      O62557   5.355   8.237   6.510
20772WAT     H162558   5.385   8.266   6.601
20772WAT     H262559   5.384   8.142   6.495
20773WAT      O62560   5.589   9.266   6.197
20773WAT     H162561   5.665   9.243   6.135
20773WAT     H262562   5.622   9.263   6.291
20774WAT      O62563   1.906   6.284   3.916
20774WAT     H162564   1.982   6.334   3.873
20774WAT     H262565   1.931   6.188   3.925
20775WAT      O62566   6.620   2.155   5.916
20775WAT     H162567   6.699   2.215   5.921
20775WAT     H262568   6.537   2.210   5.911
20776WAT      O62569   5.635   3.477   2.584
20776WAT     H162570   5.539   3.499   2.569
20776WAT     H262571   5.686   3.490   2.498
20777WAT      O62572   2.029   5.219   3.902
20777WAT     H162573   1.943   5.184   3.864
20777WAT     H262574   2.093   5.143   3.914
20778WAT      O62575   9.324   0.637   6.547
20778WAT     H162576   9.291   0.648   6.453
20778WAT     H262577   9.250   0.655   6.611
20779WAT      O62578   4.032   9.313   5.062
20779WAT     H162579   4.114   9.335   5.115
20779WAT     H262580   4.050   9.231   5.006
20780WAT      O62581   9.220   5.606   8.223
20780WAT     H162582   9.295   5.669   8.201
20780WAT     H262583   9.235   5.567   8.314
20781WAT      O62584   0.489   8.921   9.645
20781WAT     H162585   0.549   8.848   9.612
20781WAT     H262586   0.526   8.959   9.730
20782WAT      O62587   1.355   0.965   9.676
20782WAT     H162588   1.416   0.915   9.738
20782WAT     H262589   1.348   0.915   9.589
20783WAT      O62590   7.843   8.171   8.666
20783WAT     H162591   7.864   8.083   8.626
20783WAT     H262592   7.774   8.218   8.611
20784WAT      O62593   2.737   6.164   8.583
20784WAT     H162594   2.789   6.133   8.662
20784WAT     H262595   2.724   6.088   8.519
20785WAT      O62596   9.083   0.342   1.509
20785WAT     H162597   9.054   0.262   1.456
20785WAT     H262598   9.002   0.384   1.552
20786WAT      O62599   5.265   5.006   6.244
20786WAT     H162600   5.229   4.918   6.213
20786WAT     H262601   5.203   5.080   6.215
20787WAT      O62602   0.192   7.458   0.508
20787WAT     H162603   0.147   7.391   0.568
20787WAT     H262604   0.151   7.454   0.417
20788WAT      O62605   0.683   7.899   5.502
20788WAT     H162606   0.636   7.916   5.415
20788WAT     H262607   0.761   7.839   5.487
20789WAT      O62608   2.240   7.734   6.517
20789WAT     H162609   2.320   7.792   6.504
20789WAT     H262610   2.228   7.674   6.438
20790WAT      O62611   8.861   1.413   9.428
20790WAT     H162612   8.812   1.497   9.405
20790WAT     H262613   8.952   1.435   9.462
20791WAT      O62614   9.739   6.724   9.536
20791WAT     H162615   9.742   6.804   9.476
20791WAT     H262616   9.814   6.730   9.603
20792WAT      O62617   7.514   8.945   1.086
20792WAT     H162618   7.470   9.031   1.063
20792WAT     H262619   7.613   8.955   1.078
20793WAT      O62620   0.148   3.864   8.601
20793WAT     H162621   0.144   3.818   8.690
20793WAT     H262622   0.210   3.942   8.607
20794WAT      O62623   7.425   6.434   2.518
20794WAT     H162624   7.359   6.382   2.573
20794WAT     H262625   7.444   6.521   2.564
20795WAT      O62626   3.830   0.249   9.107
20795WAT     H162627   3.794   0.169   9.154
20795WAT     H262628   3.927   0.235   9.088
20796WAT      O62629   1.402   0.129   8.102
20796WAT     H162630   1.377   0.151   8.196
20796WAT     H262631   1.369   0.037   8.079
20797WAT      O62632   8.942   9.173   2.434
20797WAT     H162633   8.982   9.116   2.506
20797WAT     H262634   8.994   9.160   2.349
20798WAT      O62635   4.099   4.133   1.161
20798WAT     H162636   4.168   4.097   1.223
20798WAT     H262637   4.143   4.178   1.084
20799WAT      O62638   4.644   1.976   6.634
20799WAT     H162639   4.574   2.045   6.618
20799WAT     H262640   4.655   1.961   6.732
20800WAT      O62641   1.611   5.702   8.685
20800WAT     H162642   1.613   5.791   8.731
20800WAT     H262643   1.555   5.639   8.739
20801WAT      O62644   6.843   8.661   3.136
20801WAT     H162645   6.912   8.596   3.170
20801WAT     H262646   6.812   8.718   3.212
20802WAT      O62647   1.214   6.033   1.643
20802WAT     H162648   1.177   6.016   1.735
20802WAT     H262649   1.214   6.131   1.625
20803WAT      O62650   9.282   9.823   5.722
20803WAT     H162651   9.195   9.869   5.702
20803WAT     H262652   9.285   9.799   5.819
20804WAT      O62653   0.729   0.121   1.980
20804WAT     H162654   0.809   0.061   1.987
20804WAT     H262655   0.677   0.098   1.898
20805WAT      O62656   6.326   0.414   0.679
20805WAT     H162657   6.394   0.482   0.649
20805WAT     H262658   6.362   0.365   0.758
20806WAT      O62659   1.796   4.485   9.169
20806WAT     H162660   1.787   4.386   9.154
20806WAT     H262661   1.862   4.522   9.104
20807WAT      O62662   2.230   2.848   9.150
20807WAT     H162663   2.300   2.843   9.078
20807WAT     H262664   2.225   2.941   9.185
20808WAT      O62665   9.298   5.950   1.053
20808WAT     H162666   9.390   5.952   1.091
20808WAT     H262667   9.236   6.002   1.112
20809WAT      O62668   8.935   8.081   8.771
20809WAT     H162669   8.844   8.090   8.811
20809WAT     H262670   8.952   7.986   8.748
20810WAT      O62671   6.167   3.217   5.446
20810WAT     H162672   6.130   3.300   5.488
20810WAT     H262673   6.267   3.221   5.444
20811WAT      O62674   7.879   1.900   0.704
20811WAT     H162675   7.793   1.949   0.717
20811WAT     H262676   7.861   1.806   0.676
20812WAT      O62677   5.185   0.996   4.607
20812WAT     H162678   5.092   1.019   4.579
20812WAT     H262679   5.210   0.907   4.569
20813WAT      O62680   3.368   5.414   6.942
20813WAT     H162681   3.349   5.505   6.978
20813WAT     H262682   3.349   5.413   6.843
20814WAT      O62683   3.363   6.097   5.382
20814WAT     H162684   3.454   6.122   5.413
20814WAT     H262685   3.343   6.003   5.410
20815WAT      O62686   6.036   8.914   4.221
20815WAT     H162687   6.056   8.819   4.242
20815WAT     H262688   6.013   8.963   4.306
20816WAT      O62689   5.706   3.647   9.162
20816WAT     H162690   5.720   3.742   9.190
20816WAT     H262691   5.638   3.644   9.089
20817WAT      O62692   7.418   3.891   1.141
20817WAT     H162693   7.435   3.985   1.110
20817WAT     H262694   7.443   3.883   1.238
20818WAT      O62695   8.014   3.149   5.740
20818WAT     H162696   7.923   3.184   5.722
20818WAT     H262697   8.039   3.166   5.835
20819WAT      O62698   5.080   9.580   6.149
20819WAT     H162699   5.121   9.659   6.194
20819WAT     H262700   5.152   9.527   6.103
20820WAT      O62701   2.090   9.586   6.576
20820WAT     H162702   2.070   9.610   6.671
20820WAT     H262703   2.006   9.556   6.531
20821WAT      O62704   6.053   5.462   3.325
20821WAT     H162705   6.013   5.553   3.336
20821WAT     H262706   6.048   5.435   3.229
20822WAT      O62707   1.865   2.290   0.867
20822WAT     H162708   1.828   2.283   0.775
20822WAT     H262709   1.799   2.338   0.926
20823WAT      O62710   2.112   0.304   5.832
20823WAT     H162711   2.209   0.319   5.852
20823WAT     H262712   2.063   0.287   5.918
20824WAT      O62713   2.975   2.771   6.644
20824WAT     H162714   2.983   2.854   6.698
20824WAT     H262715   2.928   2.701   6.697
20825WAT      O62716   0.679   0.023   4.280
20825WAT     H162717   0.638   0.031   4.371
20825WAT     H262718   0.639   0.092   4.219
20826WAT      O62719   6.829   8.348   5.699
20826WAT     H162720   6.893   8.277   5.726
20826WAT     H262721   6.819   8.348   5.599
20827WAT      O62722   7.521   8.371   1.683
20827WAT     H162723   7.515   8.347   1.780
20827WAT     H262724   7.443   8.427   1.657
20828WAT      O62725   5.649   9.036   0.980
20828WAT     H162726   5.563   9.078   1.009
20828WAT     H262727   5.668   9.062   0.885
20829WAT      O62728   4.593   4.045   8.419
20829WAT     H162729   4.563   3.963   8.371
20829WAT     H262730   4.535   4.061   8.499
20830WAT      O62731   5.590   9.658   6.329
20830WAT     H162732   5.564   9.717   6.252
20830WAT     H262733   5.509   9.612   6.365
20831WAT      O62734   9.015   0.871   4.853
20831WAT     H162735   8.955   0.940   4.894
20831WAT     H262736   8.970   0.832   4.772
20832WAT      O62737   7.246   2.850   4.321
20832WAT     H162738   7.152   2.869   4.291
20832WAT     H262739   7.310   2.898   4.261
20833WAT      O62740   8.250   6.005   8.835
20833WAT     H162741   8.254   6.104   8.852
20833WAT     H262742   8.164   5.968   8.870
20834WAT      O62743   4.203   2.605   3.083
20834WAT     H162744   4.173   2.511   3.099
20834WAT     H262745   4.286   2.605   3.028
20835WAT      O62746   2.550   8.178   3.379
20835WAT     H162747   2.540   8.167   3.478
20835WAT     H262748   2.485   8.119   3.332
20836WAT      O62749   7.397   3.765   1.682
20836WAT     H162750   7.298   3.763   1.672
20836WAT     H262751   7.424   3.844   1.737
20837WAT      O62752   1.708   0.414   3.564
20837WAT     H162753   1.788   0.375   3.519
20837WAT     H262754   1.733   0.442   3.657
20838WAT      O62755   5.804   4.708   2.506
20838WAT     H162756   5.860   4.712   2.423
20838WAT     H262757   5.861   4.683   2.584
20839WAT      O62758   3.402   3.463   1.630
20839WAT     H162759   3.358   3.396   1.689
20839WAT     H262760   3.491   3.429   1.601
20840WAT      O62761   0.707   0.743   0.805
20840WAT     H162762   0.653   0.827   0.801
20840WAT     H262763   0.710   0.711   0.900
20841WAT      O62764   4.084   0.426   5.577
20841WAT     H162765   4.114   0.512   5.618
20841WAT     H262766   4.135   0.350   5.617
20842WAT      O62767   9.268   1.687   8.914
20842WAT     H162768   9.312   1.643   8.992
20842WAT     H262769   9.316   1.661   8.830
20843WAT      O62770   1.943   3.081   9.599
20843WAT     H162771   1.965   3.017   9.673
20843WAT     H262772   2.009   3.155   9.598
20844WAT      O62773   0.079   6.423   3.311
20844WAT     H162774  -0.012   6.397   3.276
20844WAT     H262775   0.136   6.342   3.318
20845WAT      O62776   2.258   5.383   2.076
20845WAT     H162777   2.277   5.386   2.174
20845WAT     H262778   2.163   5.407   2.059
20846WAT      O62779   3.445   5.551   2.588
20846WAT     H162780   3.449   5.628   2.525
20846WAT     H262781   3.493   5.574   2.673
20847WAT      O62782   4.237   7.440   5.599
20847WAT     H162783   4.322   7.418   5.550
20847WAT     H262784   4.252   7.430   5.698
20848WAT      O62785   4.283   6.339   8.249
20848WAT     H162786   4.367   6.365   8.202
20848WAT     H262787   4.239   6.264   8.199
20849WAT      O62788   3.525   2.894   2.858
20849WAT     H162789   3.501   2.939   2.944
20849WAT     H262790   3.581   2.813   2.877
20850WAT      O62791   3.130   8.848   8.920
20850WAT     H162792   3.179   8.788   8.983
20850WAT     H262793   3.178   8.936   8.915
20851WAT      O62794   6.241   7.297   0.902
20851WAT     H162795   6.219   7.268   0.995
20851WAT     H262796   6.331   7.261   0.876
20852WAT      O62797   7.386   5.039   8.022
20852WAT     H162798   7.379   5.097   8.103
20852WAT     H262799   7.345   4.950   8.041
20853WAT      O62800   4.855   1.202   0.140
20853WAT     H162801   4.810   1.168   0.057
20853WAT     H262802   4.940   1.153   0.155
20854WAT      O62803   2.255   3.753   9.518
20854WAT     H162804   2.338   3.809   9.522
20854WAT     H262805   2.230   3.738   9.423
20855WAT      O62806   9.115   4.872   1.275
20855WAT     H162807   9.106   4.967   1.302
20855WAT     H262808   9.026   4.835   1.251
20856WAT      O62809   2.522   6.363   5.321
20856WAT     H162810   2.497   6.365   5.224
20856WAT     H262811   2.612   6.405   5.333
20857WAT      O62812   7.289   0.008   5.302
20857WAT     H162813   7.236  -0.074   5.323
20857WAT     H262814   7.319   0.004   5.206
20858WAT      O62815   9.863   9.231   3.654
20858WAT     H162816   9.925   9.229   3.733
20858WAT     H262817   9.899   9.294   3.585
20859WAT      O62818   0.055   2.287   0.895
20859WAT     H162819   0.149   2.293   0.927
20859WAT     H262820  -0.008   2.304   0.971
20860WAT      O62821   8.164   2.151   9.789
20860WAT     H162822   8.194   2.147   9.884
20860WAT     H262823   8.144   2.245   9.764
20861WAT      O62824   4.453   2.988   8.908
20861WAT     H162825   4.371   2.935   8.885
20861WAT     H262826   4.490   3.030   8.824
20862WAT      O62827   2.023   8.721   7.093
20862WAT     H162828   1.933   8.764   7.103
20862WAT     H262829   2.051   8.680   7.180
20863WAT      O62830   6.127   4.406   9.831
20863WAT     H162831   6.189   4.404   9.753
20863WAT     H262832   6.178   4.428   9.914
20864WAT      O62833   4.795   2.159   4.028
20864WAT     H162834   4.736   2.238   4.045
20864WAT     H262835   4.793   2.137   3.930
20865WAT      O62836   3.496   1.701   8.837
20865WAT     H162837   3.477   1.644   8.917
20865WAT     H262838   3.415   1.753   8.812
20866WAT      O62839   2.665   4.339   5.997
20866WAT     H162840   2.706   4.259   5.955
20866WAT     H262841   2.572   4.351   5.963
20867WAT      O62842   0.588   9.561   4.013
20867WAT     H162843   0.534   9.548   4.096
20867WAT     H262844   0.530   9.544   3.933
20868WAT      O62845   5.108   6.311   3.054
20868WAT     H162846   5.161   6.394   3.070
20868WAT     H262847   5.168   6.239   3.018
20869WAT      O62848   6.018   3.162   2.326
20869WAT     H162849   5.932   3.153   2.376
20869WAT     H262850   6.085   3.208   2.383
20870WAT      O62851   7.474   4.259   4.948
20870WAT     H162852   7.548   4.319   4.916
20870WAT     H262853   7.398   4.315   4.981
20871WAT      O62854   7.590   2.702   1.614
20871WAT     H162855   7.545   2.644   1.682
20871WAT     H262856   7.549   2.685   1.524
20872WAT      O62857   6.125   4.878   8.417
20872WAT     H162858   6.122   4.963   8.469
20872WAT     H262859   6.186   4.889   8.338
20873WAT      O62860   4.979   2.125   2.928
20873WAT     H162861   4.891   2.115   2.881
20873WAT     H262862   5.049   2.074   2.878
20874WAT      O62863   3.658   1.290   8.896
20874WAT     H162864   3.668   1.224   8.970
20874WAT     H262865   3.561   1.313   8.885
20875WAT      O62866   7.888   7.218   4.460
20875WAT     H162867   7.973   7.268   4.473
20875WAT     H262868   7.820   7.278   4.418
20876WAT      O62869   8.714   3.123   9.721
20876WAT     H162870   8.634   3.064   9.734
20876WAT     H262871   8.735   3.128   9.623
20877WAT      O62872   9.041   0.111   1.286
20877WAT     H162873   9.116   0.120   1.220
20877WAT     H262874   9.043   0.020   1.328
20878WAT      O62875   2.488   6.928   7.457
20878WAT     H162876   2.525   7.018   7.436
20878WAT     H262877   2.422   6.901   7.387
20879WAT      O62878   0.720   3.913   3.415
20879WAT     H162879   0.693   4.002   3.452
20879WAT     H262880   0.639   3.866   3.381
20880WAT      O62881   6.430   4.349   0.987
20880WAT     H162882   6.453   4.436   1.030
20880WAT     H262883   6.512   4.309   0.947
20881WAT      O62884   8.337   8.210   0.946
20881WAT     H162885   8.354   8.243   1.039
20881WAT     H262886   8.300   8.285   0.890
20882WAT      O62887   2.338   5.324   4.891
20882WAT     H162888   2.343   5.424   4.900
20882WAT     H262889   2.431   5.286   4.895
20883WAT      O62890   4.341   6.191   5.869
20883WAT     H162891   4.336   6.092   5.852
20883WAT     H262892   4.312   6.210   5.963
20884WAT      O62893   7.101   4.326   5.817
20884WAT     H162894   7.097   4.355   5.721
20884WAT     H262895   7.194   4.298   5.840
20885WAT      O62896   6.675   3.645   1.758
20885WAT     H162897   6.729   3.712   1.809
20885WAT     H262898   6.736   3.580   1.713
20886WAT      O62899   5.632   8.525   4.045
20886WAT     H162900   5.540   8.502   4.014
20886WAT     H262901   5.698   8.501   3.974
20887WAT      O62902   1.015   7.652   0.648
20887WAT     H162903   1.098   7.691   0.608
20887WAT     H262904   0.955   7.618   0.575
20888WAT      O62905   8.998   7.838   7.065
20888WAT     H162906   9.023   7.837   6.968
20888WAT     H262907   8.960   7.927   7.088
20889WAT      O62908   1.423   5.384   6.986
20889WAT     H162909   1.358   5.428   7.047
20889WAT     H262910   1.480   5.453   6.942
20890WAT      O62911   3.276   7.898   2.022
20890WAT     H162912   3.273   7.921   1.924
20890WAT     H262913   3.238   7.806   2.035
20891WAT      O62914   1.596   6.208   4.624
20891WAT     H162915   1.627   6.280   4.686
20891WAT     H262916   1.642   6.218   4.535
20892WAT      O62917   1.426   8.257   1.266
20892WAT     H162918   1.457   8.176   1.318
20892WAT     H262919   1.490   8.275   1.192
20893WAT      O62920   9.094   4.815   6.283
20893WAT     H162921   9.078   4.797   6.380
20893WAT     H262922   9.123   4.730   6.238
20894WAT      O62923   4.455   5.594   9.195
20894WAT     H162924   4.470   5.593   9.294
20894WAT     H262925   4.372   5.646   9.174
20895WAT      O62926   7.241   5.393   1.263
20895WAT     H162927   7.333   5.428   1.244
20895WAT     H262928   7.241   5.294   1.256
20896WAT      O62929   0.465   0.079   3.674
20896WAT     H162930   0.499   0.012   3.607
20896WAT     H262931   0.383   0.123   3.639
20897WAT      O62932   2.577   1.863   6.719
20897WAT     H162933   2.546   1.808   6.641
20897WAT     H262934   2.588   1.804   6.799
20898WAT      O62935   7.735   2.077   6.338
20898WAT     H162936   7.807   2.137   6.304
20898WAT     H262937   7.777   1.998   6.384
20899WAT      O62938   0.478   6.958   5.616
20899WAT     H162939   0.408   7.012   5.663
20899WAT     H262940   0.563   7.010   5.612
20900WAT      O62941   6.898   7.381   7.026
20900WAT     H162942   6.971   7.450   7.029
20900WAT     H262943   6.852   7.379   7.115
20901WAT      O62944   5.637   4.485   3.652
20901WAT     H162945   5.541   4.500   3.626
20901WAT     H262946   5.688   4.570   3.641
20902WAT      O62947   2.575   7.776   8.027
20902WAT     H162948   2.599   7.873   8.029
20902WAT     H262949   2.659   7.721   8.018
20903WAT      O62950   7.251   5.980   8.316
20903WAT     H162951   7.323   6.023   8.370
20903WAT     H262952   7.214   6.046   8.251
20904WAT      O62953   2.320   0.994   3.071
20904WAT     H162954   2.407   1.022   3.111
20904WAT     H262955   2.268   1.076   3.045
20905WAT      O62956   0.246   9.830   6.398
20905WAT     H162957   0.247   9.769   6.320
20905WAT     H262958   0.290   9.917   6.373
20906WAT      O62959   9.627   7.915   8.916
20906WAT     H162960   9.659   7.890   8.825
20906WAT     H262961   9.679   7.993   8.950
20907WAT      O62962   2.533   3.555   5.559
20907WAT     H162963   2.603   3.622   5.534
20907WAT     H262964   2.570   3.463   5.547
20908WAT      O62965   6.134   6.764   9.564
20908WAT     H162966   6.160   6.708   9.642
20908WAT     H262967   6.130   6.860   9.591
20909WAT      O62968   6.211   4.512   0.184
20909WAT     H162969   6.175   4.511   0.277
20909WAT     H262970   6.305   4.548   0.185
20910WAT      O62971   5.952   4.670   2.713
20910WAT     H162972   6.038   4.620   2.718
20910WAT     H262973   5.913   4.679   2.805
20911WAT      O62974   2.592   3.626   6.042
20911WAT     H162975   2.673   3.611   5.985
20911WAT     H262976   2.524   3.555   6.021
20912WAT      O62977   7.807   7.597   0.241
20912WAT     H162978   7.760   7.642   0.166
20912WAT     H262979   7.789   7.645   0.326
20913WAT      O62980   7.873   2.674   4.165
20913WAT     H162981   7.809   2.711   4.098
20913WAT     H262982   7.967   2.685   4.131
20914WAT      O62983   2.949   2.002   4.055
20914WAT     H162984   2.992   2.079   4.103
20914WAT     H262985   3.012   1.968   3.985
20915WAT      O62986   0.873   9.597   1.490
20915WAT     H162987   0.866   9.586   1.589
20915WAT     H262988   0.783   9.617   1.452
20916WAT      O62989   1.179   0.641   2.396
20916WAT     H162990   1.129   0.598   2.471
20916WAT     H262991   1.121   0.709   2.351
20917WAT      O62992   5.104   8.025   0.971
20917WAT     H162993   5.119   8.057   0.878
20917WAT     H262994   5.165   8.074   1.034
20918WAT      O62995   4.536   7.223   3.894
20918WAT     H162996   4.512   7.128   3.873
20918WAT     H262997   4.459   7.282   3.871
20919WAT      O62998   7.547   0.921   7.989
20919WAT     H162999   7.563   0.832   7.945
20919WAT     H263000   7.581   0.994   7.930
20920WAT      O63001   2.464   6.722   2.279
20920WAT     H163002   2.467   6.710   2.180
20920WAT     H263003   2.372   6.749   2.307
20921WAT      O63004   2.191   1.263   9.754
20921WAT     H163005   2.106   1.239   9.800
20921WAT     H263006   2.170   1.306   9.666
20922WAT      O63007   0.577   4.471   0.810
20922WAT     H163008   0.625   4.505   0.729
20922WAT     H263009   0.575   4.371   0.808
20923WAT      O63010   2.645   1.693   7.788
20923WAT     H163011   2.563   1.636   7.794
20923WAT     H263012   2.620   1.789   7.800
20924WAT      O63013   0.903   7.386   8.989
20924WAT     H163014   0.893   7.481   8.961
20924WAT     H263015   0.966   7.339   8.927
20925WAT      O63016   4.365   6.551   3.099
20925WAT     H163017   4.391   6.602   3.017
20925WAT     H263018   4.362   6.453   3.077
20926WAT      O63019   0.891   5.488   5.489
20926WAT     H163020   0.815   5.477   5.425
20926WAT     H263021   0.886   5.579   5.531
20927WAT      O63022   9.515   7.525   9.462
20927WAT     H163023   9.485   7.506   9.369
20927WAT     H263024   9.572   7.449   9.495
20928WAT      O63025   5.260   8.192   5.290
20928WAT     H163026   5.164   8.185   5.262
20928WAT     H263027   5.275   8.134   5.370
20929WAT      O63028   7.583   1.103   2.724
20929WAT     H163029   7.508   1.158   2.762
20929WAT     H263030   7.663   1.112   2.783
20930WAT      O63031   6.859   0.931   6.926
20930WAT     H163032   6.909   1.002   6.877
20930WAT     H263033   6.765   0.962   6.943
20931WAT      O63034   1.451   3.099   0.265
20931WAT     H163035   1.503   3.018   0.294
20931WAT     H263036   1.482   3.128   0.175
20932WAT      O63037   0.251   5.686   8.199
20932WAT     H163038   0.305   5.766   8.223
20932WAT     H263039   0.290   5.641   8.119
20933WAT      O63040   0.142   4.783   0.229
20933WAT     H163041   0.224   4.747   0.274
20933WAT     H263042   0.158   4.791   0.131
20934WAT      O63043   9.847   7.135   0.342
20934WAT     H163044   9.852   7.037   0.363
20934WAT     H263045   9.775   7.150   0.274
20935WAT      O63046   7.314   3.688   8.210
20935WAT     H163047   7.383   3.616   8.221
20935WAT     H263048   7.223   3.647   8.212
20936WAT      O63049   8.653   8.402   3.753
20936WAT     H163050   8.691   8.325   3.805
20936WAT     H263051   8.724   8.471   3.740
20937WAT      O63052   0.144   2.463   3.533
20937WAT     H163053   0.214   2.476   3.463
20937WAT     H263054   0.053   2.471   3.492
20938WAT      O63055   8.036   0.170   2.271
20938WAT     H163056   8.116   0.137   2.220
20938WAT     H263057   7.953   0.143   2.222
20939WAT      O63058   1.829   8.330   8.506
20939WAT     H163059   1.744   8.379   8.487
20939WAT     H263060   1.872   8.305   8.419
20940WAT      O63061   5.008   6.518   7.904
20940WAT     H163062   4.963   6.588   7.960
20940WAT     H263063   5.075   6.470   7.959
20941WAT      O63064   0.623   0.249   4.084
20941WAT     H163065   0.668   0.337   4.098
20941WAT     H263066   0.644   0.215   3.992
20942WAT      O63067   8.699   1.774   7.539
20942WAT     H163068   8.606   1.779   7.574
20942WAT     H263069   8.747   1.860   7.559
20943WAT      O63070   1.051   8.707   5.766
20943WAT     H163071   0.970   8.650   5.751
20943WAT     H263072   1.054   8.779   5.697
20944WAT      O63073   7.442   3.406   7.228
20944WAT     H163074   7.516   3.465   7.195
20944WAT     H263075   7.400   3.360   7.150
20945WAT      O63076   1.776   3.253   4.038
20945WAT     H163077   1.712   3.293   3.972
20945WAT     H263078   1.816   3.170   4.000
20946WAT      O63079   3.648   2.544   0.779
20946WAT     H163080   3.630   2.567   0.875
20946WAT     H263081   3.678   2.449   0.773
20947WAT      O63082   8.603   3.138   4.169
20947WAT     H163083   8.645   3.067   4.112
20947WAT     H263084   8.666   3.163   4.243
20948WAT      O63085   6.062   4.836   7.171
20948WAT     H163086   6.015   4.923   7.189
20948WAT     H263087   6.152   4.854   7.132
20949WAT      O63088   5.250   3.080   8.681
20949WAT     H163089   5.214   3.053   8.770
20949WAT     H263090   5.268   3.179   8.681
20950WAT      O63091   0.808   5.731   3.930
20950WAT     H163092   0.808   5.817   3.980
20950WAT     H263093   0.855   5.743   3.842
20951WAT      O63094   2.155   4.426   6.095
20951WAT     H163095   2.156   4.386   6.187
20951WAT     H263096   2.090   4.502   6.093
20952WAT      O63097   2.450   7.957   2.202
20952WAT     H163098   2.440   7.861   2.231
20952WAT     H263099   2.419   8.017   2.276
20953WAT      O63100   3.414   2.317   0.784
20953WAT     H163101   3.456   2.369   0.859
20953WAT     H263102   3.402   2.377   0.705
20954WAT      O63103   3.577   9.245   3.771
20954WAT     H163104   3.572   9.278   3.866
20954WAT     H263105   3.598   9.147   3.771
20955WAT      O63106   8.583   3.523   8.801
20955WAT     H163107   8.535   3.503   8.715
20955WAT     H263108   8.613   3.618   8.801
20956WAT      O63109   6.503   3.731   5.492
20956WAT     H163110   6.468   3.814   5.448
20956WAT     H263111   6.601   3.723   5.475
20957WAT      O63112   3.488   9.113   7.386
20957WAT     H163113   3.480   9.114   7.486
20957WAT     H263114   3.435   9.037   7.349
20958WAT      O63115   4.231   7.210   2.858
20958WAT     H163116   4.316   7.261   2.876
20958WAT     H263117   4.170   7.219   2.936
20959WAT      O63118   8.272   8.607   1.162
20959WAT     H163119   8.324   8.666   1.224
20959WAT     H263120   8.304   8.620   1.069
20960WAT      O63121   5.463   3.285   2.204
20960WAT     H163122   5.404   3.236   2.268
20960WAT     H263123   5.460   3.383   2.222
20961WAT      O63124   2.993   4.456   1.675
20961WAT     H163125   2.923   4.507   1.726
20961WAT     H263126   2.995   4.487   1.580
20962WAT      O63127   2.730   5.792   7.957
20962WAT     H163128   2.804   5.759   7.899
20962WAT     H263129   2.663   5.718   7.971
20963WAT      O63130   0.504   6.542   9.553
20963WAT     H163131   0.553   6.511   9.472
20963WAT     H263132   0.412   6.504   9.553
20964WAT      O63133   1.533   5.135   3.958
20964WAT     H163134   1.516   5.231   3.936
20964WAT     H263135   1.467   5.104   4.026
20965WAT      O63136   9.851   5.708   7.526
20965WAT     H163137   9.822   5.760   7.606
20965WAT     H263138   9.925   5.756   7.480
20966WAT      O63139   6.374   1.295   2.428
20966WAT     H163140   6.427   1.222   2.470
20966WAT     H263141   6.409   1.313   2.336
20967WAT      O63142   1.204   8.635   7.282
20967WAT     H163143   1.134   8.565   7.271
20967WAT     H263144   1.294   8.595   7.268
20968WAT      O63145   5.881   5.766   9.623
20968WAT     H163146   5.790   5.732   9.650
20968WAT     H263147   5.892   5.860   9.654
20969WAT      O63148   6.320   5.661   3.193
20969WAT     H163149   6.322   5.644   3.292
20969WAT     H263150   6.301   5.576   3.145
20970WAT      O63151   5.821   7.537   6.814
20970WAT     H163152   5.854   7.586   6.733
20970WAT     H263153   5.860   7.578   6.896
20971WAT      O63154   8.094   9.346   6.643
20971WAT     H163155   8.139   9.298   6.567
20971WAT     H263156   8.163   9.399   6.693
20972WAT      O63157   8.657   4.933   1.213
20972WAT     H163158   8.660   5.019   1.163
20972WAT     H263159   8.648   4.951   1.311
20973WAT      O63160   2.667   8.961   6.161
20973WAT     H163161   2.585   8.945   6.107
20973WAT     H263162   2.721   9.035   6.121
20974WAT      O63163   1.909   1.632   2.952
20974WAT     H163164   1.941   1.718   2.991
20974WAT     H263165   1.926   1.632   2.853
20975WAT      O63166   6.225   4.083   6.671
20975WAT     H163167   6.134   4.051   6.697
20975WAT     H263168   6.217   4.156   6.603
20976WAT      O63169   6.458   4.007   5.733
20976WAT     H163170   6.553   3.982   5.711
20976WAT     H263171   6.442   4.103   5.710
20977WAT      O63172   2.931   6.324   6.182
20977WAT     H163173   2.839   6.358   6.163
20977WAT     H263174   2.978   6.304   6.097
20978WAT      O63175   1.718   9.581   9.779
20978WAT     H163176   1.724   9.524   9.698
20978WAT     H263177   1.652   9.655   9.763
20979WAT      O63178   1.318   3.029   6.149
20979WAT     H163179   1.381   2.991   6.216
20979WAT     H263180   1.370   3.081   6.080
20980WAT      O63181   3.846   7.218   7.853
20980WAT     H163182   3.767   7.186   7.801
20980WAT     H263183   3.877   7.145   7.914
20981WAT      O63184   9.168   3.199   7.599
20981WAT     H163185   9.100   3.137   7.561
20981WAT     H263186   9.131   3.243   7.681
20982WAT      O63187   1.773   4.991   6.643
20982WAT     H163188   1.758   4.893   6.632
20982WAT     H263189   1.871   5.008   6.658
20983WAT      O63190   0.188   4.131   9.174
20983WAT     H163191   0.269   4.075   9.159
20983WAT     H263192   0.189   4.208   9.111
20984WAT      O63193   0.415   5.441   3.824
20984WAT     H163194   0.373   5.497   3.896
20984WAT     H263195   0.514   5.446   3.831
20985WAT      O63196   6.234   8.756   1.219
20985WAT     H163197   6.170   8.724   1.149
20985WAT     H263198   6.257   8.681   1.281
20986WAT      O63199   7.473   7.371   1.860
20986WAT     H163200   7.392   7.398   1.912
20986WAT     H263201   7.446   7.312   1.784
20987WAT      O63202   8.006   4.674   2.486
20987WAT     H163203   8.008   4.773   2.499
20987WAT     H263204   8.097   4.637   2.503
20988WAT      O63205   2.908   4.679   9.890
20988WAT     H163206   2.903   4.687   9.791
20988WAT     H263207   2.915   4.770   9.931
20989WAT      O63208   3.642   8.532   2.956
20989WAT     H163209   3.651   8.439   2.992
20989WAT     H263210   3.546   8.551   2.935
20990WAT      O63211   8.254   3.808   0.223
20990WAT     H163212   8.332   3.786   0.280
20990WAT     H263213   8.169   3.789   0.273
20991WAT      O63214   9.410   6.973   0.179
20991WAT     H163215   9.463   6.981   0.263
20991WAT     H263216   9.462   7.009   0.102
20992WAT      O63217   0.555   9.098   4.192
20992WAT     H163218   0.522   9.008   4.165
20992WAT     H263219   0.618   9.133   4.122
20993WAT      O63220   9.513   2.094   6.427
20993WAT     H163221   9.511   2.135   6.335
20993WAT     H263222   9.601   2.049   6.441
20994WAT      O63223   8.757   4.425   4.576
20994WAT     H163224   8.801   4.354   4.631
20994WAT     H263225   8.736   4.387   4.485
20995WAT      O63226   5.200   7.698   1.628
20995WAT     H163227   5.245   7.765   1.688
20995WAT     H263228   5.258   7.617   1.618
20996WAT      O63229   6.532   0.062   2.919
20996WAT     H163230   6.626   0.080   2.948
20996WAT     H263231   6.524  -0.033   2.889
20997WAT      O63232   3.852   2.131   9.332
20997WAT     H163233   3.771   2.078   9.307
20997WAT     H263234   3.876   2.112   9.427
20998WAT      O63235   5.441   6.245   6.111
20998WAT     H163236   5.413   6.302   6.187
20998WAT     H263237   5.500   6.298   6.050
20999WAT      O63238   9.320   8.496   5.996
20999WAT     H163239   9.235   8.519   5.950
20999WAT     H263240   9.332   8.396   5.996
21000WAT      O63241   0.484   0.156   2.113
21000WAT     H163242   0.571   0.151   2.065
21000WAT     H263243   0.465   0.250   2.139
21001WAT      O63244   7.102   1.230   2.944
21001WAT     H163245   7.180   1.264   2.892
21001WAT     H263246   7.040   1.306   2.965
21002WAT      O63247   9.872   2.648   8.939
21002WAT     H163248   9.947   2.673   8.877
21002WAT     H263249   9.891   2.559   8.979
21003WAT      O63250   6.871   1.944   6.538
21003WAT     H163251   6.801   2.013   6.517
21003WAT     H263252   6.962   1.985   6.529
21004WAT      O63253   0.851   0.656   5.672
21004WAT     H163254   0.850   0.648   5.772
21004WAT     H263255   0.882   0.748   5.647
21005WAT      O63256   9.004   3.592   1.474
21005WAT     H163257   8.953   3.566   1.392
21005WAT     H263258   8.945   3.647   1.534
21006WAT      O63259   9.363   4.233   9.217
21006WAT     H163260   9.294   4.304   9.229
21006WAT     H263261   9.348   4.159   9.283
21007WAT      O63262   7.308   4.045   9.808
21007WAT     H163263   7.280   4.127   9.757
21007WAT     H263264   7.319   3.969   9.744
21008WAT      O63265   8.280   3.409   3.561
21008WAT     H163266   8.292   3.444   3.468
21008WAT     H263267   8.308   3.479   3.626
21009WAT      O63268   5.403   5.429   2.788
21009WAT     H163269   5.421   5.467   2.879
21009WAT     H263270   5.399   5.330   2.794
21010WAT      O63271   8.031   7.207   3.405
21010WAT     H163272   8.103   7.161   3.352
21010WAT     H263273   7.987   7.277   3.349
21011WAT      O63274   5.950   5.336   0.532
21011WAT     H163275   5.854   5.308   0.525
21011WAT     H263276   6.004   5.284   0.466
21012WAT      O63277   8.466   3.543   1.485
21012WAT     H163278   8.415   3.522   1.569
21012WAT     H263279   8.511   3.460   1.453
21013WAT      O63280   0.543   7.980   7.001
21013WAT     H163281   0.497   8.067   7.019
21013WAT     H263282   0.557   7.970   6.902
21014WAT      O63283   8.272   5.816   8.407
21014WAT     H163284   8.228   5.829   8.495
21014WAT     H263285   8.308   5.904   8.374
21015WAT      O63286   1.847   5.587   0.706
21015WAT     H163287   1.838   5.659   0.774
21015WAT     H263288   1.763   5.579   0.653
21016WAT      O63289   0.548   9.838   3.297
21016WAT     H163290   0.639   9.864   3.262
21016WAT     H263291   0.481   9.848   3.224
21017WAT      O63292   7.537   8.833   5.903
21017WAT     H163293   7.483   8.906   5.943
21017WAT     H263294   7.480   8.777   5.843
21018WAT      O63295   7.344   1.194   5.988
21018WAT     H163296   7.355   1.242   6.075
21018WAT     H263297   7.287   1.113   6.001
21019WAT      O63298   1.688   1.497   3.015
21019WAT     H163299   1.602   1.538   2.983
21019WAT     H263300   1.763   1.563   3.001
21020WAT      O63301   6.041   6.166   7.034
21020WAT     H163302   6.052   6.152   7.133
21020WAT     H263303   5.979   6.242   7.018
21021WAT      O63304   7.818   4.643   8.145
21021WAT     H163305   7.795   4.688   8.231
21021WAT     H263306   7.913   4.665   8.121
21022WAT      O63307   8.443   4.610   8.538
21022WAT     H163308   8.344   4.611   8.553
21022WAT     H263309   8.488   4.660   8.611
21023WAT      O63310   3.593   2.255   9.589
21023WAT     H163311   3.645   2.171   9.574
21023WAT     H263312   3.598   2.279   9.686
21024WAT      O63313   1.913   7.089   1.678
21024WAT     H163314   1.991   7.083   1.615
21024WAT     H263315   1.914   7.179   1.723
21025WAT      O63316   3.347   6.069   6.736
21025WAT     H163317   3.405   6.055   6.816
21025WAT     H263318   3.307   5.982   6.707
21026WAT      O63319   0.973   8.184   0.988
21026WAT     H163320   1.017   8.140   0.910
21026WAT     H263321   0.879   8.151   0.995
21027WAT      O63322   3.831   8.604   5.754
21027WAT     H163323   3.891   8.580   5.829
21027WAT     H263324   3.816   8.523   5.696
21028WAT      O63325   1.350   5.900   1.424
21028WAT     H163326   1.306   5.820   1.381
21028WAT     H263327   1.288   5.938   1.493
21029WAT      O63328   3.593   8.908   7.807
21029WAT     H163329   3.535   8.840   7.852
21029WAT     H263330   3.647   8.956   7.876
21030WAT      O63331   5.062   3.527   7.807
21030WAT     H163332   5.049   3.553   7.711
21030WAT     H263333   4.973   3.511   7.849
21031WAT      O63334   7.503   6.203   9.067
21031WAT     H163335   7.560   6.199   9.149
21031WAT     H263336   7.557   6.239   8.990
21032WAT      O63337   8.038   2.599   5.991
21032WAT     H163338   8.007   2.670   6.055
21032WAT     H263339   7.997   2.616   5.901
21033WAT      O63340   2.975   1.592   8.757
21033WAT     H163341   2.955   1.503   8.798
21033WAT     H263342   3.012   1.654   8.826
21034WAT      O63343   7.091   3.638   0.609
21034WAT     H163344   7.172   3.646   0.550
21034WAT     H263345   7.057   3.729   0.632
21035WAT      O63346   0.490   3.464   1.523
21035WAT     H163347   0.391   3.458   1.534
21035WAT     H263348   0.524   3.547   1.569
21036WAT      O63349   7.185   8.618   1.317
21036WAT     H163350   7.203   8.710   1.283
21036WAT     H263351   7.087   8.607   1.334
21037WAT      O63352   4.782   5.451   3.163
21037WAT     H163353   4.706   5.490   3.112
21037WAT     H263354   4.814   5.367   3.118
21038WAT      O63355   6.137   3.295   4.659
21038WAT     H163356   6.219   3.331   4.703
21038WAT     H263357   6.062   3.361   4.669
21039WAT      O63358   8.376   2.322   0.471
21039WAT     H163359   8.337   2.400   0.423
21039WAT     H263360   8.303   2.261   0.502
21040WAT      O63361   0.450   0.485   2.978
21040WAT     H163362   0.393   0.448   3.051
21040WAT     H263363   0.442   0.585   2.977
21041WAT      O63364   9.853   6.480   9.419
21041WAT     H163365   9.780   6.527   9.469
21041WAT     H263366   9.859   6.385   9.452
21042WAT      O63367   1.733   5.703   6.193
21042WAT     H163368   1.800   5.767   6.230
21042WAT     H263369   1.729   5.621   6.251
21043WAT      O63370   4.566   7.589   7.363
21043WAT     H163371   4.579   7.687   7.377
21043WAT     H263372   4.487   7.573   7.304
21044WAT      O63373   7.192   8.419   7.438
21044WAT     H163374   7.271   8.470   7.404
21044WAT     H263375   7.131   8.481   7.487
21045WAT      O63376   0.422   8.238   8.878
21045WAT     H163377   0.488   8.258   8.950
21045WAT     H263378   0.343   8.298   8.886
21046WAT      O63379   3.632   0.993   1.921
21046WAT     H163380   3.596   0.960   2.008
21046WAT     H263381   3.726   1.025   1.934
21047WAT      O63382   6.587   2.566   8.818
21047WAT     H163383   6.545   2.478   8.798
21047WAT     H263384   6.619   2.608   8.734
21048WAT      O63385   6.171   0.615   9.562
21048WAT     H163386   6.151   0.663   9.647
21048WAT     H263387   6.103   0.639   9.493
21049WAT      O63388   2.701   2.489   3.789
21049WAT     H163389   2.669   2.395   3.797
21049WAT     H263390   2.702   2.532   3.879
21050WAT      O63391   0.443   8.537   8.786
21050WAT     H163392   0.493   8.469   8.839
21050WAT     H263393   0.498   8.620   8.778
21051WAT      O63394   8.732   3.548   4.978
21051WAT     H163395   8.802   3.566   4.908
21051WAT     H263396   8.672   3.628   4.986
21052WAT      O63397   9.848   6.064   2.759
21052WAT     H163398   9.939   6.093   2.788
21052WAT     H263399   9.836   5.967   2.779
21053WAT      O63400   9.197   6.751   2.636
21053WAT     H163401   9.132   6.817   2.671
21053WAT     H263402   9.149   6.667   2.610
21054WAT      O63403   6.802   0.995   0.880
21054WAT     H163404   6.754   1.009   0.967
21054WAT     H263405   6.877   0.930   0.893
21055WAT      O63406   6.147   5.054   0.807
21055WAT     H163407   6.164   5.072   0.711
21055WAT     H263408   6.230   5.018   0.850
21056WAT      O63409   1.153   1.507   3.132
21056WAT     H163410   1.231   1.570   3.136
21056WAT     H263411   1.157   1.444   3.209
21057WAT      O63412   6.993   8.974   1.054
21057WAT     H163413   6.936   9.026   1.118
21057WAT     H263414   7.034   9.037   0.987
21058WAT      O63415   4.262   7.798   1.274
21058WAT     H163416   4.325   7.754   1.211
21058WAT     H263417   4.279   7.897   1.274
21059WAT      O63418   6.720   5.551   3.254
21059WAT     H163419   6.669   5.549   3.167
21059WAT     H263420   6.666   5.507   3.325
21060WAT      O63421   3.724   7.794   2.203
21060WAT     H163422   3.672   7.877   2.184
21060WAT     H263423   3.707   7.726   2.130
21061WAT      O63424   6.629   7.302   3.604
21061WAT     H163425   6.531   7.305   3.588
21061WAT     H263426   6.661   7.394   3.628
21062WAT      O63427   0.652   3.387   9.402
21062WAT     H163428   0.616   3.430   9.485
21062WAT     H263429   0.656   3.455   9.329
21063WAT      O63430   5.207   2.793   1.218
21063WAT     H163431   5.232   2.885   1.187
21063WAT     H263432   5.253   2.774   1.305
21064WAT      O63433   0.948   8.416   2.749
21064WAT     H163434   0.985   8.333   2.708
21064WAT     H263435   0.956   8.410   2.849
21065WAT      O63436   5.775   4.945   7.885
21065WAT     H163437   5.782   5.025   7.945
21065WAT     H263438   5.724   4.873   7.932
21066WAT      O63439   6.581   7.260   0.314
21066WAT     H163440   6.619   7.352   0.302
21066WAT     H263441   6.564   7.219   0.225
21067WAT      O63442   4.719   4.651   4.880
21067WAT     H163443   4.809   4.687   4.853
21067WAT     H263444   4.679   4.712   4.949
21068WAT      O63445   9.781   0.081   6.980
21068WAT     H163446   9.754   0.036   7.065
21068WAT     H263447   9.737   0.037   6.902
21069WAT      O63448   9.851   9.324   4.898
21069WAT     H163449   9.786   9.354   4.968
21069WAT     H263450   9.803   9.270   4.829
21070WAT      O63451   2.419   0.797   5.037
21070WAT     H163452   2.469   0.717   5.070
21070WAT     H263453   2.430   0.872   5.102
21071WAT      O63454   0.696   0.965   2.610
21071WAT     H163455   0.633   1.014   2.549
21071WAT     H263456   0.703   1.013   2.697
21072WAT      O63457   3.065   0.123   6.754
21072WAT     H163458   3.114   0.160   6.675
21072WAT     H263459   3.118   0.048   6.794
21073WAT      O63460   8.471   6.332   6.873
21073WAT     H163461   8.404   6.260   6.857
21073WAT     H263462   8.544   6.296   6.932
21074WAT      O63463   7.048   8.861   2.372
21074WAT     H163464   6.976   8.812   2.420
21074WAT     H263465   7.064   8.818   2.283
21075WAT      O63466   0.631   8.631   2.341
21075WAT     H163467   0.556   8.616   2.407
21075WAT     H263468   0.616   8.718   2.294
21076WAT      O63469   0.431   3.157   8.416
21076WAT     H163470   0.372   3.080   8.441
21076WAT     H263471   0.462   3.203   8.500
21077WAT      O63472   4.306   1.732   0.393
21077WAT     H163473   4.293   1.696   0.485
21077WAT     H263474   4.223   1.716   0.339
21078WAT      O63475   6.801   0.146   0.829
21078WAT     H163476   6.736   0.089   0.779
21078WAT     H263477   6.879   0.168   0.770
21079WAT      O63478   5.858   9.680   4.627
21079WAT     H163479   5.830   9.586   4.647
21079WAT     H263480   5.802   9.743   4.681
21080WAT      O63481   3.083   2.426   6.807
21080WAT     H163482   3.029   2.386   6.733
21080WAT     H263483   3.137   2.502   6.772
21081WAT      O63484   8.066   3.777   9.512
21081WAT     H163485   8.124   3.696   9.517
21081WAT     H263486   8.047   3.799   9.416
21082WAT      O63487   6.291   4.927   3.011
21082WAT     H163488   6.323   4.973   2.929
21082WAT     H263489   6.216   4.865   2.988
21083WAT      O63490   7.603   0.039   0.476
21083WAT     H163491   7.634  -0.054   0.495
21083WAT     H263492   7.631   0.066   0.383
21084WAT      O63493   7.301   6.298   5.418
21084WAT     H163494   7.302   6.338   5.509
21084WAT     H263495   7.207   6.273   5.393
21085WAT      O63496   9.182   4.200   2.247
21085WAT     H163497   9.218   4.135   2.180
21085WAT     H263498   9.213   4.173   2.339
21086WAT      O63499   6.466   4.509   3.511
21086WAT     H163500   6.460   4.588   3.572
21086WAT     H263501   6.493   4.538   3.420
21087WAT      O63502   1.007   2.117   0.424
21087WAT     H163503   0.968   2.141   0.513
21087WAT     H263504   1.035   2.201   0.376
21088WAT      O63505   7.849   8.796   9.787
21088WAT     H163506   7.859   8.697   9.780
21088WAT     H263507   7.865   8.824   9.882
21089WAT      O63508   8.810   1.394   8.242
21089WAT     H163509   8.736   1.404   8.176
21089WAT     H263510   8.816   1.476   8.299
21090WAT      O63511   6.159   3.765   6.875
21090WAT     H163512   6.232   3.808   6.929
21090WAT     H263513   6.108   3.836   6.826
21091WAT      O63514   4.725   3.414   3.964
21091WAT     H163515   4.639   3.372   3.938
21091WAT     H263516   4.766   3.364   4.040
21092WAT      O63517   1.836   5.487   1.433
21092WAT     H163518   1.824   5.492   1.532
21092WAT     H263519   1.932   5.464   1.413
21093WAT      O63520   4.702   6.483   1.071
21093WAT     H163521   4.756   6.507   1.152
21093WAT     H263522   4.763   6.454   0.997
21094WAT      O63523   1.694   3.405   5.311
21094WAT     H163524   1.648   3.321   5.283
21094WAT     H263525   1.634   3.456   5.373
21095WAT      O63526   7.547   6.642   2.027
21095WAT     H163527   7.585   6.733   2.044
21095WAT     H263528   7.484   6.618   2.101
21096WAT      O63529   6.727   9.160   5.245
21096WAT     H163530   6.720   9.133   5.149
21096WAT     H263531   6.803   9.224   5.257
21097WAT      O63532   2.134   9.467   2.889
21097WAT     H163533   2.146   9.564   2.869
21097WAT     H263534   2.091   9.456   2.979
21098WAT      O63535   9.277   7.105   2.848
21098WAT     H163536   9.327   7.081   2.932
21098WAT     H263537   9.209   7.035   2.829
21099WAT      O63538   9.262   9.218   9.793
21099WAT     H163539   9.351   9.264   9.787
21099WAT     H263540   9.195   9.282   9.830
21100WAT      O63541   1.585   5.258   4.558
21100WAT     H163542   1.526   5.325   4.513
21100WAT     H263543   1.678   5.295   4.567
21101WAT      O63544   6.541   1.172   1.352
21101WAT     H163545   6.446   1.146   1.339
21101WAT     H263546   6.558   1.262   1.311
21102WAT      O63547   2.170   5.566   8.971
21102WAT     H163548   2.252   5.623   8.973
21102WAT     H263549   2.187   5.484   8.916
21103WAT      O63550   6.388   1.338   7.992
21103WAT     H163551   6.448   1.406   8.034
21103WAT     H263552   6.399   1.250   8.039
21104WAT      O63553   8.462   1.936   1.494
21104WAT     H163554   8.380   1.881   1.506
21104WAT     H263555   8.438   2.022   1.449
21105WAT      O63556   0.086   4.475   6.708
21105WAT     H163557   0.075   4.462   6.807
21105WAT     H263558   0.039   4.402   6.659
21106WAT      O63559   4.979   5.574   1.550
21106WAT     H163560   4.908   5.576   1.620
21106WAT     H263561   5.019   5.482   1.546
21107WAT      O63562   4.308   7.166   9.057
21107WAT     H163563   4.360   7.094   9.011
21107WAT     H263564   4.229   7.191   9.001
21108WAT      O63565   0.054   1.031   0.243
21108WAT     H163566   0.135   0.979   0.218
21108WAT     H263567   0.050   1.042   0.342
21109WAT      O63568   9.128   0.618   6.722
21109WAT     H163569   9.035   0.657   6.720
21109WAT     H263570   9.123   0.521   6.700
21110WAT      O63571   2.510   7.386   5.572
21110WAT     H163572   2.556   7.301   5.600
21110WAT     H263573   2.504   7.448   5.650
21111WAT      O63574   1.488   8.585   9.701
21111WAT     H163575   1.481   8.485   9.704
21111WAT     H263576   1.424   8.620   9.632
21112WAT      O63577   5.253   5.891   3.514
21112WAT     H163578   5.335   5.907   3.569
21112WAT     H263579   5.219   5.799   3.532
21113WAT      O63580   1.950   9.659   0.392
21113WAT     H163581   2.044   9.630   0.410
21113WAT     H263582   1.940   9.756   0.414
21114WAT      O63583   0.883   7.106   5.216
21114WAT     H163584   0.904   7.046   5.139
21114WAT     H263585   0.949   7.181   5.218
21115WAT      O63586   5.630   2.939   3.748
21115WAT     H163587   5.704   2.977   3.802
21115WAT     H263588   5.667   2.899   3.664
21116WAT      O63589   1.636   0.487   7.845
21116WAT     H163590   1.585   0.512   7.763
21116WAT     H263591   1.729   0.460   7.819
21117WAT      O63592   1.962   4.215   6.297
21117WAT     H163593   1.986   4.255   6.385
21117WAT     H263594   1.863   4.201   6.292
21118WAT      O63595   8.801   6.608   4.672
21118WAT     H163596   8.832   6.517   4.644
21118WAT     H263597   8.702   6.615   4.660
21119WAT      O63598   1.367   7.128   6.505
21119WAT     H163599   1.298   7.172   6.562
21119WAT     H263600   1.420   7.198   6.457
21120WAT      O63601   5.374   0.014   2.252
21120WAT     H163602   5.442   0.049   2.317
21120WAT     H263603   5.352   0.085   2.185
21121WAT      O63604   6.351   8.279   1.741
21121WAT     H163605   6.422   8.234   1.795
21121WAT     H263606   6.378   8.374   1.723
21122WAT      O63607   2.670   6.578   6.631
21122WAT     H163608   2.680   6.510   6.558
21122WAT     H263609   2.590   6.557   6.686
21123WAT      O63610   3.330   9.340   6.984
21123WAT     H163611   3.246   9.354   7.037
21123WAT     H263612   3.314   9.367   6.889
21124WAT      O63613   7.546   1.627   7.528
21124WAT     H163614   7.602   1.551   7.495
21124WAT     H263615   7.504   1.674   7.451
21125WAT      O63616   5.204   6.015   7.928
21125WAT     H163617   5.233   6.093   7.873
21125WAT     H263618   5.284   5.972   7.969
21126WAT      O63619   2.857   3.842   6.287
21126WAT     H163620   2.938   3.838   6.229
21126WAT     H263621   2.849   3.934   6.326
21127WAT      O63622   8.934   1.828   1.612
21127WAT     H163623   8.903   1.735   1.589
21127WAT     H263624   8.856   1.891   1.606
21128WAT      O63625   7.885   3.181   4.213
21128WAT     H163626   7.821   3.176   4.136
21128WAT     H263627   7.935   3.267   4.209
21129WAT      O63628   6.656   3.032   4.094
21129WAT     H163629   6.750   3.001   4.076
21129WAT     H263630   6.592   2.958   4.072
21130WAT      O63631   0.550   5.389   2.196
21130WAT     H163632   0.452   5.405   2.188
21130WAT     H263633   0.568   5.291   2.188
21131WAT      O63634   1.233   8.119   1.096
21131WAT     H163635   1.160   8.140   1.032
21131WAT     H263636   1.235   8.188   1.168
21132WAT      O63637   8.201   5.922   0.305
21132WAT     H163638   8.175   5.935   0.209
21132WAT     H263639   8.277   5.858   0.311
21133WAT      O63640   0.980   0.516   4.586
21133WAT     H163641   0.923   0.557   4.657
21133WAT     H263642   0.956   0.555   4.497
21134WAT      O63643   8.106   3.888   0.794
21134WAT     H163644   8.042   3.960   0.769
21134WAT     H263645   8.161   3.863   0.714
21135WAT      O63646   3.452   9.299   3.534
21135WAT     H163647   3.497   9.271   3.618
21135WAT     H263648   3.518   9.346   3.475
21136WAT      O63649   3.256   4.110   9.021
21136WAT     H163650   3.302   4.148   9.101
21136WAT     H263651   3.304   4.140   8.938
21137WAT      O63652   5.627   1.244   3.565
21137WAT     H163653   5.600   1.149   3.580
21137WAT     H263654   5.546   1.301   3.554
21138WAT      O63655   9.000   4.861   7.418
21138WAT     H163656   8.940   4.925   7.465
21138WAT     H263657   8.998   4.773   7.465
21139WAT      O63658   2.771   8.207   5.951
21139WAT     H163659   2.747   8.130   5.892
21139WAT     H263660   2.780   8.176   6.045
21140WAT      O63661   9.360   3.189   8.390
21140WAT     H163662   9.375   3.137   8.306
21140WAT     H263663   9.326   3.128   8.461
21141WAT      O63664   4.390   8.457   9.539
21141WAT     H163665   4.312   8.486   9.483
21141WAT     H263666   4.357   8.402   9.616
21142WAT      O63667   1.945   1.427   1.393
21142WAT     H163668   2.027   1.394   1.346
21142WAT     H263669   1.864   1.389   1.349
21143WAT      O63670   4.931   0.476   1.780
21143WAT     H163671   4.864   0.423   1.832
21143WAT     H263672   4.920   0.457   1.683
21144WAT      O63673   1.129   8.470   1.429
21144WAT     H163674   1.032   8.483   1.410
21144WAT     H263675   1.143   8.382   1.474
21145WAT      O63676   3.384   6.383   0.265
21145WAT     H163677   3.317   6.341   0.325
21145WAT     H263678   3.339   6.421   0.184
21146WAT      O63679   5.979   1.467   9.666
21146WAT     H163680   6.060   1.497   9.615
21146WAT     H263681   6.006   1.442   9.759
21147WAT      O63682   5.112   8.608   9.316
21147WAT     H163683   5.038   8.552   9.355
21147WAT     H263684   5.172   8.549   9.262
21148WAT      O63685   2.429   2.880   4.797
21148WAT     H163686   2.512   2.900   4.745
21148WAT     H263687   2.361   2.838   4.737
21149WAT      O63688   3.441   3.870   4.359
21149WAT     H163689   3.472   3.834   4.271
21149WAT     H263690   3.491   3.824   4.432
21150WAT      O63691   8.370   5.970   4.268
21150WAT     H163692   8.319   5.941   4.186
21150WAT     H263693   8.352   5.906   4.342
21151WAT      O63694   6.956   4.787   8.153
21151WAT     H163695   6.943   4.808   8.250
21151WAT     H263696   6.889   4.839   8.099
21152WAT      O63697   9.707   2.826   3.786
21152WAT     H163698   9.662   2.737   3.776
21152WAT     H263699   9.639   2.899   3.771
21153WAT      O63700   4.999   4.351   8.978
21153WAT     H163701   4.972   4.257   8.954
21153WAT     H263702   4.976   4.412   8.903
21154WAT      O63703   7.446   5.347   2.483
21154WAT     H163704   7.492   5.436   2.475
21154WAT     H263705   7.358   5.359   2.530
21155WAT      O63706   7.147   1.441   1.597
21155WAT     H163707   7.173   1.537   1.597
21155WAT     H263708   7.120   1.413   1.689
21156WAT      O63709   2.143   2.534   5.273
21156WAT     H163710   2.060   2.482   5.290
21156WAT     H263711   2.206   2.524   5.351
21157WAT      O63712   8.701   0.272   9.643
21157WAT     H163713   8.774   0.339   9.660
21157WAT     H263714   8.736   0.180   9.661
21158WAT      O63715   4.316   2.776   8.001
21158WAT     H163716   4.279   2.693   7.960
21158WAT     H263717   4.352   2.836   7.929
21159WAT      O63718   2.746   3.106   6.745
21159WAT     H163719   2.719   3.148   6.659
21159WAT     H263720   2.693   3.022   6.759
21160WAT      O63721   8.786   0.828   0.225
21160WAT     H163722   8.698   0.810   0.269
21160WAT     H263723   8.847   0.751   0.240
21161WAT      O63724   3.298   0.232   9.798
21161WAT     H163725   3.292   0.260   9.894
21161WAT     H263726   3.207   0.211   9.763
21162WAT      O63727   7.172   4.217   8.059
21162WAT     H163728   7.266   4.222   8.028
21162WAT     H263729   7.119   4.159   7.997
21163WAT      O63730   5.336   3.467   1.873
21163WAT     H163731   5.366   3.372   1.878
21163WAT     H263732   5.280   3.488   1.954
21164WAT      O63733   3.248   1.530   5.432
21164WAT     H163734   3.175   1.585   5.391
21164WAT     H263735   3.245   1.437   5.396
21165WAT      O63736   3.169   3.388   0.856
21165WAT     H163737   3.153   3.487   0.853
21165WAT     H263738   3.199   3.362   0.947
21166WAT      O63739   6.141   0.917   0.005
21166WAT     H163740   6.098   0.973   0.076
21166WAT     H263741   6.124   0.820   0.023
21167WAT      O63742   0.081   1.971   1.698
21167WAT     H163743   0.101   1.873   1.708
21167WAT     H263744   0.077   2.014   1.788
21168WAT      O63745   1.307   2.222   1.143
21168WAT     H163746   1.367   2.141   1.144
21168WAT     H263747   1.268   2.233   1.051
21169WAT      O63748   9.601   2.931   5.673
21169WAT     H163749   9.622   2.834   5.687
21169WAT     H263750   9.512   2.951   5.715
21170WAT      O63751   5.391   5.880   8.088
21170WAT     H163752   5.309   5.825   8.103
21170WAT     H263753   5.413   5.932   8.171
21171WAT      O63754   6.745   5.035   4.096
21171WAT     H163755   6.818   5.094   4.127
21171WAT     H263756   6.691   5.083   4.026
21172WAT      O63757   2.439   6.217   9.039
21172WAT     H163758   2.453   6.135   8.983
21172WAT     H263759   2.521   6.275   9.033
21173WAT      O63760   4.396   6.042   2.471
21173WAT     H163761   4.456   5.962   2.471
21173WAT     H263762   4.452   6.125   2.472
21174WAT      O63763   1.920   9.796   0.816
21174WAT     H163764   1.857   9.718   0.805
21174WAT     H263765   1.932   9.814   0.914
21175WAT      O63766   6.518   5.569   1.930
21175WAT     H163767   6.522   5.642   1.862
21175WAT     H263768   6.481   5.486   1.888
21176WAT      O63769   2.372   1.584   7.887
21176WAT     H163770   2.427   1.626   7.959
21176WAT     H263771   2.307   1.521   7.928
21177WAT      O63772   9.739   8.266   2.205
21177WAT     H163773   9.794   8.348   2.187
21177WAT     H263774   9.795   8.200   2.255
21178WAT      O63775   5.589   5.746   5.763
21178WAT     H163776   5.590   5.685   5.684
21178WAT     H263777   5.503   5.734   5.813
21179WAT      O63778   0.426   5.458   4.851
21179WAT     H163779   0.438   5.470   4.950
21179WAT     H263780   0.512   5.477   4.804
21180WAT      O63781   5.705   1.348   3.292
21180WAT     H163782   5.672   1.301   3.373
21180WAT     H263783   5.669   1.441   3.289
21181WAT      O63784   8.075   5.893   0.843
21181WAT     H163785   8.155   5.953   0.843
21181WAT     H263786   8.057   5.862   0.749
21182WAT      O63787   1.437   8.279   7.424
21182WAT     H163788   1.394   8.342   7.489
21182WAT     H263789   1.418   8.185   7.451
21183WAT      O63790   7.052   2.208   7.976
21183WAT     H163791   7.124   2.139   7.984
21183WAT     H263792   6.976   2.172   7.921
21184WAT      O63793   0.350   5.066   3.676
21184WAT     H163794   0.423   5.078   3.743
21184WAT     H263795   0.315   5.155   3.648
21185WAT      O63796   6.451   1.416   2.176
21185WAT     H163797   6.378   1.469   2.135
21185WAT     H263798   6.493   1.469   2.250
21186WAT      O63799   7.873   7.662   7.634
21186WAT     H163800   7.927   7.745   7.649
21186WAT     H263801   7.933   7.588   7.603
21187WAT      O63802   7.371   9.750   7.282
21187WAT     H163803   7.334   9.811   7.212
21187WAT     H263804   7.466   9.775   7.301
21188WAT      O63805   5.496   4.809   9.246
21188WAT     H163806   5.461   4.760   9.326
21188WAT     H263807   5.432   4.799   9.170
21189WAT      O63808   2.719   1.545   6.187
21189WAT     H163809   2.746   1.451   6.207
21189WAT     H263810   2.781   1.582   6.117
21190WAT      O63811   0.577   4.099   8.471
21190WAT     H163812   0.562   4.088   8.372
21190WAT     H263813   0.662   4.149   8.486
21191WAT      O63814   7.981   0.182   8.294
21191WAT     H163815   7.931   0.181   8.208
21191WAT     H263816   8.015   0.090   8.314
21192WAT      O63817   0.645   2.690   9.804
21192WAT     H163818   0.664   2.765   9.868
21192WAT     H263819   0.693   2.707   9.718
21193WAT      O63820   4.730   3.064   9.738
21193WAT     H163821   4.786   3.088   9.817
21193WAT     H263822   4.702   3.148   9.691
21194WAT      O63823   7.195   3.602   0.867
21194WAT     H163824   7.256   3.523   0.878
21194WAT     H263825   7.156   3.601   0.775
21195WAT      O63826   7.097   0.203   5.019
21195WAT     H163827   7.163   0.261   5.066
21195WAT     H263828   7.006   0.217   5.058
21196WAT      O63829   8.373   5.014   4.638
21196WAT     H163830   8.387   5.110   4.613
21196WAT     H263831   8.276   4.997   4.651
21197WAT      O63832   3.448   7.717   1.188
21197WAT     H163833   3.508   7.675   1.257
21197WAT     H263834   3.389   7.647   1.149
21198WAT      O63835   5.016   8.570   0.422
21198WAT     H163836   4.958   8.580   0.503
21198WAT     H263837   5.060   8.480   0.424
21199WAT      O63838   8.565   7.798   0.322
21199WAT     H163839   8.488   7.838   0.371
21199WAT     H263840   8.572   7.701   0.345
21200WAT      O63841   5.939   1.307   8.036
21200WAT     H163842   6.004   1.302   7.961
21200WAT     H263843   5.959   1.387   8.093
21201WAT      O63844   1.992   5.513   6.079
21201WAT     H163845   2.026   5.574   6.151
21201WAT     H263846   2.069   5.474   6.030
21202WAT      O63847   5.803   5.535   7.010
21202WAT     H163848   5.720   5.582   7.039
21202WAT     H263849   5.783   5.438   6.995
21203WAT      O63850   0.536   5.027   7.898
21203WAT     H163851   0.595   5.108   7.893
21203WAT     H263852   0.584   4.954   7.945
21204WAT      O63853   9.801   6.237   6.213
21204WAT     H163854   9.705   6.225   6.237
21204WAT     H263855   9.846   6.147   6.212
21205WAT      O63856   8.995   9.479   6.892
21205WAT     H163857   8.943   9.455   6.974
21205WAT     H263858   9.055   9.402   6.867
21206WAT      O63859   6.470   5.624   9.464
21206WAT     H163860   6.371   5.621   9.478
21206WAT     H263861   6.490   5.661   9.374
21207WAT      O63862   9.327   1.088   3.877
21207WAT     H163863   9.406   1.117   3.822
21207WAT     H263864   9.282   1.169   3.915
21208WAT      O63865   9.524   8.219   2.386
21208WAT     H163866   9.596   8.219   2.316
21208WAT     H263867   9.441   8.178   2.348
21209WAT      O63868   0.067   2.654   8.110
21209WAT     H163869   0.033   2.561   8.117
21209WAT     H263870   0.055   2.688   8.017
21210WAT      O63871   8.019   9.621   4.911
21210WAT     H163872   7.926   9.583   4.908
21210WAT     H263873   8.040   9.665   4.823
21211WAT      O63874   5.694   9.796   0.469
21211WAT     H163875   5.714   9.750   0.556
21211WAT     H263876   5.763   9.867   0.453
21212WAT      O63877   4.162   2.312   6.293
21212WAT     H163878   4.175   2.410   6.308
21212WAT     H263879   4.174   2.263   6.379
21213WAT      O63880   4.168   4.640   7.333
21213WAT     H163881   4.256   4.617   7.374
21213WAT     H263882   4.161   4.598   7.242
21214WAT      O63883   8.615   4.436   8.389
21214WAT     H163884   8.540   4.487   8.430
21214WAT     H263885   8.700   4.488   8.399
21215WAT      O63886   8.586   8.174   3.319
21215WAT     H163887   8.595   8.126   3.232
21215WAT     H263888   8.647   8.253   3.319
21216WAT      O63889   4.548   7.903   5.937
21216WAT     H163890   4.451   7.881   5.950
21216WAT     H263891   4.557   7.974   5.867
21217WAT      O63892   2.140   1.165   6.949
21217WAT     H163893   2.064   1.154   6.884
21217WAT     H263894   2.172   1.259   6.947
21218WAT      O63895   9.077   1.038   9.517
21218WAT     H163896   8.984   1.067   9.538
21218WAT     H263897   9.116   1.098   9.448
21219WAT      O63898   3.817   7.037   5.040
21219WAT     H163899   3.877   7.037   4.960
21219WAT     H263900   3.764   7.122   5.041
21220WAT      O63901   7.788   1.420   8.127
21220WAT     H163902   7.776   1.349   8.197
21220WAT     H263903   7.754   1.507   8.161
21221WAT      O63904   5.700   1.687   5.739
21221WAT     H163905   5.666   1.604   5.695
21221WAT     H263906   5.623   1.741   5.774
21222WAT      O63907   1.212   2.976   3.378
21222WAT     H163908   1.279   3.050   3.380
21222WAT     H263909   1.229   2.913   3.453
21223WAT      O63910   6.947   3.760   4.135
21223WAT     H163911   6.881   3.700   4.181
21223WAT     H263912   6.966   3.724   4.043
21224WAT      O63913   2.602   9.765   3.915
21224WAT     H163914   2.702   9.774   3.920
21224WAT     H263915   2.576   9.731   3.825
21225WAT      O63916   0.589   0.473   6.713
21225WAT     H163917   0.560   0.533   6.639
21225WAT     H263918   0.599   0.380   6.678
21226WAT      O63919   7.685   6.931   2.377
21226WAT     H163920   7.726   7.013   2.416
21226WAT     H263921   7.586   6.936   2.386
21227WAT      O63922   7.274   3.766   2.295
21227WAT     H163923   7.265   3.782   2.197
21227WAT     H263924   7.302   3.850   2.341
21228WAT      O63925   6.056   0.630   8.317
21228WAT     H163926   6.068   0.646   8.415
21228WAT     H263927   5.998   0.701   8.278
21229WAT      O63928   3.678   1.277   6.385
21229WAT     H163929   3.603   1.304   6.444
21229WAT     H263930   3.717   1.357   6.341
21230WAT      O63931   3.440   2.449   7.480
21230WAT     H163932   3.400   2.361   7.504
21230WAT     H263933   3.385   2.493   7.409
21231WAT      O63934   2.021   5.208   6.402
21231WAT     H163935   1.958   5.231   6.327
21231WAT     H263936   2.104   5.264   6.394
21232WAT      O63937   2.157   3.130   0.602
21232WAT     H163938   2.130   3.055   0.662
21232WAT     H263939   2.118   3.116   0.511
21233WAT      O63940   0.703   1.252   6.532
21233WAT     H163941   0.788   1.201   6.521
21233WAT     H263942   0.700   1.292   6.624
21234WAT      O63943   5.117   8.846   0.166
21234WAT     H163944   5.183   8.915   0.137
21234WAT     H263945   5.146   8.756   0.134
21235WAT      O63946   2.618   0.542   8.006
21235WAT     H163947   2.602   0.485   7.925
21235WAT     H263948   2.538   0.538   8.066
21236WAT      O63949   5.690   2.185   9.216
21236WAT     H163950   5.772   2.230   9.181
21236WAT     H263951   5.665   2.109   9.156
21237WAT      O63952   9.187   2.618   0.853
21237WAT     H163953   9.278   2.659   0.859
21237WAT     H263954   9.133   2.667   0.784
21238WAT      O63955   5.533   9.149   0.307
21238WAT     H163956   5.455   9.191   0.261
21238WAT     H263957   5.507   9.125   0.401
21239WAT      O63958   3.675   2.431   9.048
21239WAT     H163959   3.749   2.426   9.115
21239WAT     H263960   3.638   2.340   9.032
21240WAT      O63961   8.584   5.294   7.235
21240WAT     H163962   8.675   5.279   7.274
21240WAT     H263963   8.514   5.259   7.297
21241WAT      O63964   3.808   7.339   5.862
21241WAT     H163965   3.831   7.358   5.958
21241WAT     H263966   3.838   7.417   5.806
21242WAT      O63967   1.069   0.942   1.361
21242WAT     H163968   1.093   0.849   1.335
21242WAT     H263969   1.141   1.005   1.332
21243WAT      O63970   5.742   1.362   0.302
21243WAT     H163971   5.661   1.408   0.265
21243WAT     H263972   5.723   1.333   0.395
21244WAT      O63973   3.753   3.358   0.876
21244WAT     H163974   3.686   3.431   0.860
21244WAT     H263975   3.827   3.366   0.809
21245WAT      O63976   1.241   4.493   0.436
21245WAT     H163977   1.223   4.481   0.534
21245WAT     H263978   1.265   4.404   0.395
21246WAT      O63979   4.042   4.434   8.347
21246WAT     H163980   4.076   4.421   8.254
21246WAT     H263981   4.004   4.527   8.355
21247WAT      O63982   3.094   4.391   7.204
21247WAT     H163983   3.168   4.397   7.138
21247WAT     H263984   3.006   4.395   7.156
21248WAT      O63985   0.064   5.318   3.068
21248WAT     H163986   0.075   5.368   3.154
21248WAT     H263987   0.126   5.240   3.066
21249WAT      O63988   9.501   9.393   2.332
21249WAT     H163989   9.579   9.416   2.275
21249WAT     H263990   9.509   9.440   2.420
21250WAT      O63991   6.196   4.577   2.766
21250WAT     H163992   6.172   4.616   2.855
21250WAT     H263993   6.260   4.501   2.779
21251WAT      O63994   1.781   9.564   5.021
21251WAT     H163995   1.683   9.544   5.014
21251WAT     H263996   1.800   9.602   5.112
21252WAT      O63997   5.216   6.811   7.385
21252WAT     H163998   5.137   6.819   7.445
21252WAT     H263999   5.189   6.766   7.299
21253WAT      O64000   7.933   6.123   1.197
21253WAT     H164001   7.983   6.040   1.221
21253WAT     H264002   7.951   6.194   1.265
21254WAT      O64003   6.175   3.763   7.210
21254WAT     H164004   6.101   3.741   7.146
21254WAT     H264005   6.223   3.679   7.235
21255WAT      O64006   3.114   9.785   7.271
21255WAT     H164007   3.136   9.875   7.233
21255WAT     H264008   3.084   9.795   7.366
21256WAT      O64009   5.646   7.959   3.795
21256WAT     H164010   5.578   7.989   3.728
21256WAT     H264011   5.652   8.027   3.869
21257WAT      O64012   8.774   6.796   7.802
21257WAT     H164013   8.855   6.854   7.791
21257WAT     H264014   8.772   6.728   7.728
21258WAT      O64015   9.011   0.843   3.243
21258WAT     H164016   9.030   0.879   3.152
21258WAT     H264017   8.942   0.900   3.288
21259WAT      O64018   6.652   6.837   7.914
21259WAT     H164019   6.567   6.885   7.890
21259WAT     H264020   6.730   6.885   7.873
21260WAT      O64021   6.755   5.298   1.956
21260WAT     H164022   6.701   5.259   2.030
21260WAT     H264023   6.852   5.274   1.968
21261WAT      O64024   0.884   7.370   4.306
21261WAT     H164025   0.879   7.271   4.295
21261WAT     H264026   0.835   7.415   4.231
21262WAT      O64027   8.228   8.494   8.722
21262WAT     H164028   8.184   8.531   8.803
21262WAT     H264029   8.319   8.534   8.711
21263WAT      O64030   3.607   2.023   4.270
21263WAT     H164031   3.658   2.069   4.197
21263WAT     H264032   3.513   2.056   4.270
21264WAT      O64033   1.074   0.004   8.774
21264WAT     H164034   1.085   0.088   8.720
21264WAT     H264035   0.978  -0.023   8.774
21265WAT      O64036   8.363   4.303   0.582
21265WAT     H164037   8.291   4.339   0.523
21265WAT     H264038   8.430   4.255   0.526
21266WAT      O64039   2.425   5.752   2.513
21266WAT     H164040   2.401   5.656   2.493
21266WAT     H264041   2.450   5.760   2.610
21267WAT      O64042   7.548   4.835   3.379
21267WAT     H164043   7.523   4.931   3.373
21267WAT     H264044   7.509   4.795   3.462
21268WAT      O64045   5.526   6.759   1.089
21268WAT     H164046   5.582   6.831   1.048
21268WAT     H264047   5.583   6.679   1.108
21269WAT      O64048   4.975   8.356   7.621
21269WAT     H164049   4.884   8.392   7.600
21269WAT     H264050   4.968   8.259   7.644
21270WAT      O64051   4.438   0.899   3.255
21270WAT     H164052   4.400   0.866   3.342
21270WAT     H264053   4.423   0.998   3.248
21271WAT      O64054   8.695   9.810   4.706
21271WAT     H164055   8.757   9.886   4.690
21271WAT     H264056   8.745   9.733   4.745
21272WAT      O64057   0.068   0.220   6.681
21272WAT     H164058   0.085   0.135   6.730
21272WAT     H264059   0.036   0.290   6.745
21273WAT      O64060   8.695   7.752   5.374
21273WAT     H164061   8.786   7.737   5.413
21273WAT     H264062   8.631   7.687   5.412
21274WAT      O64063   2.206   5.353   6.812
21274WAT     H164064   2.172   5.424   6.873
21274WAT     H264065   2.128   5.303   6.772
21275WAT      O64066   0.627   7.779   4.186
21275WAT     H164067   0.631   7.869   4.144
21275WAT     H264068   0.538   7.766   4.229
21276WAT      O64069   8.825   6.939   1.329
21276WAT     H164070   8.907   6.934   1.385
21276WAT     H264071   8.830   7.020   1.269
21277WAT      O64072   5.989   2.431   8.299
21277WAT     H164073   5.948   2.522   8.286
21277WAT     H264074   6.042   2.431   8.384
21278WAT      O64075   6.740   8.512   9.588
21278WAT     H164076   6.785   8.473   9.668
21278WAT     H264077   6.717   8.438   9.524
21279WAT      O64078   8.855   6.625   2.157
21279WAT     H164079   8.946   6.632   2.116
21279WAT     H264080   8.803   6.554   2.111
21280WAT      O64081   3.957   6.126   5.353
21280WAT     H164082   3.953   6.215   5.398
21280WAT     H264083   3.945   6.137   5.255
21281WAT      O64084   9.603   3.188   8.843
21281WAT     H164085   9.540   3.265   8.858
21281WAT     H264086   9.656   3.171   8.926
21282WAT      O64087   1.741   1.743   4.246
21282WAT     H164088   1.670   1.682   4.282
21282WAT     H264089   1.699   1.815   4.191
21283WAT      O64090   5.839   8.626   0.192
21283WAT     H164091   5.920   8.685   0.197
21283WAT     H264092   5.757   8.683   0.190
21284WAT      O64093   7.109   3.090   2.492
21284WAT     H164094   7.151   3.044   2.570
21284WAT     H264095   7.131   3.040   2.408
21285WAT      O64096   0.583   4.648   8.990
21285WAT     H164097   0.532   4.579   9.041
21285WAT     H264098   0.586   4.622   8.893
21286WAT      O64099   3.179   6.894   4.652
21286WAT     H164100   3.155   6.908   4.748
21286WAT     H264101   3.275   6.916   4.638
21287WAT      O64102   5.436   4.234   9.694
21287WAT     H164103   5.390   4.320   9.673
21287WAT     H264104   5.530   4.238   9.660
21288WAT      O64105   1.258   7.380   3.844
21288WAT     H164106   1.296   7.391   3.936
21288WAT     H264107   1.303   7.443   3.782
21289WAT      O64108   1.832   3.154   4.679
21289WAT     H164109   1.754   3.195   4.726
21289WAT     H264110   1.886   3.101   4.744
21290WAT      O64111   9.713   5.720   8.228
21290WAT     H164112   9.754   5.629   8.227
21290WAT     H264113   9.617   5.715   8.201
21291WAT      O64114   8.047   7.859   6.159
21291WAT     H164115   8.127   7.849   6.218
21291WAT     H264116   8.032   7.775   6.108
21292WAT      O64117   2.161   9.064   5.579
21292WAT     H164118   2.181   9.125   5.656
21292WAT     H264119   2.225   8.988   5.579
21293WAT      O64120   9.718   8.135   6.403
21293WAT     H164121   9.764   8.057   6.446
21293WAT     H264122   9.755   8.220   6.441
21294WAT      O64123   2.078   5.035   8.833
21294WAT     H164124   2.050   5.118   8.881
21294WAT     H264125   2.158   5.054   8.776
21295WAT      O64126   9.372   3.379   3.502
21295WAT     H164127   9.450   3.317   3.486
21295WAT     H264128   9.402   3.473   3.493
21296WAT      O64129   6.340   0.870   8.759
21296WAT     H164130   6.408   0.923   8.810
21296WAT     H264131   6.296   0.805   8.821
21297WAT      O64132   6.200   8.289   7.058
21297WAT     H164133   6.247   8.293   7.146
21297WAT     H264134   6.267   8.286   6.984
21298WAT      O64135   5.463   0.982   8.493
21298WAT     H164136   5.552   0.970   8.536
21298WAT     H264137   5.449   0.910   8.424
21299WAT      O64138   4.890   8.972   0.285
21299WAT     H164139   4.976   8.925   0.266
21299WAT     H264140   4.881   9.051   0.224
21300WAT      O64141   9.078   2.201   9.308
21300WAT     H164142   9.117   2.263   9.239
21300WAT     H264143   9.134   2.118   9.314
21301WAT      O64144   3.061   6.841   6.763
21301WAT     H164145   3.128   6.846   6.689
21301WAT     H264146   2.976   6.886   6.736
21302WAT      O64147   0.192   6.695   4.392
21302WAT     H164148   0.262   6.765   4.409
21302WAT     H264149   0.124   6.731   4.328
21303WAT      O64150   6.461   7.575   8.274
21303WAT     H164151   6.501   7.644   8.335
21303WAT     H264152   6.524   7.556   8.199
21304WAT      O64153   1.882   0.551   7.238
21304WAT     H164154   1.785   0.548   7.262
21304WAT     H264155   1.897   0.495   7.156
21305WAT      O64156   6.271   7.698   1.306
21305WAT     H164157   6.367   7.698   1.278
21305WAT     H264158   6.218   7.755   1.243
21306WAT      O64159   5.150   3.542   5.902
21306WAT     H164160   5.149   3.446   5.932
21306WAT     H264161   5.061   3.583   5.920
21307WAT      O64162   7.657   4.203   3.646
21307WAT     H164163   7.753   4.230   3.654
21307WAT     H264164   7.599   4.282   3.666
21308WAT      O64165   9.649   7.554   4.557
21308WAT     H164166   9.695   7.494   4.622
21308WAT     H264167   9.556   7.573   4.590
21309WAT      O64168   0.964   6.267   1.893
21309WAT     H164169   0.871   6.257   1.860
21309WAT     H264170   1.008   6.345   1.847
21310WAT      O64171   9.809   2.839   3.071
21310WAT     H164172   9.748   2.861   2.995
21310WAT     H264173   9.769   2.874   3.156
21311WAT      O64174   8.085   0.408   1.867
21311WAT     H164175   8.141   0.467   1.926
21311WAT     H264176   8.026   0.465   1.810
21312WAT      O64177   1.685   6.784   7.335
21312WAT     H164178   1.667   6.799   7.432
21312WAT     H264179   1.616   6.722   7.297
21313WAT      O64180   3.434   4.230   0.162
21313WAT     H164181   3.426   4.317   0.114
21313WAT     H264182   3.440   4.156   0.096
21314WAT      O64183   6.184   1.732   5.772
21314WAT     H164184   6.180   1.668   5.695
21314WAT     H264185   6.280   1.745   5.798
21315WAT      O64186   3.191   0.689   9.182
21315WAT     H164187   3.161   0.645   9.266
21315WAT     H264188   3.291   0.694   9.179
21316WAT      O64189   0.542   5.413   4.121
21316WAT     H164190   0.616   5.436   4.059
21316WAT     H264191   0.468   5.480   4.111
21317WAT      O64192   8.533   3.465   2.331
21317WAT     H164193   8.612   3.513   2.369
21317WAT     H264194   8.457   3.470   2.396
21318WAT      O64195   2.961   8.979   4.877
21318WAT     H164196   2.864   9.002   4.873
21318WAT     H264197   3.001   9.016   4.961
21319WAT      O64198   7.643   4.768   8.832
21319WAT     H164199   7.611   4.815   8.914
21319WAT     H264200   7.566   4.722   8.788
21320WAT      O64201   2.177   6.055   9.656
21320WAT     H164202   2.183   6.125   9.585
21320WAT     H264203   2.265   6.008   9.664
21321WAT      O64204   4.641   9.514   7.023
21321WAT     H164205   4.638   9.418   6.997
21321WAT     H264206   4.693   9.565   6.954
21322WAT      O64207   7.392   0.349   0.297
21322WAT     H164208   7.407   0.444   0.271
21322WAT     H264209   7.480   0.304   0.311
21323WAT      O64210   6.786   1.685   8.098
21323WAT     H164211   6.687   1.695   8.106
21323WAT     H264212   6.832   1.754   8.154
21324WAT      O64213   7.755   9.189   0.083
21324WAT     H164214   7.803   9.102   0.097
21324WAT     H264215   7.669   9.172   0.035
21325WAT      O64216   8.588   3.202   0.922
21325WAT     H164217   8.540   3.114   0.926
21325WAT     H264218   8.550   3.264   0.990
21326WAT      O64219   1.149   9.551   9.323
21326WAT     H164220   1.116   9.481   9.258
21326WAT     H264221   1.229   9.515   9.372
21327WAT      O64222   6.651   3.481   4.133
21327WAT     H164223   6.674   3.499   4.037
21327WAT     H264224   6.723   3.516   4.192
21328WAT      O64225   7.436   5.826   5.882
21328WAT     H164226   7.534   5.845   5.880
21328WAT     H264227   7.420   5.730   5.861
21329WAT      O64228   3.908   6.984   7.997
21329WAT     H164229   3.967   7.005   8.075
21329WAT     H264230   3.930   6.893   7.961
21330WAT      O64231   8.841   4.792   9.671
21330WAT     H164232   8.811   4.699   9.651
21330WAT     H264233   8.940   4.792   9.689
21331WAT      O64234   3.989   5.122   0.835
21331WAT     H164235   3.959   5.160   0.748
21331WAT     H264236   3.938   5.165   0.910
21332WAT      O64237   9.787   3.484   7.505
21332WAT     H164238   9.763   3.502   7.600
21332WAT     H264239   9.704   3.490   7.448
21333WAT      O64240   0.875   9.560   8.172
21333WAT     H164241   0.911   9.606   8.091
21333WAT     H264242   0.925   9.474   8.187
21334WAT      O64243   2.270   4.418   8.965
21334WAT     H164244   2.224   4.504   8.940
21334WAT     H264245   2.267   4.407   9.064
21335WAT      O64246   9.885   1.645   5.423
21335WAT     H164247   9.939   1.560   5.427
21335WAT     H264248   9.824   1.641   5.344
21336WAT      O64249   1.561   1.552   8.692
21336WAT     H164250   1.627   1.564   8.617
21336WAT     H264251   1.611   1.526   8.775
21337WAT      O64252   4.080   0.816   3.499
21337WAT     H164253   4.017   0.820   3.422
21337WAT     H264254   4.065   0.732   3.550
21338WAT      O64255   1.962   7.571   3.547
21338WAT     H164256   1.996   7.607   3.460
21338WAT     H264257   1.864   7.589   3.554
21339WAT      O64258   9.644   8.296   8.780
21339WAT     H164259   9.607   8.387   8.762
21339WAT     H264260   9.614   8.233   8.710
21340WAT      O64261   0.401   4.366   4.960
21340WAT     H164262   0.309   4.383   4.996
21340WAT     H264263   0.459   4.330   5.033
21341WAT      O64264   2.702   6.353   2.366
21341WAT     H164265   2.624   6.391   2.416
21341WAT     H264266   2.768   6.427   2.347
21342WAT      O64267   8.128   9.144   7.078
21342WAT     H164268   8.199   9.153   7.009
21342WAT     H264269   8.129   9.051   7.115
21343WAT      O64270   4.681   7.818   0.532
21343WAT     H164271   4.582   7.834   0.526
21343WAT     H264272   4.702   7.727   0.498
21344WAT      O64273   7.888   0.550   6.404
21344WAT     H164274   7.979   0.585   6.380
21344WAT     H264275   7.892   0.450   6.410
21345WAT      O64276   4.313   8.719   5.727
21345WAT     H164277   4.273   8.628   5.737
21345WAT     H264278   4.244   8.782   5.692
21346WAT      O64279   8.663   1.617   5.938
21346WAT     H164280   8.592   1.646   6.002
21346WAT     H264281   8.748   1.598   5.987
21347WAT      O64282   2.206   4.064   8.551
21347WAT     H164283   2.138   4.092   8.484
21347WAT     H264284   2.210   4.131   8.625
21348WAT      O64285   0.054   9.356   9.788
21348WAT     H164286   0.024   9.346   9.693
21348WAT     H264287   0.153   9.343   9.793
21349WAT      O64288   1.959   7.901   1.453
21349WAT     H164289   1.881   7.952   1.416
21349WAT     H264290   2.026   7.885   1.381
21350WAT      O64291   5.367   7.973   6.236
21350WAT     H164292   5.280   7.933   6.266
21350WAT     H264293   5.438   7.952   6.304
21351WAT      O64294   4.906   7.778   3.538
21351WAT     H164295   4.922   7.699   3.479
21351WAT     H264296   4.952   7.858   3.499
21352WAT      O64297   5.144   9.598   6.498
21352WAT     H164298   5.153   9.668   6.427
21352WAT     H264299   5.086   9.524   6.464
21353WAT      O64300   1.765   5.316   5.202
21353WAT     H164301   1.704   5.390   5.232
21353WAT     H264302   1.714   5.252   5.144
21354WAT      O64303   7.453   1.536   8.997
21354WAT     H164304   7.397   1.483   8.934
21354WAT     H264305   7.395   1.578   9.066
21355WAT      O64306   3.463   6.337   4.471
21355WAT     H164307   3.410   6.309   4.391
21355WAT     H264308   3.558   6.356   4.442
21356WAT      O64309   9.297   1.503   0.587
21356WAT     H164310   9.359   1.524   0.663
21356WAT     H264311   9.223   1.444   0.619
21357WAT      O64312   7.731   8.610   0.934
21357WAT     H164313   7.686   8.582   1.019
21357WAT     H264314   7.719   8.539   0.864
21358WAT      O64315   9.537   5.977   6.625
21358WAT     H164316   9.486   5.909   6.573
21358WAT     H264317   9.473   6.032   6.679
21359WAT      O64318   1.088   2.979   8.604
21359WAT     H164319   1.041   2.905   8.558
21359WAT     H264320   1.185   2.956   8.615
21360WAT      O64321   5.849   7.723   1.641
21360WAT     H164322   5.791   7.773   1.705
21360WAT     H264323   5.889   7.643   1.688
21361WAT      O64324   4.460   7.714   8.322
21361WAT     H164325   4.528   7.725   8.394
21361WAT     H264326   4.371   7.696   8.364
21362WAT      O64327   9.754   3.074   8.656
21362WAT     H164328   9.827   3.022   8.700
21362WAT     H264329   9.691   3.108   8.725
21363WAT      O64330   7.752   8.129   7.626
21363WAT     H164331   7.759   8.201   7.695
21363WAT     H264332   7.722   8.044   7.670
21364WAT      O64333   7.061   8.298   3.863
21364WAT     H164334   7.076   8.384   3.912
21364WAT     H264335   6.976   8.257   3.895
21365WAT      O64336   1.510   6.392   1.327
21365WAT     H164337   1.522   6.293   1.329
21365WAT     H264338   1.414   6.414   1.309
21366WAT      O64339   9.342   3.689   7.249
21366WAT     H164340   9.395   3.654   7.327
21366WAT     H264341   9.244   3.682   7.270
21367WAT      O64342   4.987   9.743   2.091
21367WAT     H164343   5.084   9.721   2.078
21367WAT     H264344   4.968   9.834   2.054
21368WAT      O64345   4.978   7.792   1.508
21368WAT     H164346   5.064   7.781   1.559
21368WAT     H264347   4.902   7.803   1.573
21369WAT      O64348   6.763   3.217   2.249
21369WAT     H164349   6.757   3.309   2.286
21369WAT     H264350   6.786   3.153   2.323
21370WAT      O64351   8.424   9.368   7.117
21370WAT     H164352   8.523   9.383   7.129
21370WAT     H264353   8.409   9.292   7.055
21371WAT      O64354   8.849   1.622   2.123
21371WAT     H164355   8.818   1.615   2.217
21371WAT     H264356   8.820   1.710   2.085
21372WAT      O64357   3.783   5.695   0.330
21372WAT     H164358   3.693   5.662   0.303
21372WAT     H264359   3.850   5.622   0.315
21373WAT      O64360   1.369   3.299   2.361
21373WAT     H164361   1.314   3.282   2.443
21373WAT     H264362   1.338   3.383   2.317
21374WAT      O64363   3.921   7.049   3.507
21374WAT     H164364   4.015   7.073   3.482
21374WAT     H264365   3.858   7.112   3.463
21375WAT      O64366   5.853   8.330   4.160
21375WAT     H164367   5.905   8.380   4.090
21375WAT     H264368   5.784   8.273   4.115
21376WAT      O64369   6.633   0.307   3.489
21376WAT     H164370   6.688   0.389   3.505
21376WAT     H264371   6.598   0.273   3.576
21377WAT      O64372   0.954   5.841   6.462
21377WAT     H164373   0.997   5.771   6.405
21377WAT     H264374   0.861   5.857   6.431
21378WAT      O64375   6.421   4.076   4.966
21378WAT     H164376   6.333   4.115   4.991
21378WAT     H264377   6.459   4.026   5.043
21379WAT      O64378   1.489   8.111   3.565
21379WAT     H164379   1.569   8.171   3.568
21379WAT     H264380   1.492   8.048   3.643
21380WAT      O64381   4.072   1.690   8.905
21380WAT     H164382   3.975   1.711   8.895
21380WAT     H264383   4.099   1.621   8.838
21381WAT      O64384   1.921   2.338   4.921
21381WAT     H164385   1.953   2.426   4.885
21381WAT     H264386   1.987   2.267   4.899
21382WAT      O64387   1.678   9.284   1.582
21382WAT     H164388   1.655   9.189   1.560
21382WAT     H264389   1.614   9.345   1.536
21383WAT      O64390   6.972   6.287   9.449
21383WAT     H164391   6.940   6.215   9.388
21383WAT     H264392   7.071   6.279   9.462
21384WAT      O64393   9.000   8.135   6.189
21384WAT     H164394   9.014   8.044   6.230
21384WAT     H264395   9.023   8.130   6.091
21385WAT      O64396   5.218   8.988   6.484
21385WAT     H164397   5.301   9.040   6.505
21385WAT     H264398   5.237   8.890   6.494
21386WAT      O64399   2.603   9.598   4.536
21386WAT     H164400   2.687   9.571   4.584
21386WAT     H264401   2.554   9.517   4.506
21387WAT      O64402   5.346   8.815   9.107
21387WAT     H164403   5.263   8.831   9.161
21387WAT     H264404   5.334   8.734   9.050
21388WAT      O64405   0.489   3.966   1.509
21388WAT     H164406   0.509   3.911   1.429
21388WAT     H264407   0.551   4.045   1.511
21389WAT      O64408   6.277   4.098   4.497
21389WAT     H164409   6.354   4.130   4.551
21389WAT     H264410   6.192   4.114   4.547
21390WAT      O64411   3.614   0.597   6.222
21390WAT     H164412   3.603   0.508   6.266
21390WAT     H264413   3.708   0.629   6.231
21391WAT      O64414   9.180   9.537   1.364
21391WAT     H164415   9.127   9.560   1.282
21391WAT     H264416   9.124   9.554   1.445
21392WAT      O64417   0.568   2.930   0.891
21392WAT     H164418   0.546   2.871   0.969
21392WAT     H264419   0.605   3.017   0.924
21393WAT      O64420   0.397   8.988   1.999
21393WAT     H164421   0.386   9.045   1.917
21393WAT     H264422   0.327   9.013   2.066
21394WAT      O64423   2.501   8.163   9.738
21394WAT     H164424   2.518   8.247   9.686
21394WAT     H264425   2.492   8.086   9.674
21395WAT      O64426   7.966   3.837   6.764
21395WAT     H164427   7.998   3.770   6.831
21395WAT     H264428   7.877   3.873   6.792
21396WAT      O64429   9.500   0.786   8.122
21396WAT     H164430   9.573   0.853   8.129
21396WAT     H264431   9.516   0.728   8.041
21397WAT      O64432   7.756   7.777   1.025
21397WAT     H164433   7.770   7.756   1.122
21397WAT     H264434   7.658   7.784   1.007
21398WAT      O64435   7.161   6.483   0.900
21398WAT     H164436   7.258   6.485   0.923
21398WAT     H264437   7.109   6.453   0.979
21399WAT      O64438   6.651   0.388   8.574
21399WAT     H164439   6.664   0.338   8.660
21399WAT     H264440   6.728   0.449   8.558
21400WAT      O64441   2.411   6.470   8.649
21400WAT     H164442   2.368   6.380   8.642
21400WAT     H264443   2.500   6.462   8.693
21401WAT      O64444   4.402   6.628   7.683
21401WAT     H164445   4.349   6.694   7.630
21401WAT     H264446   4.448   6.564   7.622
21402WAT      O64447   6.182   5.367   7.139
21402WAT     H164448   6.199   5.439   7.072
21402WAT     H264449   6.096   5.386   7.187
21403WAT      O64450   2.663   5.918   5.318
21403WAT     H164451   2.639   5.963   5.232
21403WAT     H264452   2.647   5.981   5.394
21404WAT      O64453   1.340   4.073   8.340
21404WAT     H164454   1.424   4.018   8.345
21404WAT     H264455   1.296   4.074   8.430
21405WAT      O64456   7.825   4.590   0.263
21405WAT     H164457   7.847   4.657   0.334
21405WAT     H264458   7.763   4.521   0.300
21406WAT      O64459   7.158   7.013   1.705
21406WAT     H164460   7.170   7.080   1.778
21406WAT     H264461   7.245   6.966   1.688
21407WAT      O64462   6.147   7.312   9.468
21407WAT     H164463   6.059   7.267   9.480
21407WAT     H264464   6.220   7.245   9.473
21408WAT      O64465   0.891   8.366   6.285
21408WAT     H164466   0.836   8.288   6.315
21408WAT     H264467   0.854   8.402   6.200
21409WAT      O64468   3.042   9.798   7.531
21409WAT     H164469   3.013   9.704   7.509
21409WAT     H264470   3.083   9.800   7.622
21410WAT      O64471   5.168   9.108   7.461
21410WAT     H164472   5.150   9.084   7.556
21410WAT     H264473   5.122   9.043   7.401
21411WAT      O64474   8.517   0.673   0.809
21411WAT     H164475   8.476   0.586   0.836
21411WAT     H264476   8.445   0.736   0.780
21412WAT      O64477   6.727   1.636   5.044
21412WAT     H164478   6.795   1.582   5.093
21412WAT     H264479   6.772   1.710   4.995
21413WAT      O64480   0.787   8.586   5.641
21413WAT     H164481   0.748   8.545   5.558
21413WAT     H264482   0.803   8.514   5.709
21414WAT      O64483   6.900   4.893   0.665
21414WAT     H164484   6.871   4.865   0.573
21414WAT     H264485   6.994   4.927   0.661
21415WAT      O64486   2.835   7.479   6.849
21415WAT     H164487   2.898   7.481   6.771
21415WAT     H264488   2.749   7.524   6.824
21416WAT      O64489   5.584   7.616   4.348
21416WAT     H164490   5.504   7.653   4.395
21416WAT     H264491   5.562   7.526   4.311
21417WAT      O64492   0.167   0.252   8.788
21417WAT     H164493   0.162   0.352   8.791
21417WAT     H264494   0.122   0.214   8.869
21418WAT      O64495   1.730   5.922  -0.003
21418WAT     H164496   1.779   6.003  -0.035
21418WAT     H264497   1.728   5.922   0.097
21419WAT      O64498   3.578   7.974   3.150
21419WAT     H164499   3.674   7.949   3.155
21419WAT     H264500   3.530   7.913   3.087
21420WAT      O64501   5.142   1.997   5.476
21420WAT     H164502   5.089   2.031   5.398
21420WAT     H264503   5.226   2.051   5.486
21421WAT      O64504   3.708   1.643   4.667
21421WAT     H164505   3.783   1.698   4.704
21421WAT     H264506   3.705   1.654   4.568
21422WAT      O64507   9.539   7.161   6.996
21422WAT     H164508   9.491   7.095   7.054
21422WAT     H264509   9.505   7.154   6.902
21423WAT      O64510   8.467   4.207   1.141
21423WAT     H164511   8.373   4.212   1.107
21423WAT     H264512   8.527   4.260   1.081
21424WAT      O64513   0.730   3.413   2.874
21424WAT     H164514   0.798   3.358   2.825
21424WAT     H264515   0.683   3.473   2.809
21425WAT      O64516   3.477   9.623   1.361
21425WAT     H164517   3.545   9.645   1.431
21425WAT     H264518   3.401   9.687   1.367
21426WAT      O64519   4.060   7.634   6.537
21426WAT     H164520   4.057   7.643   6.637
21426WAT     H264521   4.069   7.725   6.496
21427WAT      O64522   2.451   1.459   6.179
21427WAT     H164523   2.515   1.535   6.167
21427WAT     H264524   2.481   1.381   6.124
21428WAT      O64525   3.801   6.782   7.741
21428WAT     H164526   3.803   6.720   7.820
21428WAT     H264527   3.852   6.741   7.665
21429WAT      O64528   9.728   5.641   4.757
21429WAT     H164529   9.704   5.697   4.837
21429WAT     H264530   9.807   5.681   4.711
21430WAT      O64531   3.179   4.165   1.004
21430WAT     H164532   3.180   4.263   0.984
21430WAT     H264533   3.116   4.118   0.943
21431WAT      O64534   5.023   2.379   6.478
21431WAT     H164535   5.015   2.347   6.573
21431WAT     H264536   5.069   2.467   6.475
21432WAT      O64537   0.801   5.624   8.851
21432WAT     H164538   0.707   5.650   8.876
21432WAT     H264539   0.864   5.696   8.881
21433WAT      O64540   0.147   7.422   4.522
21433WAT     H164541   0.091   7.470   4.455
21433WAT     H264542   0.126   7.456   4.614
21434WAT      O64543   9.554   4.916   5.195
21434WAT     H164544   9.598   4.826   5.194
21434WAT     H264545   9.512   4.932   5.285
21435WAT      O64546   5.169   3.547   9.055
21435WAT     H164547   5.139   3.451   9.057
21435WAT     H264548   5.091   3.606   9.078
21436WAT      O64549   7.209   6.734   1.945
21436WAT     H164550   7.285   6.790   1.911
21436WAT     H264551   7.129   6.748   1.887
21437WAT      O64552   9.826   8.851   7.515
21437WAT     H164553   9.737   8.863   7.557
21437WAT     H264554   9.868   8.766   7.548
21438WAT      O64555   5.558   7.368   9.425
21438WAT     H164556   5.521   7.279   9.453
21438WAT     H264557   5.651   7.378   9.461
21439WAT      O64558   6.739   4.549   9.810
21439WAT     H164559   6.781   4.552   9.719
21439WAT     H264560   6.811   4.549   9.880
21440WAT      O64561   0.962   4.232   0.301
21440WAT     H164562   0.917   4.171   0.234
21440WAT     H264563   0.937   4.326   0.281
21441WAT      O64564   7.708   8.575   2.309
21441WAT     H164565   7.694   8.584   2.407
21441WAT     H264566   7.775   8.503   2.291
21442WAT      O64567   7.204   7.199   1.373
21442WAT     H164568   7.104   7.201   1.374
21442WAT     H264569   7.238   7.250   1.452
21443WAT      O64570   8.022   1.828   2.121
21443WAT     H164571   7.949   1.886   2.156
21443WAT     H264572   8.042   1.756   2.188
21444WAT      O64573   1.994   4.123   6.870
21444WAT     H164574   1.940   4.207   6.873
21444WAT     H264575   1.960   4.059   6.938
21445WAT      O64576   0.950   1.845   6.581
21445WAT     H164577   0.881   1.773   6.587
21445WAT     H264578   1.003   1.847   6.666
21446WAT      O64579   3.349   4.871   6.732
21446WAT     H164580   3.387   4.877   6.640
21446WAT     H264581   3.284   4.795   6.737
21447WAT      O64582   0.990   9.809   7.082
21447WAT     H164583   0.966   9.777   6.990
21447WAT     H264584   1.089   9.815   7.091
21448WAT      O64585   9.656   4.303   0.426
21448WAT     H164586   9.752   4.322   0.405
21448WAT     H264587   9.607   4.388   0.442
21449WAT      O64588   9.141   0.025   3.260
21449WAT     H164589   9.057  -0.008   3.301
21449WAT     H264590   9.215   0.023   3.328
21450WAT      O64591   8.842   4.957   3.470
21450WAT     H164592   8.796   5.024   3.529
21450WAT     H264593   8.930   4.995   3.440
21451WAT      O64594   0.274   8.652   9.030
21451WAT     H164595   0.274   8.747   8.999
21451WAT     H264596   0.259   8.592   8.952
21452WAT      O64597   0.332   4.092   8.586
21452WAT     H164598   0.428   4.087   8.560
21452WAT     H264599   0.286   4.161   8.531
21453WAT      O64600   1.344   3.472   8.963
21453WAT     H164601   1.302   3.536   9.028
21453WAT     H264602   1.285   3.464   8.883
21454WAT      O64603   1.723   5.523   2.739
21454WAT     H164604   1.695   5.610   2.700
21454WAT     H264605   1.758   5.463   2.667
21455WAT      O64606   2.317   9.167   5.337
21455WAT     H164607   2.381   9.227   5.386
21455WAT     H264608   2.254   9.125   5.401
21456WAT      O64609   3.781   0.610   2.035
21456WAT     H164610   3.863   0.661   2.009
21456WAT     H264611   3.789   0.515   2.002
21457WAT      O64612   9.410   4.827   0.895
21457WAT     H164613   9.505   4.819   0.865
21457WAT     H264614   9.377   4.919   0.877
21458WAT      O64615   7.629   9.349   2.765
21458WAT     H164616   7.649   9.313   2.674
21458WAT     H264617   7.613   9.448   2.758
21459WAT      O64618   9.306   0.857   8.975
21459WAT     H164619   9.399   0.892   8.961
21459WAT     H264620   9.246   0.892   8.904
21460WAT      O64621   2.836   0.378   6.784
21460WAT     H164622   2.762   0.352   6.846
21460WAT     H264623   2.848   0.308   6.714
21461WAT      O64624   6.189   5.785   9.139
21461WAT     H164625   6.156   5.691   9.135
21461WAT     H264626   6.131   5.838   9.201
21462WAT      O64627   2.889   9.159   2.973
21462WAT     H164628   2.895   9.103   3.056
21462WAT     H264629   2.819   9.120   2.912
21463WAT      O64630   1.626   3.527   2.675
21463WAT     H164631   1.697   3.505   2.742
21463WAT     H264632   1.575   3.608   2.706
21464WAT      O64633   6.078   3.875   7.501
21464WAT     H164634   6.006   3.944   7.499
21464WAT     H264635   6.099   3.846   7.407
21465WAT      O64636   3.665   4.148   2.490
21465WAT     H164637   3.619   4.191   2.412
21465WAT     H264638   3.764   4.147   2.475
21466WAT      O64639   5.050   0.984   6.139
21466WAT     H164640   5.100   1.062   6.100
21466WAT     H264641   5.007   0.932   6.065
21467WAT      O64642   2.320   6.972   9.099
21467WAT     H164643   2.403   6.917   9.094
21467WAT     H264644   2.345   7.068   9.116
21468WAT      O64645   8.977   0.992   7.642
21468WAT     H164646   8.941   0.922   7.579
21468WAT     H264647   8.902   1.051   7.672
21469WAT      O64648   8.310   2.455   9.005
21469WAT     H164649   8.391   2.428   9.058
21469WAT     H264650   8.231   2.463   9.066
21470WAT      O64651   9.883   3.627   3.389
21470WAT     H164652   9.816   3.581   3.447
21470WAT     H264653   9.838   3.663   3.307
21471WAT      O64654   9.730   8.027   0.628
21471WAT     H164655   9.797   8.081   0.577
21471WAT     H264656   9.707   8.074   0.713
21472WAT      O64657   3.501   5.377   9.493
21472WAT     H164658   3.448   5.429   9.560
21472WAT     H264659   3.444   5.306   9.453
21473WAT      O64660   7.404   5.417   1.970
21473WAT     H164661   7.355   5.504   1.976
21473WAT     H264662   7.494   5.433   1.929
21474WAT      O64663   4.695   6.085   5.250
21474WAT     H164664   4.661   6.031   5.327
21474WAT     H264665   4.620   6.102   5.186
21475WAT      O64666   4.326   4.057   9.753
21475WAT     H164667   4.302   4.144   9.711
21475WAT     H264668   4.244   4.015   9.791
21476WAT      O64669   7.432   4.286   3.345
21476WAT     H164670   7.404   4.319   3.255
21476WAT     H264671   7.394   4.346   3.416
21477WAT      O64672   1.231   2.439   7.231
21477WAT     H164673   1.290   2.442   7.150
21477WAT     H264674   1.138   2.418   7.203
21478WAT      O64675   0.778   5.714   0.146
21478WAT     H164676   0.746   5.636   0.201
21478WAT     H264677   0.706   5.742   0.083
21479WAT      O64678   3.103   9.637   2.961
21479WAT     H164679   3.152   9.586   3.032
21479WAT     H264680   3.050   9.711   3.003
21480WAT      O64681   7.985   3.931   8.220
21480WAT     H164682   7.928   3.853   8.197
21480WAT     H264683   7.950   4.013   8.173
21481WAT      O64684   9.559   6.075   1.389
21481WAT     H164685   9.613   6.028   1.459
21481WAT     H264686   9.582   6.172   1.389
21482WAT      O64687   6.455   3.817   7.624
21482WAT     H164688   6.438   3.907   7.585
21482WAT     H264689   6.372   3.783   7.668
21483WAT      O64690   5.700   4.408   4.140
21483WAT     H164691   5.631   4.479   4.126
21483WAT     H264692   5.790   4.445   4.116
21484WAT      O64693   9.553   2.997   0.590
21484WAT     H164694   9.473   3.055   0.608
21484WAT     H264695   9.632   3.056   0.572
21485WAT      O64696   0.643   5.961   3.156
21485WAT     H164697   0.616   6.050   3.121
21485WAT     H264698   0.567   5.897   3.146
21486WAT      O64699   4.067   2.195   4.941
21486WAT     H164700   4.062   2.101   4.974
21486WAT     H264701   4.161   2.215   4.912
21487WAT      O64702   1.598   2.008   5.045
21487WAT     H164703   1.614   1.916   5.009
21487WAT     H264704   1.685   2.049   5.071
21488WAT      O64705   5.470   1.947   3.238
21488WAT     H164706   5.418   1.967   3.155
21488WAT     H264707   5.464   1.850   3.258
21489WAT      O64708   6.014   9.794   0.674
21489WAT     H164709   6.016   9.749   0.584
21489WAT     H264710   6.002   9.892   0.662
21490WAT      O64711   0.101   7.882   2.133
21490WAT     H164712   0.076   7.977   2.116
21490WAT     H264713   0.019   7.825   2.135
21491WAT      O64714   2.070   6.511   7.307
21491WAT     H164715   2.128   6.449   7.359
21491WAT     H264716   2.024   6.461   7.233
21492WAT      O64717   8.615   2.042   8.319
21492WAT     H164718   8.593   2.118   8.259
21492WAT     H264719   8.533   2.015   8.369
21493WAT      O64720   0.778   7.849   7.846
21493WAT     H164721   0.810   7.847   7.752
21493WAT     H264722   0.825   7.779   7.899
21494WAT      O64723   7.259   2.559   2.693
21494WAT     H164724   7.179   2.539   2.637
21494WAT     H264725   7.298   2.647   2.665
21495WAT      O64726   9.261   8.312   1.928
21495WAT     H164727   9.162   8.307   1.922
21495WAT     H264728   9.287   8.373   2.004
21496WAT      O64729   3.791   7.256   0.643
21496WAT     H164730   3.716   7.286   0.701
21496WAT     H264731   3.878   7.274   0.689
21497WAT      O64732   0.607   3.612   7.911
21497WAT     H164733   0.636   3.708   7.906
21497WAT     H264734   0.573   3.593   8.003
21498WAT      O64735   7.510   3.243   0.313
21498WAT     H164736   7.541   3.231   0.407
21498WAT     H264737   7.561   3.181   0.253
21499WAT      O64738   3.448   8.203   2.783
21499WAT     H164739   3.492   8.154   2.857
21499WAT     H264740   3.514   8.265   2.740
21500WAT      O64741   6.800   7.014   0.874
21500WAT     H164742   6.890   6.987   0.909
21500WAT     H264743   6.770   6.947   0.806
21501WAT      O64744   3.493   2.565   7.719
21501WAT     H164745   3.430   2.522   7.784
21501WAT     H264746   3.475   2.529   7.627
21502WAT      O64747   5.132   7.212   3.089
21502WAT     H164748   5.227   7.212   3.123
21502WAT     H264749   5.093   7.121   3.100
21503WAT      O64750   5.009   9.618   2.770
21503WAT     H164751   4.948   9.663   2.704
21503WAT     H264752   5.090   9.676   2.784
21504WAT      O64753   4.258   3.544   2.399
21504WAT     H164754   4.217   3.494   2.475
21504WAT     H264755   4.186   3.591   2.347
21505WAT      O64756   8.968   5.151   0.018
21505WAT     H164757   8.908   5.084   0.061
21505WAT     H264758   8.927   5.183  -0.067
21506WAT      O64759   4.366   3.537   8.004
21506WAT     H164760   4.294   3.559   8.070
21506WAT     H264761   4.455   3.550   8.046
21507WAT      O64762   7.668   3.698   1.282
21507WAT     H164763   7.671   3.650   1.370
21507WAT     H264764   7.754   3.747   1.268
21508WAT      O64765   2.857   9.629   8.318
21508WAT     H164766   2.903   9.621   8.406
21508WAT     H264767   2.761   9.604   8.328
21509WAT      O64768   9.758   9.103   0.871
21509WAT     H164769   9.695   9.151   0.810
21509WAT     H264770   9.813   9.170   0.921
21510WAT      O64771   7.823   4.177   5.401
21510WAT     H164772   7.914   4.139   5.418
21510WAT     H264773   7.829   4.276   5.392
21511WAT      O64774   8.217   2.880   8.056
21511WAT     H164775   8.200   2.865   7.959
21511WAT     H264776   8.144   2.937   8.094
21512WAT      O64777   7.246   5.148   5.162
21512WAT     H164778   7.296   5.117   5.081
21512WAT     H264779   7.225   5.069   5.220
21513WAT      O64780   1.775   4.469   1.834
21513WAT     H164781   1.710   4.440   1.904
21513WAT     H264782   1.868   4.445   1.863
21514WAT      O64783   7.733   1.285   3.215
21514WAT     H164784   7.698   1.299   3.307
21514WAT     H264785   7.832   1.275   3.218
21515WAT      O64786   1.319   7.868   2.205
21515WAT     H164787   1.241   7.907   2.156
21515WAT     H264788   1.361   7.938   2.263
21516WAT      O64789   0.943   6.936   9.779
21516WAT     H164790   0.847   6.912   9.791
21516WAT     H264791   0.953   6.992   9.697
21517WAT      O64792   2.132   9.132   9.601
21517WAT     H164793   2.088   9.141   9.511
21517WAT     H264794   2.218   9.083   9.591
21518WAT      O64795   5.988   2.019   7.262
21518WAT     H164796   6.085   1.995   7.271
21518WAT     H264797   5.980   2.106   7.213
21519WAT      O64798   2.631   4.071   2.461
21519WAT     H164799   2.652   4.166   2.484
21519WAT     H264800   2.632   4.015   2.544
21520WAT      O64801   4.444   8.970   8.124
21520WAT     H164802   4.379   8.897   8.103
21520WAT     H264803   4.417   9.053   8.075
21521WAT      O64804   2.249   6.367   2.830
21521WAT     H164805   2.284   6.451   2.789
21521WAT     H264806   2.323   6.300   2.837
21522WAT      O64807   5.435   8.889   2.751
21522WAT     H164808   5.476   8.897   2.660
21522WAT     H264809   5.455   8.971   2.804
21523WAT      O64810   8.347   0.650   9.195
21523WAT     H164811   8.250   0.630   9.208
21523WAT     H264812   8.362   0.682   9.101
21524WAT      O64813   9.754   3.347   4.584
21524WAT     H164814   9.673   3.317   4.634
21524WAT     H264815   9.737   3.341   4.486
21525WAT      O64816   1.866   2.910   2.294
21525WAT     H164817   1.819   2.928   2.208
21525WAT     H264818   1.965   2.911   2.280
21526WAT      O64819   7.940   7.521   0.739
21526WAT     H164820   7.992   7.606   0.737
21526WAT     H264821   7.932   7.489   0.833
21527WAT      O64822   1.432   7.755   6.054
21527WAT     H164823   1.390   7.843   6.077
21527WAT     H264824   1.422   7.739   5.956
21528WAT      O64825   9.399   7.266   8.183
21528WAT     H164826   9.412   7.331   8.257
21528WAT     H264827   9.396   7.173   8.221
21529WAT      O64828   0.004   5.298   4.350
21529WAT     H164829   0.070   5.289   4.276
21529WAT     H264830   0.027   5.378   4.406
21530WAT      O64831   3.388   7.657   0.400
21530WAT     H164832   3.451   7.730   0.374
21530WAT     H264833   3.381   7.591   0.325
21531WAT      O64834   1.588   3.512   3.516
21531WAT     H164835   1.528   3.461   3.577
21531WAT     H264836   1.591   3.608   3.543
21532WAT      O64837   3.394   3.866   0.202
21532WAT     H164838   3.316   3.804   0.215
21532WAT     H264839   3.383   3.917   0.117
21533WAT      O64840   4.353   5.913   5.885
21533WAT     H164841   4.324   5.890   5.792
21533WAT     H264842   4.417   5.844   5.918
21534WAT      O64843   4.309   4.284   2.863
21534WAT     H164844   4.250   4.309   2.940
21534WAT     H264845   4.387   4.230   2.897
21535WAT      O64846   7.408   0.541   6.348
21535WAT     H164847   7.481   0.507   6.406
21535WAT     H264848   7.342   0.592   6.404
21536WAT      O64849   9.032   9.085   8.606
21536WAT     H164850   9.061   8.994   8.636
21536WAT     H264851   9.038   9.149   8.683
21537WAT      O64852   7.429   5.277   0.530
21537WAT     H164853   7.416   5.218   0.451
21537WAT     H264854   7.377   5.362   0.518
21538WAT      O64855   7.283   2.582   4.375
21538WAT     H164856   7.278   2.681   4.379
21538WAT     H264857   7.308   2.546   4.465
21539WAT      O64858   1.187   4.119   7.274
21539WAT     H164859   1.246   4.099   7.352
21539WAT     H264860   1.092   4.101   7.300
21540WAT      O64861   0.280   0.654   7.340
21540WAT     H164862   0.247   0.655   7.246
21540WAT     H264863   0.207   0.682   7.402
21541WAT      O64864   3.203   2.587   4.900
21541WAT     H164865   3.116   2.635   4.913
21541WAT     H264866   3.228   2.539   4.984
21542WAT      O64867   5.896   0.411   4.974
21542WAT     H164868   5.976   0.470   4.985
21542WAT     H264869   5.872   0.371   5.062
21543WAT      O64870   1.472   7.113   1.453
21543WAT     H164871   1.467   7.060   1.368
21543WAT     H264872   1.566   7.112   1.488
21544WAT      O64873   4.234   8.907   4.600
21544WAT     H164874   4.141   8.876   4.580
21544WAT     H264875   4.246   9.000   4.565
21545WAT      O64876   9.494   5.855   2.979
21545WAT     H164877   9.548   5.899   3.051
21545WAT     H264878   9.510   5.756   2.981
21546WAT      O64879   9.083   0.326   4.674
21546WAT     H164880   9.163   0.345   4.732
21546WAT     H264881   9.112   0.278   4.592
21547WAT      O64882   1.694   3.649   1.140
21547WAT     H164883   1.616   3.712   1.143
21547WAT     H264884   1.769   3.692   1.089
21548WAT      O64885   5.081   0.231   5.967
21548WAT     H164886   5.036   0.234   5.878
21548WAT     H264887   5.124   0.320   5.985
21549WAT      O64888   8.197   3.794   2.906
21549WAT     H164889   8.287   3.782   2.864
21549WAT     H264890   8.164   3.887   2.888
21550WAT      O64891   6.825   7.678   7.332
21550WAT     H164892   6.779   7.742   7.394
21550WAT     H264893   6.916   7.655   7.369
21551WAT      O64894   0.196   3.167   5.474
21551WAT     H164895   0.144   3.168   5.389
21551WAT     H264896   0.132   3.173   5.551
21552WAT      O64897   3.445   2.820   6.548
21552WAT     H164898   3.390   2.750   6.505
21552WAT     H264899   3.523   2.778   6.595
21553WAT      O64900   2.426   0.395   4.369
21553WAT     H164901   2.468   0.410   4.279
21553WAT     H264902   2.495   0.409   4.440
21554WAT      O64903   4.634   8.253   3.027
21554WAT     H164904   4.697   8.282   3.099
21554WAT     H264905   4.588   8.333   2.989
21555WAT      O64906   5.981   5.906   0.476
21555WAT     H164907   5.934   5.833   0.525
21555WAT     H264908   6.025   5.868   0.394
21556WAT      O64909   7.211   2.249   3.599
21556WAT     H164910   7.112   2.264   3.596
21556WAT     H264911   7.248   2.287   3.684
21557WAT      O64912   2.819   4.012   8.444
21557WAT     H164913   2.837   3.977   8.352
21557WAT     H264914   2.894   3.986   8.505
21558WAT      O64915   1.375   1.803   4.856
21558WAT     H164916   1.474   1.797   4.843
21558WAT     H264917   1.338   1.711   4.873
21559WAT      O64918   4.148   7.345   2.338
21559WAT     H164919   4.119   7.408   2.266
21559WAT     H264920   4.076   7.336   2.406
21560WAT      O64921   8.943   3.690   8.910
21560WAT     H164922   8.858   3.670   8.862
21560WAT     H264923   9.014   3.716   8.844
21561WAT      O64924   8.210   1.755   0.150
21561WAT     H164925   8.209   1.696   0.069
21561WAT     H264926   8.156   1.837   0.132
21562WAT      O64927   2.522   4.270   9.810
21562WAT     H164928   2.600   4.247   9.869
21562WAT     H264929   2.545   4.351   9.755
21563WAT      O64930   0.729   6.411   2.337
21563WAT     H164931   0.799   6.452   2.279
21563WAT     H264932   0.771   6.344   2.398
21564WAT      O64933   0.474   8.157   4.461
21564WAT     H164934   0.573   8.161   4.456
21564WAT     H264935   0.446   8.083   4.522
21565WAT      O64936   3.365   3.080   1.663
21565WAT     H164937   3.369   3.019   1.742
21565WAT     H264938   3.447   3.068   1.607
21566WAT      O64939   3.857   3.990   1.189
21566WAT     H164940   3.884   3.895   1.195
21566WAT     H264941   3.936   4.046   1.164
21567WAT      O64942   7.746   3.323   9.568
21567WAT     H164943   7.722   3.392   9.499
21567WAT     H264944   7.845   3.316   9.574
21568WAT      O64945   8.839   3.758   1.631
21568WAT     H164946   8.895   3.830   1.592
21568WAT     H264947   8.755   3.797   1.669
21569WAT      O64948   9.808   3.223   1.986
21569WAT     H164949   9.730   3.163   1.969
21569WAT     H264950   9.827   3.226   2.084
21570WAT      O64951   4.151   6.563   5.522
21570WAT     H164952   4.210   6.612   5.586
21570WAT     H264953   4.060   6.604   5.523
21571WAT      O64954   2.404   4.117   5.186
21571WAT     H164955   2.398   4.212   5.218
21571WAT     H264956   2.321   4.093   5.136
21572WAT      O64957   6.231   2.518   4.877
21572WAT     H164958   6.295   2.543   4.950
21572WAT     H264959   6.174   2.442   4.908
21573WAT      O64960   4.757   8.666   6.856
21573WAT     H164961   4.735   8.679   6.759
21573WAT     H264962   4.854   8.684   6.871
21574WAT      O64963   5.593   4.718   7.996
21574WAT     H164964   5.520   4.762   8.049
21574WAT     H264965   5.608   4.625   8.030
21575WAT      O64966   8.403   1.367   2.520
21575WAT     H164967   8.453   1.418   2.450
21575WAT     H264968   8.317   1.334   2.481
21576WAT      O64969   2.844   5.623   2.937
21576WAT     H164970   2.759   5.666   2.967
21576WAT     H264971   2.912   5.693   2.918
21577WAT      O64972   8.181   2.126   0.199
21577WAT     H164973   8.112   2.057   0.175
21577WAT     H264974   8.136   2.212   0.224
21578WAT      O64975   7.006   6.064   0.227
21578WAT     H164976   7.015   6.036   0.322
21578WAT     H264977   7.066   6.142   0.209
21579WAT      O64978   9.551   5.274   9.719
21579WAT     H164979   9.603   5.343   9.770
21579WAT     H264980   9.589   5.265   9.627
21580WAT      O64981   8.013   7.036   8.751
21580WAT     H164982   8.094   7.080   8.713
21580WAT     H264983   7.968   7.099   8.814
21581WAT      O64984   6.688   7.272   9.416
21581WAT     H164985   6.723   7.302   9.327
21581WAT     H264986   6.595   7.235   9.404
21582WAT      O64987   5.030   7.665   2.438
21582WAT     H164988   5.065   7.733   2.503
21582WAT     H264989   5.042   7.573   2.476
21583WAT      O64990   8.218   3.335   2.087
21583WAT     H164991   8.316   3.339   2.108
21583WAT     H264992   8.172   3.277   2.155
21584WAT      O64993   1.636   8.750   3.971
21584WAT     H164994   1.623   8.692   4.052
21584WAT     H264995   1.626   8.846   3.996
21585WAT      O64996   1.049   9.149   6.417
21585WAT     H164997   1.082   9.183   6.329
21585WAT     H264998   1.084   9.207   6.490
21586WAT      O64999   9.423   5.875   4.840
21586WAT     H165000   9.338   5.840   4.878
21586WAT     H265001   9.430   5.973   4.859
21587WAT      O65002   8.686   5.855   3.719
21587WAT     H165003   8.639   5.865   3.631
21587WAT     H265004   8.767   5.798   3.707
21588WAT      O65005   3.064   3.084   8.805
21588WAT     H165006   3.062   3.123   8.897
21588WAT     H265007   3.070   3.158   8.738
21589WAT      O65008   7.840   7.855   0.663
21589WAT     H165009   7.894   7.857   0.747
21589WAT     H265010   7.752   7.900   0.679
21590WAT      O65011   3.859   6.672   7.500
21590WAT     H165012   3.806   6.685   7.416
21590WAT     H265013   3.956   6.663   7.478
21591WAT      O65014   7.131   7.137   2.321
21591WAT     H165015   7.184   7.198   2.381
21591WAT     H265016   7.193   7.094   2.255
21592WAT      O65017   0.524   2.442   9.239
21592WAT     H165018   0.513   2.347   9.267
21592WAT     H265019   0.484   2.455   9.148
21593WAT      O65020   2.357   9.629   2.669
21593WAT     H165021   2.445   9.673   2.688
21593WAT     H265022   2.368   9.563   2.595
21594WAT      O65023   3.596   4.399   8.816
21594WAT     H165024   3.556   4.490   8.831
21594WAT     H265025   3.526   4.329   8.832
21595WAT      O65026   0.468   0.999   7.229
21595WAT     H165027   0.428   0.995   7.320
21595WAT     H265028   0.487   0.906   7.196
21596WAT      O65029   0.081   5.927   5.920
21596WAT     H165030   0.030   5.984   5.984
21596WAT     H265031   0.037   5.929   5.831
21597WAT      O65032   8.873   5.850   8.335
21597WAT     H165033   8.778   5.837   8.306
21597WAT     H265034   8.879   5.840   8.434
21598WAT      O65035   6.430   8.641   6.003
21598WAT     H165036   6.473   8.707   5.941
21598WAT     H265037   6.357   8.686   6.054
21599WAT      O65038   8.765   4.525   1.223
21599WAT     H165039   8.754   4.464   1.145
21599WAT     H265040   8.843   4.494   1.279
21600WAT      O65041   0.096   2.271   5.423
21600WAT     H165042   0.041   2.192   5.449
21600WAT     H265043   0.161   2.292   5.497
21601WAT      O65044   6.987   2.541   5.160
21601WAT     H165045   7.066   2.536   5.099
21601WAT     H265046   6.924   2.466   5.140
21602WAT      O65047   0.918   9.787   1.992
21602WAT     H165048   0.886   9.708   2.044
21602WAT     H265049   0.937   9.760   1.898
21603WAT      O65050   2.556   6.914   6.991
21603WAT     H165051   2.513   7.000   7.015
21603WAT     H265052   2.487   6.851   6.954
21604WAT      O65053   7.617   6.205   6.620
21604WAT     H165054   7.671   6.123   6.600
21604WAT     H265055   7.643   6.278   6.557
21605WAT      O65056   8.871   3.868   3.314
21605WAT     H165057   8.849   3.928   3.238
21605WAT     H265058   8.846   3.913   3.400
21606WAT      O65059   0.278   7.643   7.890
21606WAT     H165060   0.373   7.638   7.857
21606WAT     H265061   0.277   7.642   7.989
21607WAT      O65062   5.532   3.376   9.722
21607WAT     H165063   5.598   3.450   9.732
21607WAT     H265064   5.566   3.309   9.657
21608WAT      O65065   4.902   1.101   4.962
21608WAT     H165066   4.966   1.178   4.972
21608WAT     H265067   4.926   1.029   5.027
21609WAT      O65068   9.222   0.334   7.818
21609WAT     H165069   9.308   0.308   7.861
21609WAT     H265070   9.173   0.398   7.876
21610WAT      O65071   0.274   8.453   3.860
21610WAT     H165072   0.194   8.514   3.854
21610WAT     H265073   0.292   8.432   3.956
21611WAT      O65074   3.966   4.747   3.809
21611WAT     H165075   4.033   4.728   3.736
21611WAT     H265076   3.999   4.709   3.895
21612WAT      O65077   4.033   5.826   8.457
21612WAT     H165078   4.121   5.850   8.418
21612WAT     H265079   4.024   5.727   8.461
21613WAT      O65080   5.372   2.240   6.621
21613WAT     H165081   5.415   2.316   6.670
21613WAT     H265082   5.441   2.189   6.571
21614WAT      O65083   9.802   2.463   1.731
21614WAT     H165084   9.811   2.425   1.639
21614WAT     H265085   9.792   2.563   1.724
21615WAT      O65086   2.096   5.206   2.520
21615WAT     H165087   2.042   5.256   2.589
21615WAT     H265088   2.048   5.122   2.495
21616WAT      O65089   0.621   5.763   8.509
21616WAT     H165090   0.602   5.744   8.413
21616WAT     H265091   0.720   5.759   8.525
21617WAT      O65092   6.469   9.725   7.619
21617WAT     H165093   6.567   9.736   7.602
21617WAT     H265094   6.455   9.672   7.703
21618WAT      O65095   0.012   8.105   8.386
21618WAT     H165096  -0.032   8.193   8.407
21618WAT     H265097   0.060   8.113   8.299
21619WAT      O65098   4.840   8.793   7.128
21619WAT     H165099   4.790   8.709   7.151
21619WAT     H265100   4.887   8.781   7.041
21620WAT      O65101   1.314   1.345   1.618
21620WAT     H165102   1.288   1.416   1.684
21620WAT     H265103   1.275   1.366   1.529
21621WAT      O65104   7.296   6.545   8.801
21621WAT     H165105   7.250   6.492   8.872
21621WAT     H265106   7.258   6.638   8.799
21622WAT      O65107   9.261   5.439   0.039
21622WAT     H165108   9.258   5.339   0.037
21622WAT     H265109   9.336   5.471  -0.019
21623WAT      O65110   0.347   5.839   2.133
21623WAT     H165111   0.336   5.823   2.034
21623WAT     H265112   0.286   5.912   2.162
21624WAT      O65113   7.142   2.429   7.598
21624WAT     H165114   7.176   2.347   7.645
21624WAT     H265115   7.213   2.462   7.535
21625WAT      O65116   3.445   4.500   2.231
21625WAT     H165117   3.389   4.550   2.297
21625WAT     H265118   3.469   4.560   2.154
21626WAT      O65119   0.658   9.045   6.405
21626WAT     H165120   0.707   9.095   6.334
21626WAT     H265121   0.655   9.101   6.489
21627WAT      O65122   6.214   9.767   6.016
21627WAT     H165123   6.212   9.738   6.111
21627WAT     H265124   6.121   9.785   5.984
21628WAT      O65125   6.050   5.226   7.748
21628WAT     H165126   6.057   5.157   7.820
21628WAT     H265127   5.958   5.264   7.747
21629WAT      O65128   8.559   2.998   0.190
21629WAT     H165129   8.477   2.957   0.231
21629WAT     H265130   8.623   2.925   0.166
21630WAT      O65131   2.890   8.455   5.887
21630WAT     H165132   2.969   8.490   5.837
21630WAT     H265133   2.893   8.355   5.888
21631WAT      O65134   5.977   3.782   3.069
21631WAT     H165135   6.047   3.716   3.043
21631WAT     H265136   5.894   3.766   3.015
21632WAT      O65137   0.305   5.330   3.601
21632WAT     H165138   0.349   5.377   3.678
21632WAT     H265139   0.365   5.332   3.522
21633WAT      O65140   6.492   4.009   1.038
21633WAT     H165141   6.487   4.070   1.117
21633WAT     H265142   6.438   4.048   0.963
21634WAT      O65143   5.300   0.000   3.832
21634WAT     H165144   5.282  -0.009   3.930
21634WAT     H265145   5.214   0.022   3.784
21635WAT      O65146   9.773   7.945   7.846
21635WAT     H165147   9.835   8.023   7.844
21635WAT     H265148   9.783   7.896   7.933
21636WAT      O65149   2.849   4.005   4.681
21636WAT     H165150   2.886   3.953   4.604
21636WAT     H265151   2.921   4.066   4.717
21637WAT      O65152   0.411   2.729   3.011
21637WAT     H165153   0.422   2.767   2.919
21637WAT     H265154   0.499   2.725   3.057
21638WAT      O65155   1.637   7.597   1.926
21638WAT     H165156   1.591   7.673   1.972
21638WAT     H265157   1.571   7.526   1.901
21639WAT      O65158   2.028   7.593   3.945
21639WAT     H165159   2.068   7.514   3.897
21639WAT     H265160   2.058   7.677   3.901
21640WAT      O65161   7.823   6.247   7.742
21640WAT     H165162   7.846   6.152   7.758
21640WAT     H265163   7.767   6.255   7.659
21641WAT      O65164   7.867   4.250   9.069
21641WAT     H165165   7.821   4.264   8.981
21641WAT     H265166   7.909   4.160   9.071
21642WAT      O65167   7.140   6.801   4.477
21642WAT     H165168   7.183   6.803   4.387
21642WAT     H265169   7.062   6.864   4.478
21643WAT      O65170   3.815   8.367   5.621
21643WAT     H165171   3.882   8.295   5.635
21643WAT     H265172   3.723   8.327   5.615
21644WAT      O65173   9.023   9.803   8.649
21644WAT     H165174   8.985   9.803   8.741
21644WAT     H265175   9.066   9.891   8.630
21645WAT      O65176   1.923   5.775   9.016
21645WAT     H165177   1.984   5.697   9.007
21645WAT     H265178   1.911   5.819   8.927
21646WAT      O65179   7.859   2.537   8.730
21646WAT     H165180   7.910   2.452   8.717
21646WAT     H265181   7.923   2.613   8.743
21647WAT      O65182   4.400   8.559   7.192
21647WAT     H165183   4.420   8.461   7.198
21647WAT     H265184   4.304   8.572   7.169
21648WAT      O65185   6.240   2.088   7.476
21648WAT     H165186   6.252   2.077   7.377
21648WAT     H265187   6.293   2.018   7.524
21649WAT      O65188   7.694   9.097   8.029
21649WAT     H165189   7.606   9.076   7.986
21649WAT     H265190   7.752   9.147   7.964
21650WAT      O65191   6.878   1.200   4.821
21650WAT     H165192   6.860   1.146   4.739
21650WAT     H265193   6.975   1.225   4.823
21651WAT      O65194   5.201   5.386   5.844
21651WAT     H165195   5.264   5.309   5.836
21651WAT     H265196   5.247   5.470   5.813
21652WAT      O65197   2.789   6.268   3.932
21652WAT     H165198   2.854   6.197   3.959
21652WAT     H265199   2.738   6.238   3.851
21653WAT      O65200   3.493   8.177   3.779
21653WAT     H165201   3.515   8.207   3.872
21653WAT     H265202   3.549   8.098   3.756
21654WAT      O65203   5.447   7.379   7.121
21654WAT     H165204   5.534   7.425   7.106
21654WAT     H265205   5.457   7.312   7.194
21655WAT      O65206   1.218   6.147   6.806
21655WAT     H165207   1.164   6.215   6.756
21655WAT     H265208   1.314   6.155   6.779
21656WAT      O65209   7.565   3.561   8.533
21656WAT     H165210   7.480   3.537   8.581
21656WAT     H265211   7.559   3.528   8.438
21657WAT      O65212   6.250   1.648   5.411
21657WAT     H165213   6.251   1.692   5.321
21657WAT     H265214   6.309   1.699   5.474
21658WAT      O65215   4.947   8.316   3.445
21658WAT     H165216   5.032   8.333   3.495
21658WAT     H265217   4.869   8.344   3.502
21659WAT      O65218   9.520   4.693   1.980
21659WAT     H165219   9.492   4.651   1.894
21659WAT     H265220   9.440   4.713   2.036
21660WAT      O65221   1.824   2.035   3.241
21660WAT     H165222   1.846   2.039   3.338
21660WAT     H265223   1.802   2.126   3.208
21661WAT      O65224   1.404   0.093   4.524
21661WAT     H165225   1.406   0.183   4.567
21661WAT     H265226   1.348   0.097   4.441
21662WAT      O65227   4.489   0.726   2.652
21662WAT     H165228   4.548   0.647   2.637
21662WAT     H265229   4.398   0.696   2.681
21663WAT      O65230   2.473   7.132   8.576
21663WAT     H165231   2.498   7.075   8.654
21663WAT     H265232   2.394   7.092   8.529
21664WAT      O65233   8.241   6.374   7.207
21664WAT     H165234   8.261   6.390   7.304
21664WAT     H265235   8.282   6.287   7.179
21665WAT      O65236   5.918   7.881   8.842
21665WAT     H165237   5.850   7.900   8.913
21665WAT     H265238   6.006   7.861   8.885
21666WAT      O65239   5.118   5.234   9.703
21666WAT     H165240   5.137   5.161   9.769
21666WAT     H265241   5.199   5.291   9.692
21667WAT      O65242   5.119   9.813   1.406
21667WAT     H165243   5.141   9.876   1.332
21667WAT     H265244   5.190   9.818   1.476
21668WAT      O65245   5.012   6.303   5.369
21668WAT     H165246   5.023   6.299   5.469
21668WAT     H265247   4.954   6.382   5.346
21669WAT      O65248   5.021   7.388   4.813
21669WAT     H165249   5.087   7.324   4.852
21669WAT     H265250   4.928   7.357   4.834
21670WAT      O65251   0.317   4.936   1.195
21670WAT     H165252   0.266   5.012   1.156
21670WAT     H265253   0.271   4.904   1.278
21671WAT      O65254   5.681   4.247   3.450
21671WAT     H165255   5.617   4.250   3.526
21671WAT     H265256   5.630   4.242   3.364
21672WAT      O65257   2.115   9.396   8.803
21672WAT     H165258   2.138   9.305   8.837
21672WAT     H265259   2.199   9.443   8.775
21673WAT      O65260   4.330   5.640   0.322
21673WAT     H165261   4.360   5.614   0.414
21673WAT     H265262   4.398   5.700   0.280
21674WAT      O65263   3.937   7.887   4.901
21674WAT     H165264   4.026   7.864   4.861
21674WAT     H265265   3.915   7.983   4.880
21675WAT      O65266   6.404   8.254   8.612
21675WAT     H165267   6.324   8.253   8.551
21675WAT     H265268   6.486   8.232   8.560
21676WAT      O65269   0.129   5.124   6.727
21676WAT     H165270   0.096   5.213   6.695
21676WAT     H265271   0.147   5.066   6.648
21677WAT      O65272   3.214   2.343   8.562
21677WAT     H165273   3.211   2.432   8.608
21677WAT     H265274   3.132   2.331   8.507
21678WAT      O65275   1.954   0.426   6.765
21678WAT     H165276   1.886   0.395   6.698
21678WAT     H265277   2.021   0.485   6.720
21679WAT      O65278   0.288   9.628   3.908
21679WAT     H165279   0.192   9.618   3.882
21679WAT     H265280   0.346   9.583   3.840
21680WAT      O65281   6.985   3.929   9.434
21680WAT     H165282   7.072   3.889   9.407
21680WAT     H265283   6.989   4.029   9.424
21681WAT      O65284   3.493   5.400   3.401
21681WAT     H165285   3.475   5.315   3.450
21681WAT     H265286   3.554   5.381   3.324
21682WAT      O65287   9.272   0.844   3.928
21682WAT     H165288   9.218   0.811   3.851
21682WAT     H265289   9.293   0.941   3.914
21683WAT      O65290   4.702   9.603   4.172
21683WAT     H165291   4.630   9.564   4.229
21683WAT     H265292   4.685   9.701   4.159
21684WAT      O65293   1.136   5.607   8.050
21684WAT     H165294   1.122   5.646   8.141
21684WAT     H265295   1.232   5.581   8.039
21685WAT      O65296   1.584   5.494   3.389
21685WAT     H165297   1.540   5.442   3.462
21685WAT     H265298   1.545   5.585   3.385
21686WAT      O65299   1.529   4.585   9.884
21686WAT     H165300   1.569   4.563   9.795
21686WAT     H265301   1.444   4.636   9.871
21687WAT      O65302   5.070   3.815   7.763
21687WAT     H165303   4.995   3.835   7.826
21687WAT     H265304   5.052   3.728   7.717
21688WAT      O65305   9.030   3.723   8.665
21688WAT     H165306   8.962   3.674   8.612
21688WAT     H265307   9.055   3.808   8.618
21689WAT      O65308   4.673   8.143   9.467
21689WAT     H165309   4.736   8.130   9.544
21689WAT     H265310   4.597   8.079   9.476
21690WAT      O65311   6.303   3.322   4.339
21690WAT     H165312   6.284   3.340   4.435
21690WAT     H265313   6.327   3.226   4.327
21691WAT      O65314   8.725   0.291   0.695
21691WAT     H165315   8.700   0.318   0.788
21691WAT     H265316   8.664   0.218   0.664
21692WAT      O65317   0.432   6.842   2.843
21692WAT     H165318   0.369   6.858   2.919
21692WAT     H265319   0.379   6.830   2.759
21693WAT      O65320   1.343   8.508   1.272
21693WAT     H165321   1.261   8.514   1.329
21693WAT     H265322   1.375   8.413   1.271
21694WAT      O65323   0.870   2.944   3.407
21694WAT     H165324   0.836   2.851   3.422
21694WAT     H265325   0.959   2.954   3.451
21695WAT      O65326   9.456   7.559   4.815
21695WAT     H165327   9.412   7.625   4.754
21695WAT     H265328   9.460   7.597   4.908
21696WAT      O65329   8.013   8.256   8.900
21696WAT     H165330   8.064   8.179   8.938
21696WAT     H265331   7.965   8.226   8.817
21697WAT      O65332   8.812   2.800   8.258
21697WAT     H165333   8.731   2.842   8.299
21697WAT     H265334   8.821   2.830   8.163
21698WAT      O65335   0.345   3.105   0.845
21698WAT     H165336   0.364   3.203   0.836
21698WAT     H265337   0.431   3.055   0.852
21699WAT      O65338   2.964   3.387   7.181
21699WAT     H165339   2.894   3.390   7.252
21699WAT     H265340   3.030   3.461   7.195
21700WAT      O65341   2.292   2.199   2.128
21700WAT     H165342   2.371   2.141   2.153
21700WAT     H265343   2.234   2.211   2.208
21701WAT      O65344   0.754   9.207   8.607
21701WAT     H165345   0.678   9.158   8.650
21701WAT     H265346   0.839   9.185   8.655
21702WAT      O65347   9.807   5.109   1.957
21702WAT     H165348   9.716   5.075   1.932
21702WAT     H265349   9.837   5.068   2.043
21703WAT      O65350   9.109   1.658   0.734
21703WAT     H165351   9.188   1.612   0.692
21703WAT     H265352   9.031   1.596   0.734
21704WAT      O65353   0.525   5.643   8.971
21704WAT     H165354   0.434   5.683   8.960
21704WAT     H265355   0.519   5.562   9.030
21705WAT      O65356   0.715   2.158   7.454
21705WAT     H165357   0.762   2.158   7.543
21705WAT     H265358   0.780   2.132   7.382
21706WAT      O65359   3.147   5.113   6.212
21706WAT     H165360   3.171   5.021   6.242
21706WAT     H265361   3.226   5.173   6.224
21707WAT      O65362   0.135   7.544   0.161
21707WAT     H165363   0.140   7.449   0.192
21707WAT     H265364   0.181   7.603   0.227
21708WAT      O65365   7.119   0.167   6.145
21708WAT     H165366   7.176   0.101   6.194
21708WAT     H265367   7.032   0.125   6.120
21709WAT      O65368   2.825   0.937   6.474
21709WAT     H165369   2.892   0.865   6.457
21709WAT     H265370   2.871   1.025   6.481
21710WAT      O65371   2.714   6.662   0.888
21710WAT     H165372   2.623   6.675   0.848
21710WAT     H265373   2.772   6.739   0.863
21711WAT      O65374   1.967   9.482   8.055
21711WAT     H165375   1.980   9.394   8.100
21711WAT     H265376   1.893   9.475   7.988
21712WAT      O65377   5.706   8.347   5.163
21712WAT     H165378   5.693   8.260   5.115
21712WAT     H265379   5.641   8.354   5.238
21713WAT      O65380   2.261   6.975   4.637
21713WAT     H165381   2.227   7.001   4.728
21713WAT     H265382   2.359   6.959   4.642
21714WAT      O65383   9.190   6.193   2.788
21714WAT     H165384   9.256   6.245   2.842
21714WAT     H265385   9.171   6.106   2.834
21715WAT      O65386   3.691   4.113   6.955
21715WAT     H165387   3.712   4.167   7.036
21715WAT     H265388   3.770   4.057   6.930
21716WAT      O65389   8.126   4.373   4.023
21716WAT     H165390   8.104   4.279   3.996
21716WAT     H265391   8.135   4.430   3.941
21717WAT      O65392   4.097   7.550   7.399
21717WAT     H165393   4.175   7.493   7.372
21717WAT     H265394   4.127   7.618   7.466
21718WAT      O65395   4.787   4.602   7.743
21718WAT     H165396   4.778   4.522   7.685
21718WAT     H265397   4.872   4.651   7.720
21719WAT      O65398   3.418   8.759   1.293
21719WAT     H165399   3.510   8.731   1.319
21719WAT     H265400   3.416   8.858   1.281
21720WAT      O65401   7.245   7.512   1.527
21720WAT     H165402   7.227   7.501   1.625
21720WAT     H265403   7.158   7.517   1.477
21721WAT      O65404   2.065   3.684   7.347
21721WAT     H165405   1.970   3.665   7.369
21721WAT     H265406   2.100   3.611   7.288
21722WAT      O65407   1.243   9.069   8.612
21722WAT     H165408   1.255   8.970   8.612
21722WAT     H265409   1.260   9.105   8.704
21723WAT      O65410   3.570   7.376   0.764
21723WAT     H165411   3.507   7.319   0.711
21723WAT     H265412   3.556   7.472   0.740
21724WAT      O65413   6.827   6.412   6.481
21724WAT     H165414   6.796   6.464   6.561
21724WAT     H265415   6.873   6.474   6.417
21725WAT      O65416   8.712   2.214   2.847
21725WAT     H165417   8.792   2.259   2.886
21725WAT     H265418   8.714   2.224   2.747
21726WAT      O65419   4.863   7.659   0.247
21726WAT     H165420   4.954   7.620   0.228
21726WAT     H265421   4.838   7.640   0.341
21727WAT      O65422   4.047   8.716   4.251
21727WAT     H165423   4.144   8.701   4.228
21727WAT     H265424   4.034   8.810   4.282
21728WAT      O65425   6.680   5.477   6.884
21728WAT     H165426   6.639   5.507   6.798
21728WAT     H265427   6.648   5.385   6.906
21729WAT      O65428   3.509   5.028   2.568
21729WAT     H165429   3.424   4.978   2.556
21729WAT     H265430   3.505   5.114   2.517
21730WAT      O65431   6.595   5.919   6.456
21730WAT     H165432   6.538   5.900   6.536
21730WAT     H265433   6.558   5.999   6.408
21731WAT      O65434   3.337   2.855   4.826
21731WAT     H165435   3.384   2.770   4.802
21731WAT     H265436   3.338   2.917   4.747
21732WAT      O65437   0.561   7.676   1.620
21732WAT     H165438   0.503   7.598   1.646
21732WAT     H265439   0.610   7.653   1.536
21733WAT      O65440   5.278   1.584   8.722
21733WAT     H165441   5.354   1.521   8.732
21733WAT     H265442   5.301   1.672   8.763
21734WAT      O65443   5.199   4.990   3.361
21734WAT     H165444   5.238   5.016   3.449
21734WAT     H265445   5.268   4.999   3.290
21735WAT      O65446   3.914   7.817   1.591
21735WAT     H165447   3.921   7.912   1.561
21735WAT     H265448   3.982   7.761   1.543
21736WAT      O65449   7.220   0.315   8.151
21736WAT     H165450   7.292   0.268   8.203
21736WAT     H265451   7.131   0.279   8.178
21737WAT      O65452   0.233   4.974   4.234
21737WAT     H165453   0.269   5.024   4.155
21737WAT     H265454   0.217   5.038   4.309
21738WAT      O65455   9.868   4.446   8.300
21738WAT     H165456   9.806   4.516   8.264
21738WAT     H265457   9.822   4.358   8.301
21739WAT      O65458   0.391   5.669   2.337
21739WAT     H165459   0.359   5.734   2.267
21739WAT     H265460   0.490   5.680   2.348
21740WAT      O65461   8.781   3.370   8.108
21740WAT     H165462   8.736   3.285   8.134
21740WAT     H265463   8.872   3.373   8.150
21741WAT      O65464   8.864   1.875   9.271
21741WAT     H165465   8.864   1.867   9.171
21741WAT     H265466   8.874   1.971   9.297
21742WAT      O65467   2.644   5.813   4.316
21742WAT     H165468   2.739   5.797   4.342
21742WAT     H265469   2.641   5.879   4.241
21743WAT      O65470   7.562   9.410   8.185
21743WAT     H165471   7.600   9.458   8.106
21743WAT     H265472   7.627   9.414   8.261
21744WAT      O65473   9.772   8.274   1.578
21744WAT     H165474   9.672   8.281   1.584
21744WAT     H265475   9.796   8.222   1.496
21745WAT      O65476   4.035   6.275   5.853
21745WAT     H165477   4.039   6.184   5.811
21745WAT     H265478   4.121   6.294   5.900
21746WAT      O65479   6.393   5.305   0.690
21746WAT     H165480   6.437   5.294   0.779
21746WAT     H265481   6.353   5.217   0.662
21747WAT      O65482   2.033   9.538   9.027
21747WAT     H165483   2.064   9.502   8.939
21747WAT     H265484   1.951   9.489   9.057
21748WAT      O65485   4.764   1.932   0.527
21748WAT     H165486   4.676   1.952   0.485
21748WAT     H265487   4.760   1.844   0.573
21749WAT      O65488   4.193   0.628   7.674
21749WAT     H165489   4.190   0.647   7.576
21749WAT     H265490   4.186   0.529   7.689
21750WAT      O65491   5.096   2.311   6.071
21750WAT     H165492   5.136   2.287   6.159
21750WAT     H265493   5.020   2.249   6.050
21751WAT      O65494   3.924   8.951   6.483
21751WAT     H165495   3.970   9.003   6.411
21751WAT     H265496   3.923   9.004   6.568
21752WAT      O65497   6.204   1.007   5.373
21752WAT     H165498   6.136   0.998   5.300
21752WAT     H265499   6.288   1.045   5.337
21753WAT      O65500   8.417   3.367   4.490
21753WAT     H165501   8.467   3.376   4.404
21753WAT     H265502   8.468   3.416   4.562
21754WAT      O65503   8.152   1.010   3.907
21754WAT     H165504   8.070   0.962   3.939
21754WAT     H265505   8.152   1.104   3.942
21755WAT      O65506   8.315   9.155   2.077
21755WAT     H165507   8.350   9.104   2.156
21755WAT     H265508   8.264   9.093   2.017
21756WAT      O65509   4.719   6.514   6.896
21756WAT     H165510   4.716   6.430   6.842
21756WAT     H265511   4.796   6.570   6.866
21757WAT      O65512   5.133   8.412   6.225
21757WAT     H165513   5.036   8.430   6.241
21757WAT     H265514   5.189   8.482   6.268
21758WAT      O65515   3.829   0.420   5.526
21758WAT     H165516   3.798   0.325   5.515
21758WAT     H265517   3.925   0.421   5.552
21759WAT      O65518   0.564   8.934   9.033
21759WAT     H165519   0.486   8.989   9.004
21759WAT     H265520   0.577   8.943   9.132
21760WAT      O65521   4.073   8.693   3.516
21760WAT     H165522   4.083   8.612   3.573
21760WAT     H265523   3.980   8.730   3.526
21761WAT      O65524   5.996   0.273   1.990
21761WAT     H165525   6.055   0.284   2.069
21761WAT     H265526   6.018   0.344   1.922
21762WAT      O65527   9.190   8.775   5.449
21762WAT     H165528   9.102   8.728   5.450
21762WAT     H265529   9.232   8.767   5.540
21763WAT      O65530   5.178   5.666   2.738
21763WAT     H165531   5.107   5.627   2.796
21763WAT     H265532   5.251   5.598   2.726
21764WAT      O65533   8.182   7.911   3.018
21764WAT     H165534   8.116   7.895   2.944
21764WAT     H265535   8.188   8.010   3.036
21765WAT      O65536   2.244   3.807   6.666
21765WAT     H165537   2.198   3.783   6.581
21765WAT     H265538   2.326   3.750   6.676
21766WAT      O65539   9.051   8.945   7.355
21766WAT     H165540   9.026   8.912   7.447
21766WAT     H265541   9.125   8.888   7.318
21767WAT      O65542   5.438   4.594   1.081
21767WAT     H165543   5.483   4.671   1.126
21767WAT     H265544   5.457   4.510   1.131
21768WAT      O65545   6.229   4.600   8.899
21768WAT     H165546   6.285   4.521   8.876
21768WAT     H265547   6.255   4.678   8.842
21769WAT      O65548   0.793   0.258   6.023
21769WAT     H165549   0.868   0.194   6.038
21769WAT     H265550   0.711   0.224   6.069
21770WAT      O65551   7.632   5.488   5.139
21770WAT     H165552   7.547   5.529   5.107
21770WAT     H265553   7.611   5.405   5.191
21771WAT      O65554   6.054   6.167   7.291
21771WAT     H165555   6.009   6.111   7.360
21771WAT     H265556   6.099   6.245   7.336
21772WAT      O65557   8.064   7.493   5.569
21772WAT     H165558   8.007   7.483   5.651
21772WAT     H265559   8.040   7.423   5.502
21773WAT      O65560   7.969   2.224   6.635
21773WAT     H165561   7.907   2.163   6.684
21773WAT     H265562   7.956   2.318   6.667
21774WAT      O65563   0.277   7.261   4.908
21774WAT     H165564   0.333   7.221   4.981
21774WAT     H265565   0.298   7.216   4.821
21775WAT      O65566   6.205   7.323   2.745
21775WAT     H165567   6.123   7.313   2.689
21775WAT     H265568   6.286   7.314   2.687
21776WAT      O65569   8.493   7.812   2.275
21776WAT     H165570   8.415   7.751   2.263
21776WAT     H265571   8.507   7.865   2.191
21777WAT      O65572   8.546   3.479   5.327
21777WAT     H165573   8.639   3.450   5.305
21777WAT     H265574   8.507   3.417   5.395
21778WAT      O65575   7.305   6.669   4.022
21778WAT     H165576   7.294   6.727   4.102
21778WAT     H265577   7.378   6.704   3.964
21779WAT      O65578   8.995   8.689   3.060
21779WAT     H165579   8.925   8.619   3.047
21779WAT     H265580   8.963   8.756   3.127
21780WAT      O65581   0.261   7.542   6.007
21780WAT     H165582   0.356   7.573   5.999
21780WAT     H265583   0.215   7.594   6.079
21781WAT      O65584   7.070   1.374   6.932
21781WAT     H165585   7.148   1.354   6.872
21781WAT     H265586   7.099   1.435   7.006
21782WAT      O65587   4.756   4.106   7.191
21782WAT     H165588   4.806   4.187   7.222
21782WAT     H265589   4.659   4.118   7.212
21783WAT      O65590   5.780   8.426   6.868
21783WAT     H165591   5.748   8.427   6.774
21783WAT     H265592   5.701   8.423   6.930
21784WAT      O65593   5.926   6.855   7.963
21784WAT     H165594   5.962   6.771   8.005
21784WAT     H265595   5.948   6.855   7.865
21785WAT      O65596   0.494   8.285   3.793
21785WAT     H165597   0.574   8.327   3.837
21785WAT     H265598   0.411   8.327   3.828
21786WAT      O65599   0.503   9.720   5.863
21786WAT     H165600   0.471   9.626   5.859
21786WAT     H265601   0.588   9.725   5.916
21787WAT      O65602   4.072   1.329   8.606
21787WAT     H165603   4.127   1.406   8.638
21787WAT     H265604   3.978   1.340   8.638
21788WAT      O65605   0.019   4.334   0.727
21788WAT     H165606  -0.059   4.344   0.789
21788WAT     H265607   0.061   4.244   0.741
21789WAT      O65608   3.552   7.473   9.083
21789WAT     H165609   3.457   7.498   9.103
21789WAT     H265610   3.591   7.424   9.161
21790WAT      O65611   0.087   2.156   1.451
21790WAT     H165612   0.161   2.203   1.402
21790WAT     H265613   0.125   2.114   1.534
21791WAT      O65614   8.778   1.834   3.327
21791WAT     H165615   8.790   1.784   3.241
21791WAT     H265616   8.832   1.789   3.399
21792WAT      O65617   8.438   5.969   8.196
21792WAT     H165618   8.500   5.903   8.238
21792WAT     H265619   8.379   5.922   8.130
21793WAT      O65620   0.109   3.780   0.578
21793WAT     H165621   0.060   3.694   0.563
21793WAT     H265622   0.078   3.847   0.511
21794WAT      O65623   6.794   2.284   8.515
21794WAT     H165624   6.870   2.285   8.450
21794WAT     H265625   6.734   2.363   8.497
21795WAT      O65626   6.672   5.503   7.826
21795WAT     H165627   6.574   5.505   7.843
21795WAT     H265628   6.699   5.586   7.777
21796WAT      O65629   3.700   5.108   8.983
21796WAT     H165630   3.692   5.109   8.883
21796WAT     H265631   3.658   5.190   9.021
21797WAT      O65632   5.967   2.611   5.519
21797WAT     H165633   6.003   2.533   5.469
21797WAT     H265634   5.951   2.687   5.456
21798WAT      O65635   7.065   8.180   9.770
21798WAT     H165636   7.161   8.162   9.790
21798WAT     H265637   7.008   8.119   9.825
21799WAT      O65638   1.613   4.212   1.538
21799WAT     H165639   1.690   4.254   1.491
21799WAT     H265640   1.535   4.206   1.476
21800WAT      O65641   0.810   0.198   8.612
21800WAT     H165642   0.772   0.147   8.689
21800WAT     H265643   0.897   0.240   8.639
21801WAT      O65644   4.991   0.254   5.215
21801WAT     H165645   4.960   0.216   5.128
21801WAT     H265646   4.924   0.232   5.286
21802WAT      O65647   6.648   4.806   5.922
21802WAT     H165648   6.596   4.723   5.900
21802WAT     H265649   6.594   4.887   5.902
21803WAT      O65650   6.685   9.306   3.219
21803WAT     H165651   6.740   9.277   3.297
21803WAT     H265652   6.734   9.286   3.135
21804WAT      O65653   7.589   6.231   4.778
21804WAT     H165654   7.624   6.138   4.784
21804WAT     H265655   7.634   6.288   4.847
21805WAT      O65656   6.870   7.429   7.657
21805WAT     H165657   6.770   7.439   7.658
21805WAT     H265658   6.894   7.339   7.623
21806WAT      O65659   1.431   6.018   8.565
21806WAT     H165660   1.507   5.985   8.508
21806WAT     H265661   1.363   5.946   8.575
21807WAT      O65662   6.116   8.679   3.031
21807WAT     H165663   6.103   8.653   3.127
21807WAT     H265664   6.033   8.721   2.996
21808WAT      O65665   0.192   5.736   7.884
21808WAT     H165666   0.238   5.710   7.799
21808WAT     H265667   0.231   5.821   7.918
21809WAT      O65668   5.348   6.015   0.047
21809WAT     H165669   5.382   6.072   0.121
21809WAT     H265670   5.341   5.920   0.078
21810WAT      O65671   4.857   7.746   5.852
21810WAT     H165672   4.762   7.771   5.870
21810WAT     H265673   4.859   7.671   5.785
21811WAT      O65674   1.119   4.675   6.633
21811WAT     H165675   1.160   4.586   6.615
21811WAT     H265676   1.186   4.747   6.611
21812WAT      O65677   7.248   1.491   5.266
21812WAT     H165678   7.166   1.516   5.318
21812WAT     H265679   7.303   1.573   5.249
21813WAT      O65680   1.906   9.687   6.138
21813WAT     H165681   1.944   9.722   6.224
21813WAT     H265682   1.886   9.763   6.076
21814WAT      O65683   8.551   7.243   8.186
21814WAT     H165684   8.577   7.334   8.217
21814WAT     H265685   8.461   7.247   8.142
21815WAT      O65686   3.529   7.969   2.117
21815WAT     H165687   3.435   7.941   2.098
21815WAT     H265688   3.582   7.972   2.033
21816WAT      O65689   8.542   5.333   6.275
21816WAT     H165690   8.554   5.244   6.231
21816WAT     H265691   8.559   5.405   6.208
21817WAT      O65692   8.418   6.513   9.074
21817WAT     H165693   8.396   6.611   9.069
21817WAT     H265694   8.416   6.474   8.982
21818WAT      O65695   1.373   4.818   9.518
21818WAT     H165696   1.365   4.883   9.442
21818WAT     H265697   1.282   4.792   9.549
21819WAT      O65698   1.621   9.713   5.434
21819WAT     H165699   1.576   9.741   5.349
21819WAT     H265700   1.553   9.671   5.495
21820WAT      O65701   5.290   2.585   1.033
21820WAT     H165702   5.246   2.502   1.066
21820WAT     H265703   5.248   2.665   1.076
21821WAT      O65704   6.713   5.991   6.906
21821WAT     H165705   6.711   6.035   6.816
21821WAT     H265706   6.796   5.935   6.914
21822WAT      O65707   5.030   2.577   4.031
21822WAT     H165708   5.048   2.482   4.057
21822WAT     H265709   5.113   2.617   3.991
21823WAT      O65710   3.391   9.680   5.327
21823WAT     H165711   3.389   9.745   5.251
21823WAT     H265712   3.331   9.603   5.305
21824WAT      O65713   1.104   3.479   5.570
21824WAT     H165714   1.048   3.427   5.635
21824WAT     H265715   1.046   3.512   5.496
21825WAT      O65716   2.227   3.953   1.944
21825WAT     H165717   2.134   3.989   1.957
21825WAT     H265718   2.227   3.892   1.864
21826WAT      O65719   3.555   9.152   3.110
21826WAT     H165720   3.591   9.122   3.199
21826WAT     H265721   3.538   9.072   3.052
21827WAT      O65722   8.458   5.310   9.061
21827WAT     H165723   8.455   5.222   9.012
21827WAT     H265724   8.429   5.383   8.999
21828WAT      O65725   7.718   9.144   1.144
21828WAT     H165726   7.741   9.090   1.063
21828WAT     H265727   7.718   9.241   1.120
21829WAT      O65728   2.806   3.259   8.516
21829WAT     H165729   2.763   3.278   8.604
21829WAT     H265730   2.905   3.261   8.525
21830WAT      O65731   3.324   3.777   1.244
21830WAT     H165732   3.415   3.820   1.246
21830WAT     H265733   3.317   3.717   1.165
21831WAT      O65734   7.309   5.864   7.583
21831WAT     H165735   7.352   5.805   7.515
21831WAT     H265736   7.261   5.808   7.651
21832WAT      O65737   2.975   5.981   8.210
21832WAT     H165738   2.899   5.975   8.145
21832WAT     H265739   2.943   5.956   8.301
21833WAT      O65740   4.761   3.993   1.783
21833WAT     H165741   4.816   3.942   1.848
21833WAT     H265742   4.716   4.069   1.830
21834WAT      O65743   7.245   8.963   7.732
21834WAT     H165744   7.264   9.057   7.760
21834WAT     H265745   7.150   8.941   7.753
21835WAT      O65746   8.705   6.810   8.064
21835WAT     H165747   8.763   6.879   8.109
21835WAT     H265748   8.734   6.799   7.969
21836WAT      O65749   3.401   5.826   4.239
21836WAT     H165750   3.452   5.807   4.156
21836WAT     H265751   3.333   5.753   4.254
21837WAT      O65752   9.127   9.577   6.471
21837WAT     H165753   9.215   9.535   6.451
21837WAT     H265754   9.055   9.507   6.465
21838WAT      O65755   7.848   1.728   9.095
21838WAT     H165756   7.842   1.761   9.189
21838WAT     H265757   7.887   1.799   9.037
21839WAT      O65758   4.964   8.618   8.595
21839WAT     H165759   4.998   8.711   8.585
21839WAT     H265760   4.954   8.596   8.692
21840WAT      O65761   0.237   6.164   7.348
21840WAT     H165762   0.323   6.215   7.346
21840WAT     H265763   0.161   6.228   7.357
21841WAT      O65764   4.395   0.649   8.613
21841WAT     H165765   4.463   0.680   8.548
21841WAT     H265766   4.363   0.557   8.587
21842WAT      O65767   1.975   6.766   7.373
21842WAT     H165768   2.021   6.678   7.360
21842WAT     H265769   1.878   6.756   7.353
21843WAT      O65770   5.439   7.852   9.104
21843WAT     H165771   5.525   7.891   9.137
21843WAT     H265772   5.411   7.778   9.165
21844WAT      O65773   2.320   2.511   3.482
21844WAT     H165774   2.341   2.417   3.507
21844WAT     H265775   2.324   2.521   3.382
21845WAT      O65776   2.520   2.671   0.069
21845WAT     H165777   2.424   2.688   0.091
21845WAT     H265778   2.575   2.751   0.090
21846WAT      O65779   2.660   9.650   9.307
21846WAT     H165780   2.738   9.596   9.275
21846WAT     H265781   2.632   9.619   9.398
21847WAT      O65782   0.910   5.817   6.737
21847WAT     H165783   0.935   5.826   6.640
21847WAT     H265784   0.819   5.854   6.752
21848WAT      O65785   5.008   6.031   1.903
21848WAT     H165786   5.065   6.004   1.826
21848WAT     H265787   5.045   5.994   1.988
21849WAT      O65788   0.355   1.564   2.133
21849WAT     H165789   0.302   1.648   2.137
21849WAT     H265790   0.446   1.584   2.095
21850WAT      O65791   1.866   0.469   0.754
21850WAT     H165792   1.817   0.389   0.790
21850WAT     H265793   1.807   0.549   0.758
21851WAT      O65794   0.189   8.946   5.638
21851WAT     H165795   0.221   9.036   5.669
21851WAT     H265796   0.179   8.885   5.716
21852WAT      O65797   9.387   8.005   8.512
21852WAT     H165798   9.306   8.020   8.570
21852WAT     H265799   9.361   8.014   8.416
21853WAT      O65800   7.876   9.624   1.240
21853WAT     H165801   7.843   9.665   1.326
21853WAT     H265802   7.975   9.608   1.248
21854WAT      O65803   3.203   2.438   9.869
21854WAT     H165804   3.126   2.413   9.928
21854WAT     H265805   3.179   2.520   9.816
21855WAT      O65806   9.344   8.326   8.923
21855WAT     H165807   9.248   8.325   8.898
21855WAT     H265808   9.391   8.397   8.872
21856WAT      O65809   8.203   6.254   8.912
21856WAT     H165810   8.176   6.268   9.007
21856WAT     H265811   8.263   6.329   8.883
21857WAT      O65812   2.883   9.468   8.098
21857WAT     H165813   2.947   9.463   8.021
21857WAT     H265814   2.915   9.536   8.164
21858WAT      O65815   3.118   1.632   3.269
21858WAT     H165816   3.054   1.645   3.345
21858WAT     H265817   3.070   1.650   3.183
21859WAT      O65818   8.133   5.988   6.674
21859WAT     H165819   8.150   5.890   6.663
21859WAT     H265820   8.069   6.004   6.749
21860WAT      O65821   2.061   0.412   5.458
21860WAT     H165822   1.971   0.379   5.432
21860WAT     H265823   2.053   0.483   5.528
21861WAT      O65824   8.909   2.832   2.699
21861WAT     H165825   8.822   2.866   2.734
21861WAT     H265826   8.982   2.896   2.723
21862WAT      O65827   6.403   9.696   9.781
21862WAT     H165828   6.388   9.795   9.780
21862WAT     H265829   6.501   9.677   9.784
21863WAT      O65830   1.683   6.027   2.257
21863WAT     H165831   1.589   6.060   2.269
21863WAT     H265832   1.688   5.931   2.283
21864WAT      O65833   8.318   7.340   3.026
21864WAT     H165834   8.323   7.418   2.964
21864WAT     H265835   8.330   7.372   3.121
21865WAT      O65836   3.440   3.449   3.257
21865WAT     H165837   3.436   3.482   3.163
21865WAT     H265838   3.350   3.459   3.299
21866WAT      O65839   3.075   3.138   5.760
21866WAT     H165840   3.104   3.066   5.823
21866WAT     H265841   3.153   3.198   5.739
21867WAT      O65842   9.188   1.496   6.155
21867WAT     H165843   9.183   1.587   6.114
21867WAT     H265844   9.096   1.467   6.183
21868WAT      O65845   9.158   3.337   5.751
21868WAT     H165846   9.117   3.425   5.775
21868WAT     H265847   9.107   3.296   5.675
21869WAT      O65848   4.307   1.807   1.041
21869WAT     H165849   4.257   1.892   1.026
21869WAT     H265850   4.327   1.763   0.953
21870WAT      O65851   6.093   5.829   5.669
21870WAT     H165852   6.061   5.774   5.592
21870WAT     H265853   6.016   5.880   5.708
21871WAT      O65854   4.683   1.184   9.522
21871WAT     H165855   4.596   1.143   9.548
21871WAT     H265856   4.705   1.158   9.428
21872WAT      O65857   4.044   0.262   8.370
21872WAT     H165858   4.026   0.169   8.401
21872WAT     H265859   4.106   0.307   8.434
21873WAT      O65860   9.070   3.765   2.869
21873WAT     H165861   9.136   3.801   2.935
21873WAT     H265862   9.059   3.667   2.883
21874WAT      O65863   2.747   2.287   8.283
21874WAT     H165864   2.699   2.230   8.217
21874WAT     H265865   2.837   2.313   8.247
21875WAT      O65866   8.463   4.109   9.884
21875WAT     H165867   8.422   4.152   9.965
21875WAT     H265868   8.398   4.044   9.845
21876WAT      O65869   0.466   4.352   9.298
21876WAT     H165870   0.497   4.264   9.336
21876WAT     H265871   0.368   4.363   9.316
21877WAT      O65872   1.369   1.794   0.540
21877WAT     H165873   1.357   1.892   0.553
21877WAT     H265874   1.364   1.772   0.442
21878WAT      O65875   6.011   4.353   2.326
21878WAT     H165876   6.064   4.378   2.407
21878WAT     H265877   5.934   4.416   2.316
21879WAT      O65878   2.339   3.229   9.480
21879WAT     H165879   2.379   3.319   9.462
21879WAT     H265880   2.410   3.167   9.513
21880WAT      O65881   8.085   0.186   5.655
21880WAT     H165882   8.182   0.174   5.636
21880WAT     H265883   8.072   0.271   5.707
21881WAT      O65884   1.603   2.249   9.663
21881WAT     H165885   1.564   2.221   9.575
21881WAT     H265886   1.551   2.209   9.738
21882WAT      O65887   1.777   7.036   9.380
21882WAT     H165888   1.821   6.982   9.309
21882WAT     H265889   1.723   6.975   9.439
21883WAT      O65890   5.331   0.645   9.847
21883WAT     H165891   5.389   0.670   9.925
21883WAT     H265892   5.388   0.622   9.768
21884WAT      O65893   9.385   1.890   7.432
21884WAT     H165894   9.396   1.801   7.389
21884WAT     H265895   9.303   1.935   7.397
21885WAT      O65896   2.820   8.181   7.971
21885WAT     H165897   2.906   8.185   7.920
21885WAT     H265898   2.745   8.164   7.908
21886WAT      O65899   7.232   0.868   7.943
21886WAT     H165900   7.235   0.798   7.872
21886WAT     H265901   7.324   0.881   7.981
21887WAT      O65902   3.760   7.835   5.101
21887WAT     H165903   3.804   7.774   5.167
21887WAT     H265904   3.820   7.846   5.022
21888WAT      O65905   6.634   1.335   2.947
21888WAT     H165906   6.677   1.347   2.858
21888WAT     H265907   6.536   1.353   2.939
21889WAT      O65908   4.735   2.770   0.728
21889WAT     H165909   4.675   2.826   0.671
21889WAT     H265910   4.679   2.705   0.780
21890WAT      O65911   7.011   7.408   4.555
21890WAT     H165912   7.093   7.465   4.565
21890WAT     H265913   6.930   7.467   4.552
21891WAT      O65914   2.163   8.892   1.574
21891WAT     H165915   2.257   8.860   1.580
21891WAT     H265916   2.101   8.818   1.601
21892WAT      O65917   4.679   3.466   7.512
21892WAT     H165918   4.767   3.421   7.527
21892WAT     H265919   4.664   3.479   7.414
21893WAT      O65920   8.555   3.014   6.283
21893WAT     H165921   8.609   3.012   6.199
21893WAT     H265922   8.615   3.008   6.362
21894WAT      O65923   1.722   5.567   4.695
21894WAT     H165924   1.750   5.498   4.628
21894WAT     H265925   1.793   5.577   4.764
21895WAT      O65926   9.039   2.532   3.815
21895WAT     H165927   8.999   2.545   3.724
21895WAT     H265928   9.120   2.474   3.808
21896WAT      O65929   7.995   1.312   7.043
21896WAT     H165930   7.995   1.359   6.954
21896WAT     H265931   8.020   1.216   7.030
21897WAT      O65932   4.975   8.116   7.765
21897WAT     H165933   4.922   8.045   7.719
21897WAT     H265934   5.003   8.084   7.856
21898WAT      O65935   3.374   4.459   1.459
21898WAT     H165936   3.470   4.464   1.487
21898WAT     H265937   3.357   4.372   1.413
21899WAT      O65938   3.362   4.564   6.132
21899WAT     H165939   3.376   4.630   6.058
21899WAT     H265940   3.271   4.575   6.171
21900WAT      O65941   5.630   0.528   0.833
21900WAT     H165942   5.581   0.611   0.806
21900WAT     H265943   5.622   0.516   0.932
21901WAT      O65944   9.713   3.590   5.786
21901WAT     H165945   9.790   3.528   5.768
21901WAT     H265946   9.658   3.599   5.704
21902WAT      O65947   9.578   6.873   6.668
21902WAT     H165948   9.538   6.894   6.578
21902WAT     H265949   9.592   6.958   6.719
21903WAT      O65950   1.299   3.335   4.112
21903WAT     H165951   1.362   3.282   4.055
21903WAT     H265952   1.269   3.416   4.062
21904WAT      O65953   4.864   4.808   3.867
21904WAT     H165954   4.935   4.847   3.808
21904WAT     H265955   4.891   4.821   3.963
21905WAT      O65956   2.532   2.740   2.707
21905WAT     H165957   2.440   2.777   2.713
21905WAT     H265958   2.582   2.785   2.633
21906WAT      O65959   5.952   7.183   1.364
21906WAT     H165960   6.005   7.131   1.432
21906WAT     H265961   5.922   7.269   1.405
21907WAT      O65962   5.498   0.664   0.168
21907WAT     H165963   5.471   0.612   0.249
21907WAT     H265964   5.590   0.702   0.182
21908WAT      O65965   1.440   7.039   8.564
21908WAT     H165966   1.522   7.063   8.512
21908WAT     H265967   1.415   6.944   8.547
21909WAT      O65968   0.401   3.000   4.273
21909WAT     H165969   0.416   3.094   4.305
21909WAT     H265970   0.310   2.993   4.231
21910WAT      O65971   6.014   9.605   2.109
21910WAT     H165972   5.969   9.666   2.174
21910WAT     H265973   5.953   9.588   2.032
21911WAT      O65974   4.153   5.829   1.979
21911WAT     H165975   4.148   5.758   1.909
21911WAT     H265976   4.178   5.788   2.066
21912WAT      O65977   2.110   1.696   0.677
21912WAT     H165978   2.097   1.683   0.775
21912WAT     H265979   2.049   1.769   0.645
21913WAT      O65980   3.110   1.800   3.639
21913WAT     H165981   3.065   1.886   3.663
21913WAT     H265982   3.049   1.746   3.580
21914WAT      O65983   3.263   5.364   5.877
21914WAT     H165984   3.165   5.372   5.896
21914WAT     H265985   3.285   5.416   5.794
21915WAT      O65986   9.003   5.800   6.821
21915WAT     H165987   8.946   5.810   6.902
21915WAT     H265988   9.097   5.781   6.848
21916WAT      O65989   9.458   3.779   1.858
21916WAT     H165990   9.434   3.837   1.936
21916WAT     H265991   9.408   3.692   1.865
21917WAT      O65992   9.677   0.136   3.692
21917WAT     H165993   9.706   0.201   3.763
21917WAT     H265994   9.646   0.187   3.612
21918WAT      O65995   2.423   3.710   0.760
21918WAT     H165996   2.429   3.626   0.706
21918WAT     H265997   2.486   3.779   0.723
21919WAT      O65998   2.362   5.524   0.462
21919WAT     H165999   2.400   5.617   0.456
21919WAT     H266000   2.293   5.521   0.535
21920WAT      O66001   6.588   8.739   9.051
21920WAT     H166002   6.591   8.833   9.084
21920WAT     H266003   6.681   8.703   9.043
21921WAT      O66004   7.893   5.500   7.928
21921WAT     H166005   7.940   5.413   7.941
21921WAT     H266006   7.869   5.538   8.017
21922WAT      O66007   8.150   3.622   0.902
21922WAT     H166008   8.081   3.553   0.880
21922WAT     H266009   8.127   3.708   0.855
21923WAT      O66010   8.432   5.640   3.389
21923WAT     H166011   8.426   5.726   3.440
21923WAT     H266012   8.430   5.659   3.291
21924WAT      O66013   7.260   5.948   5.720
21924WAT     H166014   7.324   5.890   5.771
21924WAT     H266015   7.288   5.951   5.624
21925WAT      O66016   6.360   4.915   5.389
21925WAT     H166017   6.414   4.995   5.359
21925WAT     H266018   6.343   4.922   5.487
21926WAT      O66019   1.773   7.122   8.660
21926WAT     H166020   1.847   7.189   8.657
21926WAT     H266021   1.738   7.106   8.568
21927WAT      O66022   4.212   5.247   4.867
21927WAT     H166023   4.269   5.301   4.928
21927WAT     H266024   4.256   5.240   4.778
21928WAT      O66025   8.585   0.260   3.979
21928WAT     H166026   8.542   0.340   3.937
21928WAT     H266027   8.525   0.224   4.050
21929WAT      O66028   0.895   3.650   5.108
21929WAT     H166029   0.839   3.570   5.132
21929WAT     H266030   0.851   3.733   5.143
21930WAT      O66031   7.790   7.310   9.274
21930WAT     H166032   7.725   7.235   9.281
21930WAT     H266033   7.768   7.380   9.341
21931WAT      O66034   2.867   0.626   5.689
21931WAT     H166035   2.768   0.623   5.706
21931WAT     H266036   2.889   0.708   5.636
21932WAT      O66037   6.972   0.068   8.428
21932WAT     H166038   6.939   0.019   8.347
21932WAT     H266039   6.913   0.046   8.506
21933WAT      O66040   5.789   1.677   2.753
21933WAT     H166041   5.882   1.679   2.718
21933WAT     H266042   5.727   1.644   2.682
21934WAT      O66043   6.821   2.634   3.125
21934WAT     H166044   6.881   2.560   3.093
21934WAT     H266045   6.877   2.706   3.166
21935WAT      O66046   7.806   8.414   0.159
21935WAT     H166047   7.861   8.333   0.137
21935WAT     H266048   7.858   8.496   0.134
21936WAT      O66049   2.961   6.264   0.300
21936WAT     H166050   2.910   6.186   0.266
21936WAT     H266051   2.951   6.341   0.237
21937WAT      O66052   3.457   0.930   2.123
21937WAT     H166053   3.409   0.846   2.099
21937WAT     H266054   3.428   0.960   2.214
21938WAT      O66055   8.123   2.094   9.344
21938WAT     H166056   8.217   2.062   9.330
21938WAT     H266057   8.076   2.032   9.408
21939WAT      O66058   4.495   1.430   1.615
21939WAT     H166059   4.490   1.337   1.578
21939WAT     H266060   4.457   1.431   1.707
21940WAT      O66061   8.906   4.587   2.709
21940WAT     H166062   8.953   4.533   2.639
21940WAT     H266063   8.970   4.609   2.783
21941WAT      O66064   0.735   5.227   7.983
21941WAT     H166065   0.687   5.222   8.070
21941WAT     H266066   0.791   5.310   7.979
21942WAT      O66067   7.670   8.483   8.082
21942WAT     H166068   7.767   8.491   8.062
21942WAT     H266069   7.644   8.386   8.083
21943WAT      O66070   3.207   0.644   0.995
21943WAT     H166071   3.145   0.694   0.935
21943WAT     H266072   3.301   0.664   0.969
21944WAT      O66073   8.897   9.444   8.390
21944WAT     H166074   8.903   9.487   8.481
21944WAT     H266075   8.862   9.511   8.325
21945WAT      O66076   2.150   7.138   4.821
21945WAT     H166077   2.209   7.091   4.887
21945WAT     H266078   2.157   7.237   4.835
21946WAT      O66079   3.792   8.899   6.128
21946WAT     H166080   3.759   8.982   6.084
21946WAT     H266081   3.875   8.919   6.180
21947WAT      O66082   5.634   4.722   2.790
21947WAT     H166083   5.660   4.729   2.694
21947WAT     H266084   5.712   4.746   2.847
21948WAT      O66085   7.060   8.032   2.544
21948WAT     H166086   6.975   7.982   2.564
21948WAT     H266087   7.120   7.974   2.488
21949WAT      O66088   4.546   3.951   0.799
21949WAT     H166089   4.448   3.935   0.794
21949WAT     H266090   4.565   4.048   0.786
21950WAT      O66091   9.803   1.434   1.880
21950WAT     H166092   9.750   1.412   1.798
21950WAT     H266093   9.868   1.360   1.898
21951WAT      O66094   6.126   2.147   1.707
21951WAT     H166095   6.136   2.161   1.608
21951WAT     H266096   6.216   2.130   1.747
21952WAT      O66097   2.910   5.512   8.030
21952WAT     H166098   2.988   5.559   7.989
21952WAT     H266099   2.829   5.571   8.025
21953WAT      O66100   3.005   8.857   9.812
21953WAT     H166101   2.909   8.885   9.817
21953WAT     H266102   3.040   8.870   9.719
21954WAT      O66103   4.398   9.768   5.894
21954WAT     H166104   4.320   9.810   5.847
21954WAT     H266105   4.469   9.746   5.827
21955WAT      O66106   8.449   1.007   0.715
21955WAT     H166107   8.439   1.106   0.704
21955WAT     H266108   8.544   0.981   0.702
21956WAT      O66109   5.043   9.471   0.989
21956WAT     H166110   5.016   9.514   1.076
21956WAT     H266111   5.045   9.540   0.917
21957WAT      O66112   5.938   0.036   1.475
21957WAT     H166113   5.990   0.103   1.528
21957WAT     H266114   5.858   0.007   1.528
21958WAT      O66115   5.643   2.966   9.089
21958WAT     H166116   5.605   3.009   9.007
21958WAT     H266117   5.729   3.011   9.114
21959WAT      O66118   5.953   4.511   4.079
21959WAT     H166119   6.004   4.441   4.028
21959WAT     H266120   6.018   4.571   4.127
21960WAT      O66121   1.788   1.554   7.384
21960WAT     H166122   1.804   1.558   7.286
21960WAT     H266123   1.818   1.639   7.427
21961WAT      O66124   5.654   3.509   3.964
21961WAT     H166125   5.696   3.537   4.050
21961WAT     H266126   5.626   3.590   3.913
21962WAT      O66127   1.639   2.142   7.693
21962WAT     H166128   1.737   2.124   7.704
21962WAT     H266129   1.591   2.056   7.676
21963WAT      O66130   9.436   1.531   9.097
21963WAT     H166131   9.407   1.524   9.193
21963WAT     H266132   9.432   1.441   9.055
21964WAT      O66133   4.785   6.005   9.144
21964WAT     H166134   4.703   6.028   9.196
21964WAT     H266135   4.843   6.086   9.135
21965WAT      O66136   6.397   1.864   1.657
21965WAT     H166137   6.432   1.894   1.568
21965WAT     H266138   6.306   1.825   1.646
21966WAT      O66139   0.820   6.797   2.716
21966WAT     H166140   0.772   6.752   2.791
21966WAT     H266141   0.866   6.728   2.660
21967WAT      O66142   2.611   2.984   9.157
21967WAT     H166143   2.547   3.059   9.140
21967WAT     H266144   2.682   2.983   9.086
21968WAT      O66145   1.052   3.675   5.345
21968WAT     H166146   1.033   3.650   5.250
21968WAT     H266147   1.052   3.774   5.354
21969WAT      O66148   3.483   6.529   2.182
21969WAT     H166149   3.384   6.541   2.184
21969WAT     H266150   3.527   6.596   2.242
21970WAT      O66151   5.889   6.594   8.270
21970WAT     H166152   5.890   6.557   8.363
21970WAT     H266153   5.794   6.606   8.240
21971WAT      O66154   2.501   9.524   5.392
21971WAT     H166155   2.401   9.534   5.390
21971WAT     H266156   2.541   9.601   5.442
21972WAT      O66157   4.648   2.448   8.407
21972WAT     H166158   4.579   2.520   8.402
21972WAT     H266159   4.627   2.386   8.483
21973WAT      O66160   3.616   4.598   1.316
21973WAT     H166161   3.683   4.567   1.383
21973WAT     H266162   3.556   4.522   1.291
21974WAT      O66163   6.447   4.218   1.266
21974WAT     H166164   6.456   4.273   1.182
21974WAT     H266165   6.483   4.270   1.344
21975WAT      O66166   8.270   6.117   4.757
21975WAT     H166167   8.358   6.100   4.713
21975WAT     H266168   8.202   6.052   4.724
21976WAT      O66169   0.969   5.037   5.606
21976WAT     H166170   1.028   5.117   5.598
21976WAT     H266171   1.004   4.978   5.679
21977WAT      O66172   1.854   7.048   8.011
21977WAT     H166173   1.888   7.126   8.065
21977WAT     H266174   1.929   6.985   7.994
21978WAT      O66175   5.904   9.030   5.255
21978WAT     H166176   6.001   9.030   5.231
21978WAT     H266177   5.879   8.940   5.291
21979WAT      O66178   4.161   3.000   8.341
21979WAT     H166179   4.091   2.939   8.304
21979WAT     H266180   4.141   3.094   8.315
21980WAT      O66181   0.301   5.578   9.566
21980WAT     H166182   0.400   5.564   9.573
21980WAT     H266183   0.278   5.670   9.597
21981WAT      O66184   9.030   7.698   4.908
21981WAT     H166185   9.012   7.669   4.814
21981WAT     H266186   9.122   7.738   4.913
21982WAT      O66187   9.869   3.185   0.828
21982WAT     H166188   9.785   3.236   0.808
21982WAT     H266189   9.855   3.128   0.909
21983WAT      O66190   0.707   3.502   6.165
21983WAT     H166191   0.805   3.496   6.186
21983WAT     H266192   0.683   3.596   6.142
21984WAT      O66193   2.454   6.355   7.965
21984WAT     H166194   2.473   6.449   7.938
21984WAT     H266195   2.539   6.302   7.964
21985WAT      O66196   9.841   3.254   1.354
21985WAT     H166197   9.761   3.197   1.332
21985WAT     H266198   9.827   3.299   1.442
21986WAT      O66199   3.078   6.017   2.080
21986WAT     H166200   2.996   6.022   2.137
21986WAT     H266201   3.102   6.109   2.048
21987WAT      O66202   8.267   7.971   1.066
21987WAT     H166203   8.278   7.890   1.008
21987WAT     H266204   8.294   8.053   1.015
21988WAT      O66205   6.590   9.782   7.181
21988WAT     H166206   6.617   9.686   7.191
21988WAT     H266207   6.511   9.800   7.239
21989WAT      O66208   3.237   6.197   6.988
21989WAT     H166209   3.239   6.295   6.971
21989WAT     H266210   3.330   6.162   6.992
21990WAT      O66211   3.385   6.194   5.834
21990WAT     H166212   3.477   6.211   5.798
21990WAT     H266213   3.321   6.261   5.797
21991WAT      O66214   3.410   7.933   9.626
21991WAT     H166215   3.402   7.985   9.542
21991WAT     H266216   3.327   7.946   9.681
21992WAT      O66217   2.012   3.113   2.091
21992WAT     H166218   2.032   3.017   2.113
21992WAT     H266219   1.968   3.118   2.001
21993WAT      O66220   8.087   0.665   3.091
21993WAT     H166221   8.175   0.713   3.089
21993WAT     H266222   8.015   0.727   3.060
21994WAT      O66223   6.717   3.991   8.176
21994WAT     H166224   6.631   3.958   8.215
21994WAT     H266225   6.699   4.073   8.121
21995WAT      O66226   3.013   3.746   1.990
21995WAT     H166227   3.058   3.805   2.056
21995WAT     H266228   3.081   3.702   1.932
21996WAT      O66229   0.658   8.903   0.020
21996WAT     H166230   0.672   8.967   0.095
21996WAT     H266231   0.745   8.889  -0.029
21997WAT      O66232   6.275   3.575   8.118
21997WAT     H166233   6.316   3.657   8.078
21997WAT     H266234   6.289   3.575   8.217
21998WAT      O66235   5.386   1.349   1.191
21998WAT     H166236   5.362   1.253   1.206
21998WAT     H266237   5.340   1.405   1.260
21999WAT      O66238   3.237   2.009   9.242
21999WAT     H166239   3.234   1.910   9.258
21999WAT     H266240   3.288   2.053   9.316
22000WAT      O66241   9.309   1.078   3.127
22000WAT     H166242   9.252   1.160   3.135
22000WAT     H266243   9.404   1.105   3.116
22001WAT      O66244   9.734   2.246   4.678
22001WAT     H166245   9.746   2.344   4.666
22001WAT     H266246   9.783   2.197   4.605
22002WAT      O66247   1.697   6.572   6.313
22002WAT     H166248   1.700   6.614   6.222
22002WAT     H266249   1.632   6.497   6.313
22003WAT      O66250   3.973   3.712   5.227
22003WAT     H166251   3.885   3.677   5.196
22003WAT     H266252   4.022   3.641   5.277
22004WAT      O66253   2.043   4.889   0.189
22004WAT     H166254   2.118   4.909   0.126
22004WAT     H266255   2.000   4.975   0.217
22005WAT      O66256   8.911   5.235   2.643
22005WAT     H166257   8.963   5.245   2.558
22005WAT     H266258   8.939   5.152   2.690
22006WAT      O66259   6.385   9.566   5.122
22006WAT     H166260   6.382   9.558   5.221
22006WAT     H266261   6.393   9.475   5.082
22007WAT      O66262   6.817   8.848   6.728
22007WAT     H166263   6.730   8.828   6.684
22007WAT     H266264   6.815   8.939   6.769
22008WAT      O66265   6.002   5.731   4.479
22008WAT     H166266   6.007   5.809   4.417
22008WAT     H266267   5.965   5.652   4.430
22009WAT      O66268   8.818   7.451   1.023
22009WAT     H166269   8.885   7.517   1.058
22009WAT     H266270   8.731   7.464   1.070
22010WAT      O66271   9.443   2.643   0.920
22010WAT     H166272   9.421   2.577   0.993
22010WAT     H266273   9.470   2.730   0.962
22011WAT      O66274   2.083   7.540   7.357
22011WAT     H166275   2.122   7.458   7.315
22011WAT     H266276   1.993   7.560   7.318
22012WAT      O66277   8.352   8.796   0.358
22012WAT     H166278   8.403   8.868   0.311
22012WAT     H266279   8.412   8.750   0.423
22013WAT      O66280   3.110   4.485   2.427
22013WAT     H166281   3.027   4.488   2.371
22013WAT     H266282   3.117   4.395   2.470
22014WAT      O66283   5.357   3.479   0.845
22014WAT     H166284   5.344   3.553   0.779
22014WAT     H266285   5.422   3.509   0.915
22015WAT      O66286   6.807   2.283   9.471
22015WAT     H166287   6.716   2.286   9.430
22015WAT     H266288   6.865   2.353   9.430
22016WAT      O66289   6.840   1.692   4.188
22016WAT     H166290   6.749   1.662   4.163
22016WAT     H266291   6.854   1.677   4.286
22017WAT      O66292   0.975   0.559   2.815
22017WAT     H166293   0.984   0.467   2.851
22017WAT     H266294   1.031   0.622   2.869
22018WAT      O66295   2.841   3.155   3.822
22018WAT     H166296   2.861   3.105   3.907
22018WAT     H266297   2.863   3.098   3.744
22019WAT      O66298   1.754   9.671   4.619
22019WAT     H166299   1.831   9.637   4.672
22019WAT     H266300   1.729   9.762   4.653
22020WAT      O66301   6.768   8.548   7.352
22020WAT     H166302   6.750   8.571   7.448
22020WAT     H266303   6.838   8.611   7.316
22021WAT      O66304   3.288   7.580   9.793
22021WAT     H166305   3.198   7.622   9.784
22021WAT     H266306   3.279   7.481   9.785
22022WAT      O66307   7.557   5.225   3.951
22022WAT     H166308   7.459   5.213   3.968
22022WAT     H266309   7.570   5.276   3.866
22023WAT      O66310   0.645   0.676   5.230
22023WAT     H166311   0.579   0.641   5.163
22023WAT     H266312   0.629   0.631   5.318
22024WAT      O66313   4.099   9.188   3.771
22024WAT     H166314   4.008   9.230   3.767
22024WAT     H266315   4.108   9.120   3.698
22025WAT      O66316   6.712   9.728   5.263
22025WAT     H166317   6.684   9.653   5.323
22025WAT     H266318   6.631   9.770   5.222
22026WAT      O66319   4.828   8.160   9.190
22026WAT     H166320   4.800   8.142   9.284
22026WAT     H266321   4.771   8.107   9.127
22027WAT      O66322   8.545   0.054   8.951
22027WAT     H166323   8.603   0.041   9.030
22027WAT     H266324   8.481  -0.022   8.943
22028WAT      O66325   2.719   8.570   2.151
22028WAT     H166326   2.789   8.551   2.219
22028WAT     H266327   2.663   8.488   2.137
22029WAT      O66328   5.601   6.848   1.409
22029WAT     H166329   5.687   6.840   1.358
22029WAT     H266330   5.577   6.759   1.448
22030WAT      O66331   9.142   5.944   8.311
22030WAT     H166332   9.046   5.918   8.315
22030WAT     H266333   9.197   5.875   8.359
22031WAT      O66334   9.433   6.354   1.868
22031WAT     H166335   9.440   6.282   1.937
22031WAT     H266336   9.337   6.373   1.849
22032WAT      O66337   9.888   7.163   2.300
22032WAT     H166338   9.794   7.197   2.302
22032WAT     H266339   9.947   7.223   2.355
22033WAT      O66340   2.135   9.158   1.627
22033WAT     H166341   2.145   9.058   1.621
22033WAT     H266342   2.141   9.186   1.723
22034WAT      O66343   0.751   9.488   3.133
22034WAT     H166344   0.763   9.574   3.083
22034WAT     H266345   0.662   9.449   3.110
22035WAT      O66346   2.484   6.970   3.301
22035WAT     H166347   2.386   6.953   3.304
22035WAT     H266348   2.532   6.885   3.277
22036WAT      O66349   7.576   2.484   8.926
22036WAT     H166350   7.581   2.473   8.826
22036WAT     H266351   7.553   2.396   8.968
22037WAT      O66352   0.774   0.685   1.633
22037WAT     H166353   0.848   0.686   1.700
22037WAT     H266354   0.766   0.775   1.591
22038WAT      O66355   8.560   5.550   4.913
22038WAT     H166356   8.514   5.472   4.957
22038WAT     H266357   8.512   5.634   4.937
22039WAT      O66358   7.725   8.827   8.569
22039WAT     H166359   7.665   8.841   8.649
22039WAT     H266360   7.810   8.878   8.582
22040WAT      O66361   6.110   7.112   3.924
22040WAT     H166362   6.065   7.166   3.994
22040WAT     H266363   6.207   7.136   3.921
22041WAT      O66364   7.593   9.398   4.668
22041WAT     H166365   7.555   9.368   4.581
22041WAT     H266366   7.522   9.444   4.721
22042WAT      O66367   7.408   3.247   7.426
22042WAT     H166368   7.331   3.190   7.396
22042WAT     H266369   7.423   3.320   7.359
22043WAT      O66370   3.663   9.549   3.621
22043WAT     H166371   3.567   9.574   3.636
22043WAT     H266372   3.680   9.541   3.523
22044WAT      O66373   0.629   9.151   4.782
22044WAT     H166374   0.597   9.234   4.737
22044WAT     H266375   0.707   9.114   4.732
22045WAT      O66376   4.688   0.417   4.115
22045WAT     H166377   4.632   0.384   4.191
22045WAT     H266378   4.629   0.444   4.039
22046WAT      O66379   3.217   0.910   9.618
22046WAT     H166380   3.276   0.882   9.543
22046WAT     H266381   3.230   1.007   9.638
22047WAT      O66382   1.410   5.140   8.991
22047WAT     H166383   1.354   5.058   8.999
22047WAT     H266384   1.368   5.203   8.926
22048WAT      O66385   9.046   3.108   6.869
22048WAT     H166386   9.017   3.102   6.964
22048WAT     H266387   9.033   3.201   6.835
22049WAT      O66388   9.322   6.755   1.382
22049WAT     H166389   9.275   6.674   1.418
22049WAT     H266390   9.411   6.764   1.426
22050WAT      O66391   7.363   5.069   7.054
22050WAT     H166392   7.276   5.119   7.049
22050WAT     H266393   7.352   4.979   7.013
22051WAT      O66394   8.792   0.125   3.875
22051WAT     H166395   8.712   0.174   3.909
22051WAT     H266396   8.875   0.175   3.902
22052WAT      O66397   7.022   5.121   7.761
22052WAT     H166398   6.937   5.154   7.721
22052WAT     H266399   7.035   5.163   7.851
22053WAT      O66400   6.485   9.187   0.873
22053WAT     H166401   6.511   9.093   0.851
22053WAT     H266402   6.541   9.250   0.820
22054WAT      O66403   4.229   1.836   4.219
22054WAT     H166404   4.144   1.790   4.244
22054WAT     H266405   4.296   1.824   4.292
22055WAT      O66406   4.968   4.128   1.353
22055WAT     H166407   4.941   4.098   1.261
22055WAT     H266408   5.067   4.140   1.356
22056WAT      O66409   3.095   9.745   0.117
22056WAT     H166410   3.169   9.681   0.098
22056WAT     H266411   3.078   9.801   0.036
22057WAT      O66412   1.692   6.429   7.666
22057WAT     H166413   1.725   6.396   7.577
22057WAT     H266414   1.645   6.354   7.714
22058WAT      O66415   1.213   4.310   8.893
22058WAT     H166416   1.152   4.390   8.888
22058WAT     H266417   1.164   4.230   8.857
22059WAT      O66418   9.533   6.834   2.412
22059WAT     H166419   9.623   6.842   2.370
22059WAT     H266420   9.487   6.752   2.377
22060WAT      O66421   0.646   2.603   5.450
22060WAT     H166422   0.705   2.666   5.400
22060WAT     H266423   0.699   2.523   5.478
22061WAT      O66424   5.121   3.286   1.147
22061WAT     H166425   5.036   3.280   1.198
22061WAT     H266426   5.115   3.361   1.080
22062WAT      O66427   5.528   1.487   0.192
22062WAT     H166428   5.502   1.537   0.110
22062WAT     H266429   5.522   1.548   0.271
22063WAT      O66430   9.756   0.411   5.996
22063WAT     H166431   9.755   0.452   6.087
22063WAT     H266432   9.714   0.474   5.931
22064WAT      O66433   2.088   7.386   5.105
22064WAT     H166434   2.184   7.370   5.126
22064WAT     H266435   2.072   7.484   5.096
22065WAT      O66436   7.931   8.740   7.866
22065WAT     H166437   7.858   8.783   7.920
22065WAT     H266438   7.923   8.768   7.771
22066WAT      O66439   4.504   1.441   9.761
22066WAT     H166440   4.597   1.409   9.778
22066WAT     H266441   4.504   1.541   9.753
22067WAT      O66442   9.763   0.790   1.449
22067WAT     H166443   9.756   0.889   1.438
22067WAT     H266444   9.860   0.764   1.456
22068WAT      O66445   6.595   3.727   6.661
22068WAT     H166446   6.576   3.630   6.672
22068WAT     H266447   6.511   3.779   6.678
22069WAT      O66448   5.146   2.595   2.772
22069WAT     H166449   5.124   2.536   2.849
22069WAT     H266450   5.061   2.621   2.725
22070WAT      O66451   9.381   0.790   3.207
22070WAT     H166452   9.455   0.791   3.139
22070WAT     H266453   9.333   0.878   3.206
22071WAT      O66454   3.926   4.120   2.471
22071WAT     H166455   3.992   4.194   2.485
22071WAT     H266456   3.939   4.082   2.380
22072WAT      O66457   0.725   6.749   5.172
22072WAT     H166458   0.649   6.733   5.236
22072WAT     H266459   0.725   6.845   5.145
22073WAT      O66460   1.926   4.772   7.563
22073WAT     H166461   1.833   4.748   7.534
22073WAT     H266462   1.958   4.850   7.508
22074WAT      O66463   2.827   4.903   4.944
22074WAT     H166464   2.877   4.953   4.873
22074WAT     H266465   2.886   4.895   5.025
22075WAT      O66466   4.175   1.890   7.491
22075WAT     H166467   4.132   1.802   7.472
22075WAT     H266468   4.104   1.960   7.501
22076WAT      O66469   9.672   9.382   5.079
22076WAT     H166470   9.700   9.459   5.135
22076WAT     H266471   9.612   9.413   5.006
22077WAT      O66472   6.350   2.642   4.366
22077WAT     H166473   6.363   2.556   4.416
22077WAT     H266474   6.255   2.672   4.377
22078WAT      O66475   4.523   7.207   0.495
22078WAT     H166476   4.580   7.125   0.505
22078WAT     H266477   4.490   7.213   0.401
22079WAT      O66478   0.012   7.617   8.899
22079WAT     H166479   0.032   7.522   8.920
22079WAT     H266480  -0.065   7.648   8.955
22080WAT      O66481   7.985   7.447   2.221
22080WAT     H166482   7.941   7.357   2.214
22080WAT     H266483   8.024   7.457   2.312
22081WAT      O66484   5.128   5.173   2.513
22081WAT     H166485   5.137   5.075   2.534
22081WAT     H266486   5.214   5.206   2.475
22082WAT      O66487   9.041   3.635   1.846
22082WAT     H166488   8.957   3.654   1.796
22082WAT     H266489   9.068   3.717   1.898
22083WAT      O66490   5.919   5.420   0.772
22083WAT     H166491   5.942   5.397   0.677
22083WAT     H266492   5.918   5.337   0.827
22084WAT      O66493   5.719   1.097   8.604
22084WAT     H166494   5.779   1.127   8.679
22084WAT     H266495   5.715   1.170   8.535
22085WAT      O66496   5.744   9.076   0.713
22085WAT     H166497   5.683   9.085   0.634
22085WAT     H266498   5.802   8.995   0.701
22086WAT      O66499   1.149   2.887   6.021
22086WAT     H166500   1.129   2.795   6.056
22086WAT     H266501   1.211   2.934   6.084
22087WAT      O66502   2.438   7.452   8.139
22087WAT     H166503   2.516   7.460   8.201
22087WAT     H266504   2.391   7.540   8.133
22088WAT      O66505   2.303   5.255   1.722
22088WAT     H166506   2.281   5.294   1.633
22088WAT     H266507   2.219   5.245   1.775
22089WAT      O66508   8.556   6.100   7.396
22089WAT     H166509   8.514   6.084   7.486
22089WAT     H266510   8.601   6.189   7.395
22090WAT      O66511   4.674   5.332   4.588
22090WAT     H166512   4.634   5.305   4.500
22090WAT     H266513   4.764   5.372   4.573
22091WAT      O66514   4.674   3.219   8.520
22091WAT     H166515   4.630   3.176   8.440
22091WAT     H266516   4.771   3.234   8.500
22092WAT      O66517   4.775   3.815   1.141
22092WAT     H166518   4.719   3.796   1.060
22092WAT     H266519   4.802   3.728   1.183
22093WAT      O66520   4.354   5.470   7.228
22093WAT     H166521   4.387   5.407   7.157
22093WAT     H266522   4.335   5.419   7.311
22094WAT      O66523   0.760   7.244   6.137
22094WAT     H166524   0.688   7.216   6.201
22094WAT     H266525   0.723   7.311   6.073
22095WAT      O66526   9.699   3.993   2.838
22095WAT     H166527   9.763   4.064   2.866
22095WAT     H266528   9.737   3.940   2.763
22096WAT      O66529   1.626   2.730   4.209
22096WAT     H166530   1.643   2.750   4.305
22096WAT     H266531   1.712   2.736   4.158
22097WAT      O66532   8.284   6.030   3.104
22097WAT     H166533   8.244   6.117   3.077
22097WAT     H266534   8.338   5.992   3.028
22098WAT      O66535   1.911   3.740   1.677
22098WAT     H166536   1.937   3.649   1.708
22098WAT     H266537   1.840   3.733   1.607
22099WAT      O66538   6.977   4.399   7.250
22099WAT     H166539   6.972   4.300   7.233
22099WAT     H266540   6.905   4.445   7.199
22100WAT      O66541   7.429   6.899   7.921
22100WAT     H166542   7.331   6.894   7.901
22100WAT     H266543   7.467   6.807   7.925
22101WAT      O66544   2.691   0.276   9.859
22101WAT     H166545   2.597   0.296   9.829
22101WAT     H266546   2.693   0.189   9.907
22102WAT      O66547   9.888   6.802   6.963
22102WAT     H166548   9.950   6.838   7.033
22102WAT     H266549   9.825   6.737   7.006
22103WAT      O66550   6.838   7.846   3.825
22103WAT     H166551   6.765   7.894   3.777
22103WAT     H266552   6.926   7.869   3.783
22104WAT      O66553   2.675   0.534   4.864
22104WAT     H166554   2.703   0.629   4.845
22104WAT     H266555   2.754   0.474   4.854
22105WAT      O66556   4.705   7.332   3.693
22105WAT     H166557   4.624   7.378   3.657
22105WAT     H266558   4.685   7.291   3.781
22106WAT      O66559   6.593   5.606   7.108
22106WAT     H166560   6.645   5.581   7.027
22106WAT     H266561   6.510   5.550   7.114
22107WAT      O66562   7.991   3.090   9.599
22107WAT     H166563   7.981   3.158   9.527
22107WAT     H266564   8.086   3.085   9.628
22108WAT      O66565   3.937   4.743   1.024
22108WAT     H166566   3.865   4.794   1.071
22108WAT     H266567   3.901   4.704   0.940
22109WAT      O66568   9.520   1.724   8.419
22109WAT     H166569   9.427   1.751   8.441
22109WAT     H266570   9.519   1.637   8.369
22110WAT      O66571   8.085   5.714   4.232
22110WAT     H166572   7.997   5.716   4.183
22110WAT     H266573   8.155   5.759   4.177
22111WAT      O66574   9.174   8.662   0.290
22111WAT     H166575   9.108   8.736   0.285
22111WAT     H266576   9.266   8.699   0.301
22112WAT      O66577   8.556   8.017   2.085
22112WAT     H166578   8.518   8.052   2.000
22112WAT     H266579   8.647   8.054   2.099
22113WAT      O66580   6.839   3.023   0.632
22113WAT     H166581   6.800   3.077   0.557
22113WAT     H266582   6.767   2.967   0.674
22114WAT      O66583   7.494   9.272   1.868
22114WAT     H166584   7.499   9.195   1.931
22114WAT     H266585   7.432   9.249   1.792
22115WAT      O66586   3.387   2.605   3.747
22115WAT     H166587   3.291   2.577   3.750
22115WAT     H266588   3.400   2.675   3.677
22116WAT      O66589   7.389   5.585   4.661
22116WAT     H166590   7.438   5.546   4.584
22116WAT     H266591   7.421   5.678   4.678
22117WAT      O66592   1.858   3.689   6.866
22117WAT     H166593   1.955   3.682   6.890
22117WAT     H266594   1.803   3.693   6.950
22118WAT      O66595   1.237   7.793   8.067
22118WAT     H166596   1.217   7.749   7.979
22118WAT     H266597   1.158   7.784   8.127
22119WAT      O66598   6.389   2.055   2.408
22119WAT     H166599   6.469   2.027   2.461
22119WAT     H266600   6.381   1.998   2.326
22120WAT      O66601   4.004   8.344   4.605
22120WAT     H166602   4.063   8.425   4.597
22120WAT     H266603   4.035   8.287   4.681
22121WAT      O66604   0.495   2.439   3.926
22121WAT     H166605   0.558   2.428   4.002
22121WAT     H266606   0.494   2.534   3.896
22122WAT      O66607   8.485   1.446   2.229
22122WAT     H166608   8.516   1.540   2.217
22122WAT     H266609   8.457   1.409   2.140
22123WAT      O66610   8.426   5.160   0.993
22123WAT     H166611   8.408   5.161   1.091
22123WAT     H266612   8.508   5.106   0.975
22124WAT      O66613   2.869   9.418   0.918
22124WAT     H166614   2.805   9.450   0.848
22124WAT     H266615   2.867   9.318   0.923
22125WAT      O66616   3.675   2.048   2.653
22125WAT     H166617   3.758   2.056   2.708
22125WAT     H266618   3.653   1.951   2.640
22126WAT      O66619   7.019   0.142   0.664
22126WAT     H166620   7.069   0.071   0.713
22126WAT     H266621   7.079   0.185   0.597
22127WAT      O66622   0.877   6.069   8.494
22127WAT     H166623   0.941   6.054   8.570
22127WAT     H266624   0.785   6.085   8.530
22128WAT      O66625   8.010   3.842   0.359
22128WAT     H166626   7.999   3.885   0.269
22128WAT     H266627   7.920   3.826   0.400
22129WAT      O66628   1.307   9.305   1.424
22129WAT     H166629   1.399   9.331   1.394
22129WAT     H266630   1.254   9.388   1.440
22130WAT      O66631   5.158   5.704   1.726
22130WAT     H166632   5.112   5.672   1.644
22130WAT     H266633   5.251   5.665   1.730
22131WAT      O66634   3.385   3.778   6.073
22131WAT     H166635   3.306   3.828   6.038
22131WAT     H266636   3.468   3.815   6.031
22132WAT      O66637   3.261   1.432   4.561
22132WAT     H166638   3.219   1.408   4.473
22132WAT     H266639   3.220   1.517   4.595
22133WAT      O66640   0.106   4.791   5.588
22133WAT     H166641   0.152   4.792   5.499
22133WAT     H266642   0.053   4.875   5.599
22134WAT      O66643   7.409   1.646   7.237
22134WAT     H166644   7.388   1.588   7.158
22134WAT     H266645   7.326   1.695   7.265
22135WAT      O66646   4.915   2.868   6.186
22135WAT     H166647   4.985   2.806   6.150
22135WAT     H266648   4.930   2.880   6.284
22136WAT      O66649   7.197   6.473   1.860
22136WAT     H166650   7.159   6.511   1.775
22136WAT     H266651   7.200   6.544   1.930
22137WAT      O66652   9.866   4.041   3.197
22137WAT     H166653   9.854   4.050   3.296
22137WAT     H266654   9.943   4.096   3.168
22138WAT      O66655   3.181   4.286   6.315
22138WAT     H166656   3.162   4.334   6.229
22138WAT     H266657   3.241   4.208   6.298
22139WAT      O66658   5.889   6.379   0.303
22139WAT     H166659   5.958   6.450   0.296
22139WAT     H266660   5.881   6.332   0.215
22140WAT      O66661   1.655   0.743   7.116
22140WAT     H166662   1.659   0.690   7.031
22140WAT     H266663   1.744   0.786   7.134
22141WAT      O66664   4.276   7.001   7.993
22141WAT     H166665   4.280   7.040   7.901
22141WAT     H266666   4.336   7.053   8.053
22142WAT      O66667   0.425   3.549   4.903
22142WAT     H166668   0.482   3.585   4.829
22142WAT     H266669   0.478   3.484   4.957
22143WAT      O66670   2.254   5.898   0.292
22143WAT     H166671   2.201   5.863   0.369
22143WAT     H266672   2.345   5.857   0.292
22144WAT      O66673   6.174   6.429   4.531
22144WAT     H166674   6.183   6.463   4.625
22144WAT     H266675   6.185   6.330   4.530
22145WAT      O66676   1.063   2.938   3.111
22145WAT     H166677   1.038   2.918   3.205
22145WAT     H266678   1.152   2.985   3.109
22146WAT      O66679   1.583   5.479   1.373
22146WAT     H166680   1.559   5.384   1.349
22146WAT     H266681   1.682   5.487   1.381
22147WAT      O66682   6.397   1.274   5.480
22147WAT     H166683   6.446   1.260   5.394
22147WAT     H266684   6.439   1.220   5.552
22148WAT      O66685   2.472   3.415   8.206
22148WAT     H166686   2.542   3.366   8.153
22148WAT     H266687   2.513   3.498   8.246
22149WAT      O66688   1.680   6.734   0.581
22149WAT     H166689   1.642   6.769   0.666
22149WAT     H266690   1.711   6.640   0.594
22150WAT      O66691   3.002   7.027   1.044
22150WAT     H166692   3.041   6.961   1.107
22150WAT     H266693   2.956   7.099   1.096
22151WAT      O66694   0.501   8.886   2.225
22151WAT     H166695   0.472   8.908   2.132
22151WAT     H266696   0.426   8.902   2.289
22152WAT      O66697   8.001   4.929   2.518
22152WAT     H166698   8.033   5.021   2.494
22152WAT     H266699   7.902   4.931   2.534
22153WAT      O66700   4.268   4.916   3.998
22153WAT     H166701   4.206   4.839   4.007
22153WAT     H266702   4.339   4.893   3.931
22154WAT      O66703   9.242   3.870   7.571
22154WAT     H166704   9.275   3.784   7.531
22154WAT     H266705   9.289   3.886   7.657
22155WAT      O66706   0.736   3.188   7.569
22155WAT     H166707   0.775   3.272   7.531
22155WAT     H266708   0.656   3.161   7.516
22156WAT      O66709   3.706   2.315   2.148
22156WAT     H166710   3.740   2.409   2.155
22156WAT     H266711   3.772   2.258   2.099
22157WAT      O66712   0.953   0.969   1.636
22157WAT     H166713   0.944   0.937   1.541
22157WAT     H266714   0.945   1.069   1.638
22158WAT      O66715   5.221   4.795   8.778
22158WAT     H166716   5.213   4.823   8.682
22158WAT     H266717   5.181   4.704   8.789
22159WAT      O66718   7.031   8.351   0.902
22159WAT     H166719   6.983   8.435   0.875
22159WAT     H266720   7.086   8.318   0.825
22160WAT      O66721   3.176   5.661   2.803
22160WAT     H166722   3.187   5.580   2.745
22160WAT     H266723   3.167   5.633   2.899
22161WAT      O66724   6.982   2.006   1.319
22161WAT     H166725   6.895   1.971   1.353
22161WAT     H266726   7.050   2.003   1.392
22162WAT      O66727   4.483   4.126   5.949
22162WAT     H166728   4.411   4.171   6.001
22162WAT     H266729   4.547   4.195   5.914
22163WAT      O66730   5.582   1.182   4.105
22163WAT     H166731   5.594   1.135   4.017
22163WAT     H266732   5.554   1.276   4.088
22164WAT      O66733   2.814   4.521   4.723
22164WAT     H166734   2.862   4.594   4.674
22164WAT     H266735   2.745   4.480   4.664
22165WAT      O66736   4.460   9.291   4.893
22165WAT     H166737   4.553   9.261   4.872
22165WAT     H266738   4.401   9.212   4.907
22166WAT      O66739   7.305   6.153   3.191
22166WAT     H166740   7.354   6.074   3.228
22166WAT     H266741   7.314   6.230   3.253
22167WAT      O66742   0.798   5.148   1.298
22167WAT     H166743   0.786   5.228   1.357
22167WAT     H266744   0.895   5.135   1.278
22168WAT      O66745   8.747   5.403   9.173
22168WAT     H166746   8.792   5.458   9.102
22168WAT     H266747   8.652   5.433   9.182
22169WAT      O66748   5.464   2.704   6.427
22169WAT     H166749   5.553   2.661   6.413
22169WAT     H266750   5.426   2.674   6.515
22170WAT      O66751   5.485   7.369   7.746
22170WAT     H166752   5.534   7.322   7.820
22170WAT     H266753   5.471   7.305   7.670
22171WAT      O66754   0.579   3.132   9.882
22171WAT     H166755   0.511   3.124   9.955
22171WAT     H266756   0.643   3.206   9.905
22172WAT      O66757   7.196   5.212   6.849
22172WAT     H166758   7.271   5.154   6.818
22172WAT     H266759   7.126   5.217   6.778
22173WAT      O66760   3.786   3.298   9.223
22173WAT     H166761   3.812   3.205   9.249
22173WAT     H266762   3.868   3.351   9.202
22174WAT      O66763   7.849   9.030   5.624
22174WAT     H166764   7.865   9.117   5.671
22174WAT     H266765   7.934   9.001   5.579
22175WAT      O66766   0.255   1.748   3.637
22175WAT     H166767   0.165   1.705   3.631
22175WAT     H266768   0.243   1.845   3.660
22176WAT      O66769   6.112   3.440   3.304
22176WAT     H166770   6.141   3.479   3.217
22176WAT     H266771   6.042   3.499   3.346
22177WAT      O66772   3.799   0.907   5.690
22177WAT     H166773   3.875   0.858   5.647
22177WAT     H266774   3.816   0.914   5.788
22178WAT      O66775   6.664   9.341   5.579
22178WAT     H166776   6.752   9.298   5.598
22178WAT     H266777   6.595   9.270   5.564
22179WAT      O66778   8.508   8.588   6.912
22179WAT     H166779   8.505   8.630   7.003
22179WAT     H266780   8.416   8.581   6.875
22180WAT      O66781   3.246   3.608   7.921
22180WAT     H166782   3.251   3.510   7.903
22180WAT     H266783   3.281   3.626   8.014
22181WAT      O66784   5.321   1.043   0.876
22181WAT     H166785   5.329   0.997   0.788
22181WAT     H266786   5.364   1.133   0.871
22182WAT      O66787   1.599   5.949   7.950
22182WAT     H166788   1.639   6.015   8.013
22182WAT     H266789   1.607   5.984   7.856
22183WAT      O66790   3.128   9.710   6.867
22183WAT     H166791   3.030   9.727   6.877
22183WAT     H266792   3.165   9.675   6.953
22184WAT      O66793   4.188   8.170   8.519
22184WAT     H166794   4.133   8.132   8.594
22184WAT     H266795   4.222   8.095   8.462
22185WAT      O66796   7.527   9.595   0.979
22185WAT     H166797   7.512   9.622   0.884
22185WAT     H266798   7.529   9.676   1.037
22186WAT      O66799   5.183   5.697   8.132
22186WAT     H166800   5.104   5.755   8.150
22186WAT     H266801   5.202   5.640   8.212
22187WAT      O66802   1.474   6.134   6.664
22187WAT     H166803   1.465   6.233   6.655
22187WAT     H266804   1.438   6.090   6.582
22188WAT      O66805   5.660   7.688   8.946
22188WAT     H166806   5.746   7.652   8.910
22188WAT     H266807   5.634   7.636   9.028
22189WAT      O66808   6.281   2.176   6.080
22189WAT     H166809   6.261   2.205   6.174
22189WAT     H266810   6.266   2.077   6.073
22190WAT      O66811   3.282   9.182   5.447
22190WAT     H166812   3.265   9.270   5.401
22190WAT     H266813   3.199   9.153   5.496
22191WAT      O66814   0.278   2.123   3.314
22191WAT     H166815   0.350   2.175   3.269
22191WAT     H266816   0.287   2.026   3.291
22192WAT      O66817   0.678   4.842   0.162
22192WAT     H166818   0.720   4.933   0.158
22192WAT     H266819   0.685   4.798   0.073
22193WAT      O66820   6.773   4.717   5.698
22193WAT     H166821   6.739   4.772   5.775
22193WAT     H266822   6.772   4.621   5.724
22194WAT      O66823   3.948   4.097   7.501
22194WAT     H166824   3.922   4.028   7.568
22194WAT     H266825   3.977   4.180   7.549
22195WAT      O66826   4.320   6.052   3.146
22195WAT     H166827   4.368   5.967   3.166
22195WAT     H266828   4.314   6.107   3.230
22196WAT      O66829   4.474   7.103   7.260
22196WAT     H166830   4.425   7.016   7.272
22196WAT     H266831   4.493   7.143   7.350
22197WAT      O66832   9.541   5.914   6.274
22197WAT     H166833   9.481   5.872   6.341
22197WAT     H266834   9.529   6.014   6.275
22198WAT      O66835   8.179   7.296   1.829
22198WAT     H166836   8.266   7.259   1.796
22198WAT     H266837   8.178   7.395   1.816
22199WAT      O66838   2.825   3.162   2.161
22199WAT     H166839   2.889   3.089   2.137
22199WAT     H266840   2.792   3.148   2.255
22200WAT      O66841   6.158   3.110   5.961
22200WAT     H166842   6.066   3.144   5.981
22200WAT     H266843   6.223   3.186   5.960
22201WAT      O66844   3.863   3.941   5.288
22201WAT     H166845   3.858   3.841   5.289
22201WAT     H266846   3.831   3.976   5.376
22202WAT      O66847   3.622   6.365   9.746
22202WAT     H166848   3.585   6.409   9.664
22202WAT     H266849   3.554   6.302   9.783
22203WAT      O66850   3.074   5.239   0.019
22203WAT     H166851   3.018   5.253  -0.063
22203WAT     H266852   3.167   5.214  -0.008
22204WAT      O66853   3.886   0.208   4.705
22204WAT     H166854   3.856   0.179   4.614
22204WAT     H266855   3.956   0.145   4.739
22205WAT      O66856   1.022   6.395   3.781
22205WAT     H166857   0.969   6.314   3.755
22205WAT     H266858   0.997   6.471   3.721
22206WAT      O66859   8.522   0.086   0.191
22206WAT     H166860   8.611   0.042   0.206
22206WAT     H266861   8.475   0.098   0.278
22207WAT      O66862   1.088   4.162   6.381
22207WAT     H166863   1.150   4.118   6.316
22207WAT     H266864   1.136   4.173   6.469
22208WAT      O66865   1.012   3.409   0.278
22208WAT     H166866   1.066   3.434   0.358
22208WAT     H266867   0.938   3.474   0.266
22209WAT      O66868   8.781   2.083   2.239
22209WAT     H166869   8.833   2.095   2.154
22209WAT     H266870   8.835   2.029   2.304
22210WAT      O66871   9.046   8.316   8.814
22210WAT     H166872   9.002   8.226   8.822
22210WAT     H266873   9.048   8.343   8.718
22211WAT      O66874   3.183   8.109   2.451
22211WAT     H166875   3.200   8.206   2.470
22211WAT     H266876   3.269   8.066   2.422
22212WAT      O66877   1.157   6.734   5.352
22212WAT     H166878   1.088   6.806   5.351
22212WAT     H266879   1.159   6.688   5.263
22213WAT      O66880   0.663   2.021   4.175
22213WAT     H166881   0.606   2.008   4.094
22213WAT     H266882   0.752   2.059   4.147
22214WAT      O66883   3.084   3.184   4.820
22214WAT     H166884   3.078   3.099   4.870
22214WAT     H266885   3.149   3.245   4.864
22215WAT      O66886   8.995   8.549   7.979
22215WAT     H166887   8.966   8.473   8.039
22215WAT     H266888   9.078   8.590   8.016
22216WAT      O66889   7.773   4.058   0.910
22216WAT     H166890   7.700   4.081   0.974
22216WAT     H266891   7.861   4.064   0.958
22217WAT      O66892   1.508   6.440   4.037
22217WAT     H166893   1.424   6.412   3.991
22217WAT     H266894   1.511   6.399   4.128
22218WAT      O66895   2.396   4.392   5.935
22218WAT     H166896   2.332   4.364   6.008
22218WAT     H266897   2.388   4.490   5.920
22219WAT      O66898   4.071   9.715   5.556
22219WAT     H166899   4.105   9.630   5.515
22219WAT     H266900   3.976   9.730   5.527
22220WAT      O66901   0.520   9.109   5.272
22220WAT     H166902   0.559   9.161   5.347
22220WAT     H266903   0.524   9.011   5.294
22221WAT      O66904   6.411   7.181   8.612
22221WAT     H166905   6.329   7.231   8.585
22221WAT     H266906   6.417   7.096   8.559
22222WAT      O66907   1.022   5.809   7.070
22222WAT     H166908   1.093   5.872   7.037
22222WAT     H266909   1.015   5.731   7.008
22223WAT      O66910   7.769   0.865   4.449
22223WAT     H166911   7.695   0.877   4.382
22223WAT     H266912   7.776   0.948   4.506
22224WAT      O66913   6.754   5.628   2.218
22224WAT     H166914   6.780   5.721   2.245
22224WAT     H266915   6.774   5.565   2.293
22225WAT      O66916   3.355   3.485   2.970
22225WAT     H166917   3.311   3.400   2.940
22225WAT     H266918   3.321   3.561   2.914
22226WAT      O66919   9.728   7.336   2.875
22226WAT     H166920   9.736   7.246   2.833
22226WAT     H266921   9.803   7.350   2.940
22227WAT      O66922   1.504   1.690   3.479
22227WAT     H166923   1.564   1.717   3.403
22227WAT     H266924   1.558   1.647   3.551
22228WAT      O66925   1.452   9.082   5.522
22228WAT     H166926   1.525   9.115   5.582
22228WAT     H266927   1.363   9.104   5.562
22229WAT      O66928   2.604   6.258   0.764
22229WAT     H166929   2.698   6.230   0.785
22229WAT     H266930   2.547   6.177   0.749
22230WAT      O66931   0.821   2.645   0.190
22230WAT     H166932   0.774   2.576   0.246
22230WAT     H266933   0.838   2.607   0.098
22231WAT      O66934   5.661   5.577   8.123
22231WAT     H166935   5.656   5.608   8.029
22231WAT     H266936   5.575   5.533   8.149
22232WAT      O66937   4.865   7.742   4.278
22232WAT     H166938   4.903   7.726   4.187
22232WAT     H266939   4.866   7.656   4.330
22233WAT      O66940   4.871   0.608   9.635
22233WAT     H166941   4.811   0.643   9.564
22233WAT     H266942   4.898   0.514   9.612
22234WAT      O66943   1.808   5.654   4.204
22234WAT     H166944   1.874   5.693   4.140
22234WAT     H266945   1.842   5.664   4.298
22235WAT      O66946   3.719   8.038   4.698
22235WAT     H166947   3.800   8.057   4.643
22235WAT     H266948   3.641   8.020   4.637
22236WAT      O66949   9.863   9.178   6.982
22236WAT     H166950   9.874   9.277   6.985
22236WAT     H266951   9.953   9.135   6.970
22237WAT      O66952   6.469   0.532   2.552
22237WAT     H166953   6.510   0.441   2.556
22237WAT     H266954   6.413   0.540   2.470
22238WAT      O66955   2.343   1.469   8.746
22238WAT     H166956   2.304   1.395   8.690
22238WAT     H266957   2.344   1.441   8.842
22239WAT      O66958   9.666   6.847   2.862
22239WAT     H166959   9.736   6.797   2.811
22239WAT     H266960   9.584   6.859   2.806
22240WAT      O66961   4.903   5.596   7.297
22240WAT     H166962   4.804   5.604   7.289
22240WAT     H266963   4.925   5.535   7.374
22241WAT      O66964   2.064   8.638   6.219
22241WAT     H166965   2.076   8.570   6.292
22241WAT     H266966   2.134   8.623   6.149
22242WAT      O66967   8.106   0.751   9.794
22242WAT     H166968   8.130   0.762   9.698
22242WAT     H266969   8.142   0.664   9.828
22243WAT      O66970   1.210   2.211   2.956
22243WAT     H166971   1.300   2.239   2.923
22243WAT     H266972   1.164   2.289   2.998
22244WAT      O66973   9.479   8.543   4.018
22244WAT     H166974   9.491   8.447   4.042
22244WAT     H266975   9.387   8.573   4.044
22245WAT      O66976   5.922   6.014   9.743
22245WAT     H166977   5.823   6.011   9.730
22245WAT     H266978   5.943   6.001   9.840
22246WAT      O66979   8.196   1.265   4.012
22246WAT     H166980   8.273   1.315   3.974
22246WAT     H266981   8.192   1.279   4.111
22247WAT      O66982   2.579   6.851   3.814
22247WAT     H166983   2.558   6.753   3.813
22247WAT     H266984   2.499   6.902   3.845
22248WAT      O66985   6.145   8.869   0.857
22248WAT     H166986   6.049   8.891   0.874
22248WAT     H266987   6.163   8.774   0.882
22249WAT      O66988   5.134   4.913   7.330
22249WAT     H166989   5.062   4.857   7.372
22249WAT     H266990   5.222   4.890   7.372
22250WAT      O66991   5.551   8.429   3.150
22250WAT     H166992   5.492   8.467   3.220
22250WAT     H266993   5.565   8.331   3.167
22251WAT      O66994   6.997   9.007   6.090
22251WAT     H166995   6.965   9.102   6.089
22251WAT     H266996   7.074   8.998   6.026
22252WAT      O66997   4.934   0.868   3.111
22252WAT     H166998   5.020   0.898   3.153
22252WAT     H266999   4.951   0.840   3.016
22253WAT      O67000   0.389   5.616   8.613
22253WAT     H167001   0.402   5.517   8.612
22253WAT     H267002   0.473   5.660   8.582
22254WAT      O67003   0.246   9.026   8.548
22254WAT     H167004   0.183   8.963   8.502
22254WAT     H267005   0.195   9.102   8.588
22255WAT      O67006   0.267   3.424   5.433
22255WAT     H167007   0.269   3.457   5.339
22255WAT     H267008   0.265   3.324   5.433
22256WAT      O67009   2.972   7.926   7.966
22256WAT     H167010   2.988   7.914   8.064
22256WAT     H267011   3.055   7.960   7.922
22257WAT      O67012   5.545   2.190   0.251
22257WAT     H167013   5.489   2.109   0.266
22257WAT     H267014   5.520   2.261   0.316
22258WAT      O67015   1.716   3.186   6.837
22258WAT     H167016   1.778   3.258   6.806
22258WAT     H267017   1.768   3.112   6.880
22259WAT      O67018   1.553   9.816   9.252
22259WAT     H167019   1.501   9.815   9.338
22259WAT     H267020   1.493   9.789   9.177
22260WAT      O67021   3.962   4.362   1.260
22260WAT     H167022   3.897   4.377   1.186
22260WAT     H267023   4.013   4.277   1.243
22261WAT      O67024   8.040   7.798   2.810
22261WAT     H167025   8.106   7.812   2.737
22261WAT     H267026   8.003   7.705   2.804
22262WAT      O67027   7.303   4.913   4.711
22262WAT     H167028   7.396   4.889   4.684
22262WAT     H267029   7.306   4.984   4.782
22263WAT      O67030   9.703   4.714   5.537
22263WAT     H167031   9.791   4.675   5.510
22263WAT     H267032   9.706   4.739   5.634
22264WAT      O67033   7.048   2.759   6.285
22264WAT     H167034   7.081   2.668   6.311
22264WAT     H267035   7.098   2.791   6.205
22265WAT      O67036   5.254   2.346   5.593
22265WAT     H167037   5.288   2.253   5.601
22265WAT     H267038   5.234   2.381   5.685
22266WAT      O67039   9.084   3.373   9.238
22266WAT     H167040   9.050   3.465   9.218
22266WAT     H267041   9.077   3.316   9.156
22267WAT      O67042   7.882   3.606   3.138
22267WAT     H167043   7.970   3.652   3.150
22267WAT     H267044   7.890   3.536   3.068
22268WAT      O67045   1.727   6.277   1.956
22268WAT     H167046   1.777   6.270   1.869
22268WAT     H267047   1.663   6.200   1.963
22269WAT      O67048   9.386   3.196   9.514
22269WAT     H167049   9.469   3.234   9.556
22269WAT     H267050   9.371   3.239   9.425
22270WAT      O67051   7.159   8.148   1.211
22270WAT     H167052   7.146   8.118   1.306
22270WAT     H267053   7.182   8.245   1.209
22271WAT      O67054   0.421   3.236   1.260
22271WAT     H167055   0.475   3.156   1.288
22271WAT     H267056   0.348   3.252   1.327
22272WAT      O67057   1.110   4.586   1.447
22272WAT     H167058   1.022   4.543   1.470
22272WAT     H267059   1.184   4.521   1.463
22273WAT      O67060   8.893   2.777   9.841
22273WAT     H167061   8.965   2.709   9.830
22273WAT     H267062   8.903   2.824   9.929
22274WAT      O67063   6.521   1.937   6.059
22274WAT     H167064   6.472   1.973   6.138
22274WAT     H267065   6.572   2.010   6.014
22275WAT      O67066   8.559   9.313   1.518
22275WAT     H167067   8.554   9.280   1.612
22275WAT     H267068   8.623   9.391   1.513
22276WAT      O67069   1.039   2.790   0.282
22276WAT     H167070   0.960   2.747   0.238
22276WAT     H267071   1.012   2.830   0.369
22277WAT      O67072   0.814   3.652   3.324
22277WAT     H167073   0.804   3.623   3.419
22277WAT     H267074   0.856   3.743   3.321
22278WAT      O67075   7.131   2.308   4.319
22278WAT     H167076   7.053   2.370   4.309
22278WAT     H267077   7.101   2.214   4.302
22279WAT      O67078   1.587   6.085   0.678
22279WAT     H167079   1.638   6.057   0.759
22279WAT     H267080   1.646   6.139   0.618
22280WAT      O67081   5.974   4.165   6.312
22280WAT     H167082   6.050   4.213   6.266
22280WAT     H267083   5.948   4.217   6.394
22281WAT      O67084   8.320   5.192   3.153
22281WAT     H167085   8.290   5.098   3.136
22281WAT     H267086   8.411   5.206   3.113
22282WAT      O67087   8.257   2.380   1.308
22282WAT     H167088   8.232   2.349   1.216
22282WAT     H267089   8.175   2.414   1.354
22283WAT      O67090   7.658   1.741   2.508
22283WAT     H167091   7.687   1.646   2.498
22283WAT     H267092   7.578   1.757   2.449
22284WAT      O67093   7.307   6.743   8.312
22284WAT     H167094   7.362   6.699   8.383
22284WAT     H267095   7.349   6.831   8.288
22285WAT      O67096   3.621   4.609   3.361
22285WAT     H167097   3.678   4.614   3.443
22285WAT     H267098   3.662   4.545   3.297
22286WAT      O67099   6.784   6.357   9.667
22286WAT     H167100   6.717   6.428   9.645
22286WAT     H267101   6.845   6.343   9.589
22287WAT      O67102   4.731   1.462   1.468
22287WAT     H167103   4.730   1.541   1.407
22287WAT     H267104   4.654   1.468   1.531
22288WAT      O67105   3.455   2.309   3.345
22288WAT     H167106   3.479   2.378   3.277
22288WAT     H267107   3.482   2.341   3.436
22289WAT      O67108   0.844   4.042   0.141
22289WAT     H167109   0.852   3.949   0.105
22289WAT     H267110   0.784   4.041   0.222
22290WAT      O67111   2.109   6.939   8.023
22290WAT     H167112   2.161   7.008   7.972
22290WAT     H267113   2.161   6.911   8.104
22291WAT      O67114   3.397   3.387   2.031
22291WAT     H167115   3.451   3.470   2.042
22291WAT     H267116   3.449   3.319   1.980
22292WAT      O67117   0.539   2.207   3.735
22292WAT     H167118   0.618   2.164   3.779
22292WAT     H267119   0.516   2.291   3.784
22293WAT      O67120   1.121   4.244   2.122
22293WAT     H167121   1.138   4.269   2.026
22293WAT     H267122   1.131   4.145   2.133
22294WAT      O67123   2.910   5.335   9.692
22294WAT     H167124   2.953   5.407   9.638
22294WAT     H267125   2.842   5.375   9.754
22295WAT      O67126   3.427   9.733   5.596
22295WAT     H167127   3.399   9.718   5.501
22295WAT     H267128   3.503   9.672   5.618
22296WAT      O67129   9.396   0.776   2.553
22296WAT     H167130   9.401   0.811   2.646
22296WAT     H267131   9.312   0.807   2.509
22297WAT      O67132   1.030   0.557   5.505
22297WAT     H167133   1.052   0.652   5.480
22297WAT     H267134   0.970   0.557   5.585
22298WAT      O67135   8.350   7.104   6.822
22298WAT     H167136   8.345   7.004   6.828
22298WAT     H267137   8.336   7.133   6.728
22299WAT      O67138   2.637   0.724   0.373
22299WAT     H167139   2.575   0.792   0.413
22299WAT     H267140   2.583   0.654   0.326
22300WAT      O67141   9.606   9.618   4.214
22300WAT     H167142   9.698   9.655   4.209
22300WAT     H267143   9.541   9.684   4.176
22301WAT      O67144   6.444   5.543   0.047
22301WAT     H167145   6.525   5.520   0.100
22301WAT     H267146   6.434   5.642   0.042
22302WAT      O67147   1.471   2.580   9.130
22302WAT     H167148   1.384   2.598   9.083
22302WAT     H267149   1.490   2.653   9.195
22303WAT      O67150   0.923   6.069   0.669
22303WAT     H167151   0.893   6.102   0.759
22303WAT     H267152   1.014   6.029   0.678
22304WAT      O67153   2.390   0.529   8.590
22304WAT     H167154   2.486   0.502   8.593
22304WAT     H267155   2.336   0.467   8.649
22305WAT      O67156   4.491   6.653   1.089
22305WAT     H167157   4.495   6.736   1.034
22305WAT     H267158   4.560   6.588   1.056
22306WAT      O67159   0.040   1.828   7.685
22306WAT     H167160  -0.038   1.769   7.668
22306WAT     H267161   0.112   1.810   7.617
22307WAT      O67162   7.167   9.778   7.711
22307WAT     H167163   7.142   9.841   7.785
22307WAT     H267164   7.184   9.831   7.628
22308WAT      O67165   8.164   5.720   1.076
22308WAT     H167166   8.147   5.752   0.982
22308WAT     H267167   8.138   5.624   1.083
22309WAT      O67168   0.027   6.144   3.103
22309WAT     H167169   0.102   6.160   3.039
22309WAT     H267170   0.062   6.135   3.195
22310WAT      O67171   1.832   6.810   6.382
22310WAT     H167172   1.758   6.742   6.386
22310WAT     H267173   1.797   6.895   6.344
22311WAT      O67174   3.535   3.926   5.500
22311WAT     H167175   3.476   3.883   5.569
22311WAT     H267176   3.506   4.020   5.485
22312WAT      O67177   7.983   6.501   9.374
22312WAT     H167178   8.045   6.502   9.454
22312WAT     H267179   7.889   6.505   9.406
22313WAT      O67180   7.883   1.643   2.834
22313WAT     H167181   7.921   1.734   2.849
22313WAT     H267182   7.805   1.629   2.895
22314WAT      O67183   4.843   9.579   3.584
22314WAT     H167184   4.886   9.568   3.494
22314WAT     H267185   4.823   9.489   3.623
22315WAT      O67186   5.290   6.595   5.568
22315WAT     H167187   5.237   6.674   5.599
22315WAT     H267188   5.341   6.557   5.644
22316WAT      O67189   3.346   2.275   3.822
22316WAT     H167190   3.287   2.346   3.785
22316WAT     H267191   3.345   2.196   3.761
22317WAT      O67192   2.641   9.692   6.712
22317WAT     H167193   2.556   9.743   6.718
22317WAT     H267194   2.623   9.595   6.726
22318WAT      O67195   7.081   1.871   6.033
22318WAT     H167196   7.108   1.776   6.017
22318WAT     H267197   7.023   1.903   5.958
22319WAT      O67198   1.728   5.482   8.459
22319WAT     H167199   1.788   5.419   8.508
22319WAT     H267200   1.664   5.524   8.523
22320WAT      O67201   6.735   7.706   4.704
22320WAT     H167202   6.829   7.685   4.731
22320WAT     H267203   6.719   7.805   4.714
22321WAT      O67204   6.392   4.344   3.118
22321WAT     H167205   6.431   4.256   3.145
22321WAT     H267206   6.412   4.412   3.188
22322WAT      O67207   7.487   9.177   0.829
22322WAT     H167208   7.527   9.094   0.791
22322WAT     H267209   7.432   9.154   0.909
22323WAT      O67210   1.580   8.567   0.061
22323WAT     H167211   1.575   8.468   0.068
22323WAT     H267212   1.547   8.596  -0.029
22324WAT      O67213   2.280   6.018   6.915
22324WAT     H167214   2.251   6.091   6.854
22324WAT     H267215   2.377   6.029   6.937
22325WAT      O67216   4.005   3.346   3.241
22325WAT     H167217   4.083   3.408   3.238
22325WAT     H267218   3.984   3.315   3.148
22326WAT      O67219   6.649   5.160   2.775
22326WAT     H167220   6.670   5.090   2.707
22326WAT     H267221   6.660   5.251   2.734
22327WAT      O67222   1.466   9.091   5.897
22327WAT     H167223   1.511   9.114   5.984
22327WAT     H267224   1.522   9.123   5.821
22328WAT      O67225   7.601   0.343   3.396
22328WAT     H167226   7.657   0.368   3.475
22328WAT     H267227   7.648   0.273   3.342
22329WAT      O67228   6.761   0.039   3.502
22329WAT     H167229   6.832   0.065   3.568
22329WAT     H267230   6.720   0.121   3.464
22330WAT      O67231   3.303   4.565   8.445
22330WAT     H167232   3.265   4.532   8.532
22330WAT     H267233   3.403   4.558   8.448
22331WAT      O67234   7.718   8.936   6.809
22331WAT     H167235   7.772   8.886   6.742
22331WAT     H267236   7.774   8.952   6.891
22332WAT      O67237   7.707   4.299   2.161
22332WAT     H167238   7.786   4.243   2.189
22332WAT     H267239   7.666   4.340   2.242
22333WAT      O67240   8.743   1.607   1.284
22333WAT     H167241   8.740   1.590   1.383
22333WAT     H267242   8.685   1.686   1.262
22334WAT      O67243   3.640   2.971   9.078
22334WAT     H167244   3.585   2.913   9.017
22334WAT     H267245   3.601   2.968   9.170
22335WAT      O67246   2.977   6.565   4.834
22335WAT     H167247   2.929   6.522   4.910
22335WAT     H267248   2.932   6.541   4.747
22336WAT      O67249   4.927   3.988   8.462
22336WAT     H167250   4.894   4.043   8.385
22336WAT     H267251   4.863   3.913   8.479
22337WAT      O67252   0.772   2.110   4.777
22337WAT     H167253   0.820   2.148   4.697
22337WAT     H267254   0.738   2.184   4.834
22338WAT      O67255   2.000   7.060   3.519
22338WAT     H167256   2.091   7.097   3.536
22338WAT     H267257   2.006   6.961   3.504
22339WAT      O67258   1.432   1.938   9.802
22339WAT     H167259   1.346   1.945   9.852
22339WAT     H267260   1.417   1.892   9.714
22340WAT      O67261   1.697   0.034   8.392
22340WAT     H167262   1.686   0.017   8.490
22340WAT     H267263   1.683   0.131   8.374
22341WAT      O67264   5.177   7.406   8.148
22341WAT     H167265   5.151   7.424   8.054
22341WAT     H267266   5.139   7.477   8.207
22342WAT      O67267   4.772   6.050   5.587
22342WAT     H167268   4.840   6.040   5.514
22342WAT     H267269   4.807   6.008   5.671
22343WAT      O67270   9.624   7.608   7.867
22343WAT     H167271   9.560   7.594   7.791
22343WAT     H267272   9.588   7.678   7.929
22344WAT      O67273   8.307   3.411   9.211
22344WAT     H167274   8.250   3.329   9.208
22344WAT     H267275   8.393   3.394   9.163
22345WAT      O67276   3.280   7.884   8.787
22345WAT     H167277   3.327   7.971   8.801
22345WAT     H267278   3.319   7.837   8.708
22346WAT      O67279   8.204   6.512   6.946
22346WAT     H167280   8.296   6.521   6.908
22346WAT     H267281   8.207   6.455   7.028
22347WAT      O67282   7.522   0.038   6.182
22347WAT     H167283   7.432   0.025   6.223
22347WAT     H267284   7.513   0.039   6.082
22348WAT      O67285   1.930   6.453   6.226
22348WAT     H167286   1.893   6.381   6.168
22348WAT     H267287   1.858   6.490   6.284
22349WAT      O67288   8.436   8.691   7.153
22349WAT     H167289   8.376   8.637   7.213
22349WAT     H267290   8.522   8.708   7.200
22350WAT      O67291   6.991   4.198   9.346
22350WAT     H167292   7.035   4.286   9.330
22350WAT     H267293   6.900   4.197   9.305
22351WAT      O67294   4.906   7.795   0.836
22351WAT     H167295   4.953   7.739   0.904
22351WAT     H267296   4.826   7.747   0.802
22352WAT      O67297   7.288   9.116   1.972
22352WAT     H167298   7.200   9.136   2.013
22352WAT     H267299   7.278   9.108   1.873
22353WAT      O67300   1.088   9.283   1.186
22353WAT     H167301   1.131   9.270   1.275
22353WAT     H267302   1.125   9.218   1.120
22354WAT      O67303   6.033   8.730   2.444
22354WAT     H167304   6.022   8.731   2.345
22354WAT     H267305   5.943   8.721   2.488
22355WAT      O67306   4.455   4.350   8.504
22355WAT     H167307   4.427   4.373   8.411
22355WAT     H267308   4.471   4.434   8.556
22356WAT      O67309   9.473   9.055   6.626
22356WAT     H167310   9.492   9.101   6.713
22356WAT     H267311   9.474   8.956   6.640
22357WAT      O67312   5.686   3.860   9.423
22357WAT     H167313   5.705   3.764   9.443
22357WAT     H267314   5.588   3.873   9.410
22358WAT      O67315   9.825   5.477   0.320
22358WAT     H167316   9.868   5.416   0.254
22358WAT     H267317   9.816   5.568   0.281
22359WAT      O67318   4.320   4.326   7.772
22359WAT     H167319   4.335   4.375   7.858
22359WAT     H267320   4.382   4.247   7.768
22360WAT      O67321   3.766   4.530   7.506
22360WAT     H167322   3.780   4.536   7.605
22360WAT     H267323   3.670   4.508   7.487
22361WAT      O67324   4.914   3.098   7.986
22361WAT     H167325   4.884   3.004   8.001
22361WAT     H267326   5.003   3.098   7.940
22362WAT      O67327   2.934   0.990   4.094
22362WAT     H167328   2.895   0.954   4.179
22362WAT     H267329   3.009   0.932   4.065
22363WAT      O67330   7.578   3.808   4.664
22363WAT     H167331   7.619   3.790   4.753
22363WAT     H267332   7.647   3.841   4.601
22364WAT      O67333   4.893   9.566   4.344
22364WAT     H167334   4.816   9.595   4.289
22364WAT     H267335   4.868   9.568   4.441
22365WAT      O67336   8.586   9.330   8.248
22365WAT     H167337   8.495   9.371   8.260
22365WAT     H267338   8.643   9.354   8.327
22366WAT      O67339   7.813   5.011   3.115
22366WAT     H167340   7.845   5.037   3.024
22366WAT     H267341   7.737   4.947   3.107
22367WAT      O67342   3.786   0.861   4.056
22367WAT     H167343   3.697   0.832   4.092
22367WAT     H267344   3.775   0.947   4.005
22368WAT      O67345   0.176   8.731   4.191
22368WAT     H167346   0.112   8.777   4.131
22368WAT     H267347   0.154   8.633   4.195
22369WAT      O67348   0.968   2.795   7.569
22369WAT     H167349   0.915   2.791   7.654
22369WAT     H267350   0.935   2.725   7.506
22370WAT      O67351   3.637   3.396   3.026
22370WAT     H167352   3.537   3.392   3.025
22370WAT     H267353   3.667   3.462   3.095
22371WAT      O67354   6.529   2.756   3.468
22371WAT     H167355   6.597   2.687   3.493
22371WAT     H267356   6.487   2.731   3.381
22372WAT      O67357   3.263   0.370   1.030
22372WAT     H167358   3.249   0.324   0.942
22372WAT     H267359   3.244   0.468   1.019
22373WAT      O67360   9.724   9.010   1.796
22373WAT     H167361   9.627   9.012   1.776
22373WAT     H267362   9.774   9.064   1.729
22374WAT      O67363   1.914   7.651   2.729
22374WAT     H167364   1.816   7.633   2.741
22374WAT     H267365   1.933   7.666   2.632
22375WAT      O67366   6.834   9.781   4.807
22375WAT     H167367   6.774   9.737   4.875
22375WAT     H267368   6.804   9.875   4.792
22376WAT      O67369   7.371   8.259   0.170
22376WAT     H167370   7.316   8.228   0.247
22376WAT     H267371   7.423   8.340   0.195
22377WAT      O67372   4.533   4.382   5.829
22377WAT     H167373   4.603   4.453   5.837
22377WAT     H267374   4.452   4.409   5.881
22378WAT      O67375   9.534   7.944   7.116
22378WAT     H167376   9.612   7.905   7.067
22378WAT     H267377   9.463   7.971   7.051
22379WAT      O67378   6.728   0.707   4.583
22379WAT     H167379   6.775   0.759   4.654
22379WAT     H267380   6.631   0.732   4.581
22380WAT      O67381   3.383   2.450   1.195
22380WAT     H167382   3.318   2.524   1.214
22380WAT     H267383   3.335   2.375   1.149
22381WAT      O67384   2.873   6.198   2.512
22381WAT     H167385   2.806   6.253   2.464
22381WAT     H267386   2.965   6.229   2.489
22382WAT      O67387   7.460   2.645   3.530
22382WAT     H167388   7.462   2.545   3.525
22382WAT     H267389   7.539   2.683   3.481
22383WAT      O67390   5.147   2.880   5.476
22383WAT     H167391   5.108   2.858   5.565
22383WAT     H267392   5.073   2.891   5.409
22384WAT      O67393   4.636   7.865   1.550
22384WAT     H167394   4.708   7.934   1.558
22384WAT     H267395   4.549   7.909   1.532
22385WAT      O67396   6.015   1.193   2.645
22385WAT     H167397   6.030   1.132   2.568
22385WAT     H267398   5.919   1.187   2.674
22386WAT      O67399   3.349   9.391   7.738
22386WAT     H167400   3.357   9.418   7.642
22386WAT     H267401   3.424   9.329   7.761
22387WAT      O67402   5.381   1.112   5.325
22387WAT     H167403   5.315   1.127   5.251
22387WAT     H267404   5.472   1.140   5.293
22388WAT      O67405   3.164   4.575   6.524
22388WAT     H167406   3.222   4.493   6.526
22388WAT     H267407   3.136   4.598   6.617
22389WAT      O67408   6.430   1.170   9.374
22389WAT     H167409   6.368   1.120   9.435
22389WAT     H267410   6.424   1.131   9.282
22390WAT      O67411   7.230   6.304   2.644
22390WAT     H167412   7.162   6.325   2.573
22390WAT     H267413   7.183   6.274   2.727
22391WAT      O67414   7.708   8.041   4.937
22391WAT     H167415   7.642   8.111   4.961
22391WAT     H267416   7.709   7.970   5.007
22392WAT      O67417   6.672   2.064   8.347
22392WAT     H167418   6.723   2.132   8.400
22392WAT     H267419   6.729   2.030   8.272
22393WAT      O67420   7.383   2.634   0.634
22393WAT     H167421   7.352   2.642   0.729
22393WAT     H267422   7.468   2.685   0.622
22394WAT      O67423   6.577   8.373   0.968
22394WAT     H167424   6.515   8.304   1.004
22394WAT     H267425   6.560   8.460   1.014
22395WAT      O67426   7.948   4.856   1.817
22395WAT     H167427   8.025   4.885   1.874
22395WAT     H267428   7.921   4.931   1.757
22396WAT      O67429   2.809   4.662   1.349
22396WAT     H167430   2.712   4.643   1.335
22396WAT     H267431   2.842   4.724   1.278
22397WAT      O67432   0.968   0.410   5.065
22397WAT     H167433   0.870   0.392   5.075
22397WAT     H267434   1.020   0.356   5.131
22398WAT      O67435   7.614   8.736   5.523
22398WAT     H167436   7.516   8.744   5.541
22398WAT     H267437   7.665   8.759   5.605
22399WAT      O67438   7.292   3.251   3.863
22399WAT     H167439   7.338   3.204   3.788
22399WAT     H267440   7.202   3.281   3.834
22400WAT      O67441   2.882   5.321   7.211
22400WAT     H167442   2.935   5.382   7.269
22400WAT     H267443   2.941   5.248   7.176
22401WAT      O67444   9.746   0.286   1.114
22401WAT     H167445   9.651   0.257   1.105
22401WAT     H267446   9.757   0.376   1.072
22402WAT      O67447   5.045   2.016   2.181
22402WAT     H167448   4.981   1.960   2.234
22402WAT     H267449   5.113   2.055   2.243
22403WAT      O67450   8.340   3.399   4.808
22403WAT     H167451   8.281   3.471   4.842
22403WAT     H267452   8.397   3.434   4.733
22404WAT      O67453   2.861   8.586   1.881
22404WAT     H167454   2.822   8.546   1.798
22404WAT     H267455   2.790   8.590   1.951
22405WAT      O67456   5.030   3.654   1.812
22405WAT     H167457   4.965   3.593   1.766
22405WAT     H267458   5.050   3.732   1.752
22406WAT      O67459   3.797   6.916   8.893
22406WAT     H167460   3.866   6.907   8.964
22406WAT     H267461   3.836   6.888   8.805
22407WAT      O67462   7.470   0.461   2.788
22407WAT     H167463   7.494   0.388   2.724
22407WAT     H267464   7.392   0.434   2.843
22408WAT      O67465   7.996   4.089   4.803
22408WAT     H167466   7.936   4.156   4.758
22408WAT     H267467   7.953   3.999   4.800
22409WAT      O67468   4.676   5.335   1.677
22409WAT     H167469   4.711   5.411   1.733
22409WAT     H267470   4.634   5.267   1.736
22410WAT      O67471   6.735   4.902   9.308
22410WAT     H167472   6.688   4.989   9.295
22410WAT     H267473   6.817   4.915   9.364
22411WAT      O67474   9.018   7.864   8.470
22411WAT     H167475   9.032   7.963   8.463
22411WAT     H267476   9.002   7.839   8.565
22412WAT      O67477   4.759   5.468   4.911
22412WAT     H167478   4.713   5.382   4.932
22412WAT     H267479   4.801   5.505   4.994
22413WAT      O67480   6.029   4.651   2.090
22413WAT     H167481   5.969   4.616   2.019
22413WAT     H267482   6.123   4.621   2.073
22414WAT      O67483   8.632   9.760   2.620
22414WAT     H167484   8.606   9.768   2.716
22414WAT     H267485   8.552   9.730   2.567
22415WAT      O67486   9.268   8.211   4.466
22415WAT     H167487   9.228   8.258   4.545
22415WAT     H267488   9.359   8.177   4.490
22416WAT      O67489   8.420   0.127   9.811
22416WAT     H167490   8.455   0.102   9.902
22416WAT     H267491   8.473   0.204   9.776
22417WAT      O67492   9.703   0.397   3.508
22417WAT     H167493   9.803   0.404   3.517
22417WAT     H267494   9.669   0.477   3.459
22418WAT      O67495   0.756   4.613   4.109
22418WAT     H167496   0.823   4.665   4.056
22418WAT     H267497   0.744   4.523   4.068
22419WAT      O67498   9.312   3.390   4.518
22419WAT     H167499   9.398   3.357   4.556
22419WAT     H267500   9.327   3.477   4.471
22420WAT      O67501   7.095   3.852   4.367
22420WAT     H167502   7.075   3.802   4.282
22420WAT     H267503   7.167   3.919   4.350
22421WAT      O67504   2.362   0.013   7.980
22421WAT     H167505   2.393   0.024   7.886
22421WAT     H267506   2.262   0.009   7.981
22422WAT      O67507   0.374   2.253   0.765
22422WAT     H167508   0.353   2.281   0.858
22422WAT     H267509   0.367   2.333   0.704
22423WAT      O67510   2.978   7.751   0.943
22423WAT     H167511   2.918   7.808   0.887
22423WAT     H267512   2.941   7.658   0.948
22424WAT      O67513   0.577   7.259   3.659
22424WAT     H167514   0.558   7.264   3.757
22424WAT     H267515   0.497   7.289   3.608
22425WAT      O67516   5.413   0.316   5.803
22425WAT     H167517   5.361   0.334   5.886
22425WAT     H267518   5.510   0.330   5.821
22426WAT      O67519   2.417   0.114   2.688
22426WAT     H167520   2.483   0.046   2.656
22426WAT     H267521   2.332   0.104   2.636
22427WAT      O67522   8.975   3.090   9.024
22427WAT     H167523   8.923   3.052   9.100
22427WAT     H267524   8.912   3.123   8.953
22428WAT      O67525   6.376   6.987   9.539
22428WAT     H167526   6.427   6.902   9.528
22428WAT     H267527   6.386   7.020   9.633
22429WAT      O67528   2.397   8.923   6.298
22429WAT     H167529   2.497   8.915   6.291
22429WAT     H267530   2.359   8.946   6.209
22430WAT      O67531   6.612   6.467   2.387
22430WAT     H167532   6.646   6.436   2.299
22430WAT     H267533   6.523   6.510   2.376
22431WAT      O67534   2.622   1.148   4.151
22431WAT     H167535   2.635   1.242   4.181
22431WAT     H267536   2.711   1.107   4.132
22432WAT      O67537   5.037   9.809   7.880
22432WAT     H167538   4.984   9.802   7.965
22432WAT     H267539   5.023   9.726   7.825
22433WAT      O67540   2.536   1.994   2.727
22433WAT     H167541   2.509   1.898   2.719
22433WAT     H267542   2.606   2.015   2.659
22434WAT      O67543   7.433   0.975   7.539
22434WAT     H167544   7.405   0.959   7.634
22434WAT     H267545   7.368   0.930   7.478
22435WAT      O67546   8.723   2.278   1.668
22435WAT     H167547   8.709   2.270   1.569
22435WAT     H267548   8.641   2.247   1.716
22436WAT      O67549   6.098   5.088   5.517
22436WAT     H167550   6.050   5.147   5.582
22436WAT     H267551   6.166   5.033   5.565
22437WAT      O67552   3.308   0.091   8.755
22437WAT     H167553   3.380   0.133   8.810
22437WAT     H267554   3.349   0.050   8.673
22438WAT      O67555   3.572   8.892   6.571
22438WAT     H167556   3.632   8.833   6.516
22438WAT     H267557   3.604   8.986   6.567
22439WAT      O67558   7.147   4.267   3.658
22439WAT     H167559   7.130   4.346   3.717
22439WAT     H267560   7.141   4.183   3.712
22440WAT      O67561   8.110   8.238   0.676
22440WAT     H167562   8.030   8.238   0.736
22440WAT     H267563   8.165   8.319   0.695
22441WAT      O67564   0.621   2.339   8.893
22441WAT     H167565   0.594   2.245   8.917
22441WAT     H267566   0.714   2.339   8.859
22442WAT      O67567   7.690   6.803   2.619
22442WAT     H167568   7.614   6.741   2.639
22442WAT     H267569   7.683   6.834   2.524
22443WAT      O67570   7.032   0.543   3.039
22443WAT     H167571   7.047   0.476   3.112
22443WAT     H267572   7.068   0.632   3.068
22444WAT      O67573   5.835   5.879   5.796
22444WAT     H167574   5.842   5.898   5.894
22444WAT     H267575   5.740   5.857   5.774
22445WAT      O67576   0.759   7.304   2.930
22445WAT     H167577   0.732   7.209   2.914
22445WAT     H267578   0.852   7.307   2.965
22446WAT      O67579   5.856   5.375   2.695
22446WAT     H167580   5.953   5.351   2.697
22446WAT     H267581   5.830   5.402   2.602
22447WAT      O67582   1.229   3.088   0.444
22447WAT     H167583   1.312   3.069   0.391
22447WAT     H267584   1.239   3.178   0.489
22448WAT      O67585   7.289   7.147   5.673
22448WAT     H167586   7.342   7.062   5.681
22448WAT     H267587   7.343   7.224   5.707
22449WAT      O67588   2.846   3.089   1.672
22449WAT     H167589   2.901   3.104   1.754
22449WAT     H267590   2.861   3.164   1.607
22450WAT      O67591   4.170   7.481   8.604
22450WAT     H167592   4.168   7.549   8.677
22450WAT     H267593   4.228   7.404   8.630
22451WAT      O67594   7.857   2.158   8.450
22451WAT     H167595   7.793   2.094   8.407
22451WAT     H267596   7.951   2.127   8.436
22452WAT      O67597   5.373   9.065   5.154
22452WAT     H167598   5.449   9.013   5.194
22452WAT     H267599   5.316   9.103   5.226
22453WAT      O67600   8.514   5.937   6.227
22453WAT     H167601   8.416   5.941   6.244
22453WAT     H267602   8.551   6.029   6.222
22454WAT      O67603   7.816   9.799   1.033
22454WAT     H167604   7.849   9.742   1.108
22454WAT     H267605   7.719   9.821   1.047
22455WAT      O67606   8.731   5.432   3.415
22455WAT     H167607   8.677   5.498   3.467
22455WAT     H267608   8.821   5.421   3.458
22456WAT      O67609   6.931   3.381   7.636
22456WAT     H167610   7.023   3.391   7.674
22456WAT     H267611   6.866   3.371   7.711
22457WAT      O67612   7.642   7.175   8.677
22457WAT     H167613   7.625   7.077   8.687
22457WAT     H267614   7.614   7.204   8.585
22458WAT      O67615   4.170   8.459   5.775
22458WAT     H167616   4.118   8.506   5.846
22458WAT     H267617   4.188   8.365   5.803
22459WAT      O67618   6.345   6.374   2.755
22459WAT     H167619   6.297   6.304   2.808
22459WAT     H267620   6.438   6.343   2.735
22460WAT      O67621   3.906   7.972   3.457
22460WAT     H167622   3.902   7.985   3.358
22460WAT     H267623   3.817   7.939   3.489
22461WAT      O67624   5.841   6.760   4.622
22461WAT     H167625   5.808   6.704   4.698
22461WAT     H267626   5.928   6.801   4.647
22462WAT      O67627   1.648   1.782   1.899
22462WAT     H167628   1.625   1.692   1.861
22462WAT     H267629   1.722   1.823   1.847
22463WAT      O67630   4.956   4.079   3.305
22463WAT     H167631   4.896   4.149   3.344
22463WAT     H267632   4.913   4.039   3.224
22464WAT      O67633   8.696   1.015   8.722
22464WAT     H167634   8.660   1.109   8.720
22464WAT     H267635   8.765   1.008   8.794
22465WAT      O67636   4.624   6.356   9.785
22465WAT     H167637   4.686   6.308   9.723
22465WAT     H267638   4.536   6.371   9.740
22466WAT      O67639   9.787   3.693   2.221
22466WAT     H167640   9.750   3.632   2.150
22466WAT     H267641   9.824   3.776   2.177
22467WAT      O67642   8.909   1.851   0.956
22467WAT     H167643   8.901   1.751   0.952
22467WAT     H267644   8.898   1.889   0.864
22468WAT      O67645   7.084   1.938   9.761
22468WAT     H167646   7.183   1.933   9.749
22468WAT     H267647   7.041   1.955   9.673
22469WAT      O67648   1.031   7.189   0.890
22469WAT     H167649   1.089   7.191   0.808
22469WAT     H267650   1.084   7.156   0.968
22470WAT      O67651   4.664   7.175   0.153
22470WAT     H167652   4.682   7.234   0.075
22470WAT     H267653   4.700   7.217   0.237
22471WAT      O67654   0.932   3.989   9.193
22471WAT     H167655   1.009   4.031   9.147
22471WAT     H267656   0.877   4.060   9.238
22472WAT      O67657   3.671   5.270   5.358
22472WAT     H167658   3.719   5.318   5.284
22472WAT     H267659   3.625   5.189   5.322
22473WAT      O67660   8.920   4.703   5.264
22473WAT     H167661   8.987   4.638   5.227
22473WAT     H267662   8.848   4.652   5.311
22474WAT      O67663   1.683   6.124   1.156
22474WAT     H167664   1.645   6.217   1.158
22474WAT     H267665   1.725   6.104   1.245
22475WAT      O67666   2.381   1.819   7.196
22475WAT     H167667   2.329   1.832   7.112
22475WAT     H267668   2.479   1.815   7.174
22476WAT      O67669   7.412   6.908   5.655
22476WAT     H167670   7.511   6.917   5.664
22476WAT     H267671   7.391   6.865   5.567
22477WAT      O67672   8.985   6.335   9.162
22477WAT     H167673   9.076   6.332   9.204
22477WAT     H267674   8.959   6.242   9.133
22478WAT      O67675   7.120   6.943   9.837
22478WAT     H167676   7.044   7.007   9.845
22478WAT     H267677   7.195   6.973   9.896
22479WAT      O67678   5.463   1.388   3.968
22479WAT     H167679   5.523   1.400   3.889
22479WAT     H267680   5.475   1.464   4.031
22480WAT      O67681   3.149   8.309   5.697
22480WAT     H167682   3.217   8.301   5.770
22480WAT     H267683   3.124   8.405   5.684
22481WAT      O67684   3.409   7.194   3.954
22481WAT     H167685   3.316   7.176   3.984
22481WAT     H267686   3.448   7.110   3.914
22482WAT      O67687   3.176   7.347   5.105
22482WAT     H167688   3.108   7.274   5.105
22482WAT     H267689   3.265   7.310   5.077
22483WAT      O67690   6.406   0.396   1.842
22483WAT     H167691   6.331   0.443   1.887
22483WAT     H267692   6.469   0.361   1.911
22484WAT      O67693   8.578   3.561   7.482
22484WAT     H167694   8.626   3.479   7.513
22484WAT     H267695   8.644   3.628   7.448
22485WAT      O67696   9.775   2.015   6.431
22485WAT     H167697   9.797   2.095   6.376
22485WAT     H267698   9.849   1.948   6.424
22486WAT      O67699   2.248   9.176   7.556
22486WAT     H167700   2.324   9.240   7.548
22486WAT     H267701   2.162   9.227   7.557
22487WAT      O67702   4.415   3.250   6.816
22487WAT     H167703   4.384   3.252   6.721
22487WAT     H267704   4.348   3.201   6.872
22488WAT      O67705   1.525   8.535   5.317
22488WAT     H167706   1.427   8.517   5.311
22488WAT     H267707   1.571   8.453   5.351
22489WAT      O67708   6.162   9.395   8.672
22489WAT     H167709   6.205   9.485   8.682
22489WAT     H267710   6.230   9.330   8.638
22490WAT      O67711   9.448   5.655   0.350
22490WAT     H167712   9.491   5.607   0.426
22490WAT     H267713   9.361   5.611   0.328
22491WAT      O67714   8.265   5.280   1.726
22491WAT     H167715   8.338   5.214   1.709
22491WAT     H267716   8.304   5.372   1.728
22492WAT      O67717   0.213   6.081   2.813
22492WAT     H167718   0.291   6.043   2.863
22492WAT     H267719   0.234   6.175   2.784
22493WAT      O67720   2.326   9.161   4.280
22493WAT     H167721   2.394   9.098   4.317
22493WAT     H267722   2.364   9.206   4.199
22494WAT      O67723   0.322   6.505   1.682
22494WAT     H167724   0.367   6.541   1.765
22494WAT     H267725   0.385   6.514   1.605
22495WAT      O67726   8.134   7.753   3.235
22495WAT     H167727   8.051   7.702   3.212
22495WAT     H267728   8.162   7.809   3.157
22496WAT      O67729   8.091   9.275   8.095
22496WAT     H167730   8.034   9.282   8.013
22496WAT     H267731   8.157   9.201   8.083
22497WAT      O67732   4.910   8.978   7.849
22497WAT     H167733   4.870   8.887   7.840
22497WAT     H267734   4.947   8.990   7.941
22498WAT      O67735   3.354   5.066   7.265
22498WAT     H167736   3.403   5.003   7.205
22498WAT     H267737   3.257   5.064   7.243
22499WAT      O67738   1.361   2.317   6.149
22499WAT     H167739   1.351   2.398   6.206
22499WAT     H267740   1.457   2.304   6.125
22500WAT      O67741   0.133   0.846   3.304
22500WAT     H167742   0.080   0.853   3.388
22500WAT     H267743   0.196   0.769   3.310
22501WAT      O67744   8.215   3.392   1.357
22501WAT     H167745   8.244   3.299   1.380
22501WAT     H267746   8.279   3.457   1.397
22502WAT      O67747   4.543   2.166   5.952
22502WAT     H167748   4.573   2.117   5.870
22502WAT     H267749   4.444   2.176   5.950
22503WAT      O67750   7.694   9.383   8.970
22503WAT     H167751   7.613   9.330   8.946
22503WAT     H267752   7.666   9.474   9.000
22504WAT      O67753   1.267   5.637   7.181
22504WAT     H167754   1.173   5.634   7.216
22504WAT     H267755   1.268   5.682   7.092
22505WAT      O67756   4.383   3.193   4.037
22505WAT     H167757   4.310   3.126   4.026
22505WAT     H267758   4.356   3.261   4.106
22506WAT      O67759   7.228   8.594   4.000
22506WAT     H167760   7.173   8.520   4.040
22506WAT     H267761   7.275   8.561   3.919
22507WAT      O67762   2.392   8.777   4.549
22507WAT     H167763   2.459   8.750   4.618
22507WAT     H267764   2.322   8.835   4.591
22508WAT      O67765   6.938   3.121   9.339
22508WAT     H167766   6.943   3.125   9.239
22508WAT     H267767   6.983   3.038   9.372
22509WAT      O67768   1.238   3.775   0.436
22509WAT     H167769   1.309   3.803   0.371
22509WAT     H267770   1.282   3.732   0.516
22510WAT      O67771   1.002   4.488   7.610
22510WAT     H167772   0.905   4.498   7.589
22510WAT     H267773   1.054   4.557   7.559
22511WAT      O67774   2.756   5.097   3.109
22511WAT     H167775   2.806   5.183   3.100
22511WAT     H267776   2.793   5.030   3.045
22512WAT      O67777   5.532   4.453   2.090
22512WAT     H167778   5.553   4.398   2.008
22512WAT     H267779   5.469   4.403   2.149
22513WAT      O67780   7.138   3.459   4.998
22513WAT     H167781   7.103   3.367   4.983
22513WAT     H267782   7.071   3.526   4.964
22514WAT      O67783   5.487   7.118   4.224
22514WAT     H167784   5.561   7.097   4.287
22514WAT     H267785   5.476   7.043   4.158
22515WAT      O67786   7.573   9.618   2.724
22515WAT     H167787   7.569   9.620   2.624
22515WAT     H267788   7.597   9.709   2.758
22516WAT      O67789   3.242   9.073   8.835
22516WAT     H167790   3.287   9.081   8.747
22516WAT     H267791   3.303   9.105   8.907
22517WAT      O67792   8.858   5.574   5.769
22517WAT     H167793   8.909   5.538   5.847
22517WAT     H267794   8.910   5.559   5.685
22518WAT      O67795   7.987   6.092   9.493
22518WAT     H167796   7.916   6.105   9.424
22518WAT     H267797   7.979   6.000   9.532
22519WAT      O67798   4.038   2.315   0.975
22519WAT     H167799   4.097   2.358   1.043
22519WAT     H267800   4.011   2.383   0.907
22520WAT      O67801   8.712   5.361   5.617
22520WAT     H167802   8.689   5.347   5.714
22520WAT     H267803   8.629   5.387   5.567
22521WAT      O67804   8.588   5.010   9.271
22521WAT     H167805   8.496   4.970   9.265
22521WAT     H267806   8.641   4.962   9.340
22522WAT      O67807   0.483   1.038   5.910
22522WAT     H167808   0.487   1.066   6.006
22522WAT     H267809   0.477   1.120   5.852
22523WAT      O67810   6.402   3.516   5.251
22523WAT     H167811   6.478   3.489   5.192
22523WAT     H267812   6.437   3.569   5.329
22524WAT      O67813   1.303   1.054   4.961
22524WAT     H167814   1.249   1.120   5.012
22524WAT     H267815   1.356   0.997   5.024
22525WAT      O67816   8.509   6.616   4.654
22525WAT     H167817   8.516   6.700   4.601
22525WAT     H267818   8.437   6.626   4.723
22526WAT      O67819   0.899   7.103   4.559
22526WAT     H167820   0.886   7.111   4.460
22526WAT     H267821   0.944   7.186   4.593
22527WAT      O67822   7.223   8.739   8.017
22527WAT     H167823   7.282   8.788   7.953
22527WAT     H267824   7.151   8.692   7.967
22528WAT      O67825   8.716   8.350   5.426
22528WAT     H167826   8.695   8.439   5.386
22528WAT     H267827   8.672   8.278   5.373
22529WAT      O67828   7.182   3.044   6.905
22529WAT     H167829   7.152   3.015   6.996
22529WAT     H267830   7.231   2.969   6.861
22530WAT      O67831   6.344   0.555   4.406
22530WAT     H167832   6.265   0.612   4.384
22530WAT     H267833   6.348   0.478   4.342
22531WAT      O67834   2.218   7.459   5.953
22531WAT     H167835   2.224   7.375   5.899
22531WAT     H267836   2.122   7.477   5.976
22532WAT      O67837   6.715   5.322   1.681
22532WAT     H167838   6.708   5.296   1.778
22532WAT     H267839   6.675   5.413   1.668
22533WAT      O67840   5.531   6.009   6.671
22533WAT     H167841   5.512   5.918   6.635
22533WAT     H267842   5.547   6.004   6.770
22534WAT      O67843   0.469   6.815   7.613
22534WAT     H167844   0.489   6.912   7.630
22534WAT     H267845   0.380   6.792   7.651
22535WAT      O67846   3.375   3.588   1.046
22535WAT     H167847   3.326   3.504   1.070
22535WAT     H267848   3.471   3.579   1.073
22536WAT      O67849   4.250   2.967   7.611
22536WAT     H167850   4.203   3.042   7.565
22536WAT     H267851   4.251   2.982   7.709
22537WAT      O67852   9.163   1.908   5.366
22537WAT     H167853   9.164   2.008   5.374
22537WAT     H267854   9.134   1.868   5.453
22538WAT      O67855   2.482   5.994   2.387
22538WAT     H167856   2.468   5.902   2.422
22538WAT     H267857   2.470   6.061   2.461
22539WAT      O67858   6.074   6.156   6.779
22539WAT     H167859   6.073   6.153   6.879
22539WAT     H267860   6.009   6.089   6.743
22540WAT      O67861   2.965   7.382   0.226
22540WAT     H167862   3.042   7.384   0.289
22540WAT     H267863   2.931   7.475   0.211
22541WAT      O67864   8.791   4.826   2.615
22541WAT     H167865   8.835   4.738   2.632
22541WAT     H267866   8.751   4.860   2.700
22542WAT      O67867   5.821   5.602   0.441
22542WAT     H167868   5.791   5.671   0.507
22542WAT     H267869   5.911   5.567   0.468
22543WAT      O67870   9.015   1.832   3.800
22543WAT     H167871   8.946   1.775   3.845
22543WAT     H267872   8.980   1.925   3.789
22544WAT      O67873   7.270   7.900   3.849
22544WAT     H167874   7.214   7.852   3.781
22544WAT     H267875   7.217   7.910   3.933
22545WAT      O67876   0.213   4.777   5.293
22545WAT     H167877   0.311   4.785   5.311
22545WAT     H267878   0.168   4.865   5.311
22546WAT      O67879   6.664   8.581   6.118
22546WAT     H167880   6.580   8.630   6.095
22546WAT     H267881   6.743   8.642   6.108
22547WAT      O67882   3.301   2.585   6.478
22547WAT     H167883   3.373   2.598   6.410
22547WAT     H267884   3.227   2.530   6.438
22548WAT      O67885   4.028   3.315   0.768
22548WAT     H167886   4.011   3.231   0.717
22548WAT     H267887   4.083   3.295   0.849
22549WAT      O67888   0.847   5.876   5.828
22549WAT     H167889   0.829   5.901   5.923
22549WAT     H267890   0.828   5.954   5.768
22550WAT      O67891   3.419   2.596   4.202
22550WAT     H167892   3.341   2.614   4.142
22550WAT     H267893   3.453   2.503   4.185
22551WAT      O67894   4.921   7.180   3.415
22551WAT     H167895   5.004   7.124   3.416
22551WAT     H267896   4.930   7.255   3.481
22552WAT      O67897   7.972   2.394   2.347
22552WAT     H167898   8.044   2.346   2.297
22552WAT     H267899   7.957   2.348   2.435
22553WAT      O67900   7.600   4.271   7.600
22553WAT     H167901   7.623   4.190   7.654
22553WAT     H267902   7.619   4.353   7.653
22554WAT      O67903   1.776   7.958   2.713
22554WAT     H167904   1.825   7.900   2.648
22554WAT     H267905   1.737   7.901   2.786
22555WAT      O67906   8.777   0.791   2.624
22555WAT     H167907   8.847   0.862   2.626
22555WAT     H267908   8.695   0.826   2.578
22556WAT      O67909   8.066   8.444   6.010
22556WAT     H167910   8.108   8.409   5.926
22556WAT     H267911   8.106   8.400   6.089
22557WAT      O67912   5.566   1.923   6.293
22557WAT     H167913   5.583   1.952   6.200
22557WAT     H267914   5.623   1.843   6.314
22558WAT      O67915   9.210   1.944   9.325
22558WAT     H167916   9.170   1.863   9.283
22558WAT     H267917   9.302   1.959   9.288
22559WAT      O67918   3.889   2.460   5.557
22559WAT     H167919   3.822   2.412   5.501
22559WAT     H267920   3.932   2.395   5.620
22560WAT      O67921   7.842   5.668   6.846
22560WAT     H167922   7.774   5.653   6.917
22560WAT     H267923   7.924   5.614   6.865
22561WAT      O67924   4.428   5.224   4.697
22561WAT     H167925   4.403   5.156   4.628
22561WAT     H267926   4.522   5.252   4.682
22562WAT      O67927   5.526   0.182   4.859
22562WAT     H167928   5.434   0.160   4.891
22562WAT     H267929   5.592   0.158   4.931
22563WAT      O67930   8.206   3.755   7.568
22563WAT     H167931   8.116   3.785   7.600
22563WAT     H267932   8.237   3.679   7.626
22564WAT      O67933   2.504   2.107   0.952
22564WAT     H167934   2.482   2.010   0.947
22564WAT     H267935   2.432   2.160   0.909
22565WAT      O67936   5.106   8.880   9.279
22565WAT     H167937   5.080   8.790   9.315
22565WAT     H267938   5.166   8.925   9.345
22566WAT      O67939   2.473   4.864   6.640
22566WAT     H167940   2.522   4.795   6.588
22566WAT     H267941   2.413   4.915   6.578
22567WAT      O67942   8.168   6.741   9.585
22567WAT     H167943   8.076   6.774   9.604
22567WAT     H267944   8.174   6.644   9.606
22568WAT      O67945   6.502   6.174   9.192
22568WAT     H167946   6.493   6.105   9.263
22568WAT     H267947   6.585   6.228   9.208
22569WAT      O67948   0.033   7.104   5.158
22569WAT     H167949   0.095   7.161   5.211
22569WAT     H267950   0.029   7.012   5.197
22570WAT      O67951   0.273   3.580   9.796
22570WAT     H167952   0.284   3.630   9.710
22570WAT     H267953   0.354   3.594   9.853
22571WAT      O67954   6.308   6.238   3.906
22571WAT     H167955   6.255   6.165   3.950
22571WAT     H267956   6.272   6.255   3.814
22572WAT      O67957   3.804   3.943   6.046
22572WAT     H167958   3.859   4.010   5.995
22572WAT     H267959   3.862   3.868   6.075
22573WAT      O67960   4.085   1.444   5.563
22573WAT     H167961   4.046   1.537   5.559
22573WAT     H267962   4.135   1.426   5.478
22574WAT      O67963   3.222   3.382   5.063
22574WAT     H167964   3.180   3.440   4.993
22574WAT     H267965   3.278   3.439   5.124
22575WAT      O67966   5.589   9.710   0.203
22575WAT     H167967   5.496   9.716   0.240
22575WAT     H267968   5.654   9.744   0.271
22576WAT      O67969   2.992   7.873   8.897
22576WAT     H167970   3.083   7.883   8.857
22576WAT     H267971   2.998   7.829   8.986
22577WAT      O67972   8.996   0.685   8.590
22577WAT     H167973   9.052   0.696   8.508
22577WAT     H267974   8.938   0.604   8.580
22578WAT      O67975   5.450   0.736   3.539
22578WAT     H167976   5.369   0.764   3.591
22578WAT     H267977   5.424   0.667   3.472
22579WAT      O67978   6.403   5.025   4.663
22579WAT     H167979   6.363   4.940   4.697
22579WAT     H267980   6.339   5.100   4.677
22580WAT      O67981   2.699   5.467   2.080
22580WAT     H167982   2.682   5.413   2.162
22580WAT     H267983   2.672   5.414   1.999
22581WAT      O67984   2.184   5.777   8.566
22581WAT     H167985   2.139   5.799   8.652
22581WAT     H267986   2.191   5.860   8.510
22582WAT      O67987   0.172   4.357   8.977
22582WAT     H167988   0.144   4.281   8.919
22582WAT     H267989   0.091   4.403   9.014
22583WAT      O67990   0.451   9.131   0.184
22583WAT     H167991   0.490   9.195   0.117
22583WAT     H267992   0.353   9.124   0.170
22584WAT      O67993   2.648   3.206   0.880
22584WAT     H167994   2.711   3.180   0.807
22584WAT     H267995   2.581   3.134   0.893
22585WAT      O67996   2.423   7.770   5.544
22585WAT     H167997   2.509   7.745   5.499
22585WAT     H267998   2.408   7.711   5.623
22586WAT      O67999   9.298   6.836   0.479
22586WAT     H168000   9.351   6.919   0.464
22586WAT     H268001   9.264   6.801   0.391
22587WAT      O68002   7.654   7.634   4.285
22587WAT     H168003   7.655   7.705   4.355
22587WAT     H268004   7.620   7.672   4.199
22588WAT      O68005   5.184   1.200   0.425
22588WAT     H168006   5.145   1.285   0.461
22588WAT     H268007   5.129   1.123   0.455
22589WAT      O68008   6.920   7.300   5.416
22589WAT     H168009   6.826   7.272   5.394
22589WAT     H268010   6.965   7.227   5.467
22590WAT      O68011   6.667   5.367   7.475
22590WAT     H168012   6.646   5.309   7.396
22590WAT     H268013   6.586   5.419   7.501
22591WAT      O68014   4.440   0.064   6.148
22591WAT     H168015   4.438  -0.002   6.073
22591WAT     H268016   4.534   0.071   6.183
22592WAT      O68017   2.621   7.264   3.724
22592WAT     H168018   2.711   7.225   3.743
22592WAT     H268019   2.584   7.222   3.641
22593WAT      O68020   9.107   0.217   1.891
22593WAT     H168021   9.172   0.230   1.816
22593WAT     H268022   9.028   0.277   1.878
22594WAT      O68023   0.189   5.059   7.446
22594WAT     H168024   0.139   5.135   7.487
22594WAT     H268025   0.129   4.979   7.440
22595WAT      O68026   3.235   3.740   4.789
22595WAT     H168027   3.332   3.760   4.783
22595WAT     H268028   3.185   3.822   4.817
22596WAT      O68029   0.610   9.587   8.021
22596WAT     H168030   0.654   9.612   8.108
22596WAT     H268031   0.669   9.614   7.945
22597WAT      O68032   5.325   1.099   1.318
22597WAT     H168033   5.378   1.021   1.353
22597WAT     H268034   5.309   1.164   1.392
22598WAT      O68035   9.042   1.469   6.833
22598WAT     H168036   9.043   1.374   6.865
22598WAT     H268037   9.092   1.475   6.747
22599WAT      O68038   4.067   0.775   3.819
22599WAT     H168039   4.152   0.827   3.813
22599WAT     H268040   4.078   0.699   3.883
22600WAT      O68041   9.194   9.232   8.429
22600WAT     H168042   9.127   9.174   8.476
22600WAT     H268043   9.233   9.297   8.494
22601WAT      O68044   8.626   7.584   7.329
22601WAT     H168045   8.699   7.650   7.351
22601WAT     H268046   8.586   7.550   7.414
22602WAT      O68047   8.768   1.755   3.055
22602WAT     H168048   8.713   1.818   2.999
22602WAT     H268049   8.850   1.729   3.004
22603WAT      O68050   8.722   0.397   4.729
22603WAT     H168051   8.806   0.403   4.782
22603WAT     H268052   8.649   0.448   4.776
22604WAT      O68053   4.308   0.103   3.291
22604WAT     H168054   4.266   0.083   3.202
22604WAT     H268055   4.255   0.174   3.338
22605WAT      O68056   9.424   3.407   8.902
22605WAT     H168057   9.341   3.358   8.930
22605WAT     H268058   9.403   3.466   8.825
22606WAT      O68059   8.102   2.879   5.664
22606WAT     H168060   8.081   2.976   5.680
22606WAT     H268061   8.166   2.871   5.588
22607WAT      O68062   4.310   4.430   7.508
22607WAT     H168063   4.297   4.389   7.598
22607WAT     H268064   4.264   4.374   7.439
22608WAT      O68065   9.879   3.090   9.530
22608WAT     H168066   9.822   3.022   9.575
22608WAT     H268067   9.971   3.090   9.570
22609WAT      O68068   4.941   2.151   1.982
22609WAT     H168069   4.931   2.077   1.915
22609WAT     H268070   4.986   2.115   2.063
22610WAT      O68071   6.411   6.996   9.830
22610WAT     H168072   6.388   6.964   9.922
22610WAT     H268073   6.508   6.979   9.811
22611WAT      O68074   9.260   6.669   7.548
22611WAT     H168075   9.200   6.748   7.538
22611WAT     H268076   9.213   6.598   7.599
22612WAT      O68077   1.487   4.290   3.404
22612WAT     H168078   1.486   4.295   3.504
22612WAT     H268079   1.451   4.201   3.375
22613WAT      O68080   8.008   9.255   4.645
22613WAT     H168081   8.082   9.320   4.665
22613WAT     H268082   7.931   9.304   4.604
22614WAT      O68083   9.548   8.939   4.872
22614WAT     H168084   9.573   8.855   4.822
22614WAT     H268085   9.580   9.018   4.821
22615WAT      O68086   1.964   3.120   7.048
22615WAT     H168087   1.960   3.022   7.070
22615WAT     H268088   1.889   3.167   7.094
22616WAT      O68089   0.058   7.144   7.783
22616WAT     H168090   0.086   7.049   7.789
22616WAT     H268091   0.059   7.174   7.688
22617WAT      O68092   6.272   2.735   4.701
22617WAT     H168093   6.352   2.740   4.640
22617WAT     H268094   6.276   2.650   4.753
22618WAT      O68095   0.856   7.020   3.027
22618WAT     H168096   0.783   6.956   3.002
22618WAT     H268097   0.939   6.998   2.974
22619WAT      O68098   4.231   5.959   2.902
22619WAT     H168099   4.159   6.029   2.901
22619WAT     H268100   4.289   5.972   2.983
22620WAT      O68101   3.870   0.391   0.959
22620WAT     H168102   3.824   0.322   0.902
22620WAT     H268103   3.903   0.465   0.900
22621WAT      O68104   9.431   5.526   3.899
22621WAT     H168105   9.497   5.574   3.841
22621WAT     H268106   9.359   5.486   3.842
22622WAT      O68107   3.347   9.442   8.283
22622WAT     H168108   3.344   9.505   8.205
22622WAT     H268109   3.442   9.428   8.311
22623WAT      O68110   6.686   4.277   0.937
22623WAT     H168111   6.726   4.272   0.846
22623WAT     H268112   6.751   4.244   1.005
22624WAT      O68113   8.191   5.119   6.084
22624WAT     H168114   8.224   5.084   6.172
22624WAT     H268115   8.253   5.090   6.011
22625WAT      O68116   9.520   8.540   5.048
22625WAT     H168117   9.615   8.571   5.037
22625WAT     H268118   9.471   8.602   5.109
22626WAT      O68119   5.990   5.959   8.586
22626WAT     H168120   5.928   6.027   8.625
22626WAT     H268121   6.040   6.000   8.509
22627WAT      O68122   2.083   2.582   6.548
22627WAT     H168123   2.137   2.588   6.464
22627WAT     H268124   2.071   2.486   6.572
22628WAT      O68125   4.419   1.296   7.239
22628WAT     H168126   4.329   1.262   7.263
22628WAT     H268127   4.441   1.376   7.295
22629WAT      O68128   6.318   0.111   9.802
22629WAT     H168129   6.269   0.114   9.889
22629WAT     H268130   6.285   0.185   9.743
22630WAT      O68131   5.337   1.607   2.503
22630WAT     H168132   5.311   1.626   2.598
22630WAT     H268133   5.431   1.572   2.500
22631WAT      O68134   3.654   4.801   2.993
22631WAT     H168135   3.735   4.820   2.937
22631WAT     H268136   3.643   4.702   3.003
22632WAT      O68137   6.586   7.492   4.083
22632WAT     H168138   6.504   7.490   4.025
22632WAT     H268139   6.635   7.578   4.068
22633WAT      O68140   7.917   6.522   9.795
22633WAT     H168141   7.867   6.500   9.879
22633WAT     H268142   7.922   6.441   9.738
22634WAT      O68143   3.798   5.674   1.835
22634WAT     H168144   3.804   5.732   1.917
22634WAT     H268145   3.887   5.673   1.790
22635WAT      O68146   7.631   9.631   7.061
22635WAT     H168147   7.557   9.664   7.119
22635WAT     H268148   7.664   9.542   7.095
22636WAT      O68149   9.590   5.321   2.220
22636WAT     H168150   9.640   5.241   2.254
22636WAT     H268151   9.552   5.300   2.129
22637WAT      O68152   5.206   6.062   9.719
22637WAT     H168153   5.203   6.157   9.687
22637WAT     H268154   5.260   6.057   9.803
22638WAT      O68155   3.386   1.592   1.885
22638WAT     H168156   3.330   1.645   1.823
22638WAT     H268157   3.477   1.579   1.845
22639WAT      O68158   7.885   0.466   3.173
22639WAT     H168159   7.903   0.372   3.143
22639WAT     H268160   7.951   0.528   3.130
22640WAT      O68161   5.474   4.069   0.540
22640WAT     H168162   5.413   4.102   0.468
22640WAT     H268163   5.436   3.986   0.581
22641WAT      O68164   2.380   6.304   6.559
22641WAT     H168165   2.435   6.365   6.617
22641WAT     H268166   2.433   6.275   6.480
22642WAT      O68167   6.920   1.937   3.150
22642WAT     H168168   6.885   1.852   3.111
22642WAT     H268169   6.952   1.997   3.076
22643WAT      O68170   8.243   2.945   6.312
22643WAT     H168171   8.342   2.950   6.313
22643WAT     H268172   8.210   2.926   6.405
22644WAT      O68173   1.269   7.511   4.634
22644WAT     H168174   1.210   7.435   4.608
22644WAT     H268175   1.215   7.580   4.682
22645WAT      O68176   6.150   2.751   0.782
22645WAT     H168177   6.230   2.717   0.732
22645WAT     H268178   6.129   2.843   0.751
22646WAT      O68179   4.588   4.838   4.637
22646WAT     H168180   4.685   4.852   4.616
22646WAT     H268181   4.580   4.790   4.725
22647WAT      O68182   2.319   8.927   7.818
22647WAT     H168183   2.237   8.979   7.792
22647WAT     H268184   2.397   8.959   7.764
22648WAT      O68185   8.345   2.742   4.580
22648WAT     H168186   8.270   2.681   4.604
22648WAT     H268187   8.321   2.795   4.498
22649WAT      O68188   3.396   1.873   7.525
22649WAT     H168189   3.392   1.781   7.563
22649WAT     H268190   3.425   1.937   7.596
22650WAT      O68191   2.145   6.511   1.733
22650WAT     H168192   2.101   6.456   1.805
22650WAT     H268193   2.166   6.601   1.769
22651WAT      O68194   0.419   6.454   4.979
22651WAT     H168195   0.419   6.355   4.995
22651WAT     H268196   0.363   6.499   5.048
22652WAT      O68197   7.587   2.793   0.597
22652WAT     H168198   7.563   2.886   0.623
22652WAT     H268199   7.686   2.782   0.600
22653WAT      O68200   5.186   3.075   7.866
22653WAT     H168201   5.281   3.044   7.856
22653WAT     H268202   5.132   3.044   7.787
22654WAT      O68203   4.298   8.144   4.245
22654WAT     H168204   4.372   8.189   4.295
22654WAT     H268205   4.246   8.213   4.194
22655WAT      O68206   5.822   9.649   5.620
22655WAT     H168207   5.729   9.659   5.585
22655WAT     H268208   5.858   9.739   5.644
22656WAT      O68209   3.867   3.516   8.923
22656WAT     H168210   3.910   3.557   9.003
22656WAT     H268211   3.840   3.588   8.860
22657WAT      O68212   5.252   9.827   4.675
22657WAT     H168213   5.349   9.826   4.650
22657WAT     H268214   5.243   9.854   4.771
22658WAT      O68215   8.001   5.518   0.572
22658WAT     H168216   7.926   5.508   0.505
22658WAT     H268217   8.016   5.616   0.589
22659WAT      O68218   0.371   3.448   5.781
22659WAT     H168219   0.418   3.534   5.800
22659WAT     H268220   0.294   3.464   5.720
22660WAT      O68221   4.142   5.695   2.855
22660WAT     H168222   4.110   5.668   2.764
22660WAT     H268223   4.157   5.794   2.857
22661WAT      O68224   3.388   8.673   2.128
22661WAT     H168225   3.359   8.614   2.052
22661WAT     H268226   3.448   8.745   2.092
22662WAT      O68227   5.243   9.530   5.276
22662WAT     H168228   5.212   9.624   5.260
22662WAT     H268229   5.202   9.495   5.360
22663WAT      O68230   2.121   7.133   6.879
22663WAT     H168231   2.158   7.224   6.862
22663WAT     H268232   2.026   7.130   6.848
22664WAT      O68233   3.024   1.581   8.449
22664WAT     H168234   2.996   1.551   8.540
22664WAT     H268235   3.094   1.652   8.458
22665WAT      O68236   3.611   6.249   5.666
22665WAT     H168237   3.643   6.201   5.584
22665WAT     H268238   3.688   6.293   5.712
22666WAT      O68239   6.694   2.168   6.456
22666WAT     H168240   6.716   2.201   6.364
22666WAT     H268241   6.709   2.241   6.522
22667WAT      O68242   1.169   6.749   2.158
22667WAT     H168243   1.173   6.684   2.082
22667WAT     H268244   1.074   6.758   2.190
22668WAT      O68245   5.993   9.108   2.063
22668WAT     H168246   5.931   9.035   2.032
22668WAT     H268247   6.032   9.154   1.983
22669WAT      O68248   1.723   2.706   3.407
22669WAT     H168249   1.703   2.760   3.489
22669WAT     H268250   1.692   2.757   3.326
22670WAT      O68251   3.950   6.036   2.384
22670WAT     H168252   3.901   6.078   2.461
22670WAT     H268253   3.912   6.068   2.298
22671WAT      O68254   1.831   7.949   6.407
22671WAT     H168255   1.862   7.945   6.312
22671WAT     H268256   1.908   7.974   6.466
22672WAT      O68257   4.875   6.038   2.348
22672WAT     H168258   4.794   5.979   2.345
22672WAT     H268259   4.856   6.124   2.301
22673WAT      O68260   8.358   0.311   7.039
22673WAT     H168261   8.439   0.354   6.999
22673WAT     H268262   8.364   0.212   7.029
22674WAT      O68263   5.293   2.119   7.852
22674WAT     H168264   5.386   2.082   7.855
22674WAT     H268265   5.297   2.219   7.856
22675WAT      O68266   0.808   2.674   3.508
22675WAT     H168267   0.773   2.705   3.596
22675WAT     H268268   0.739   2.616   3.464
22676WAT      O68269   1.960   1.998   4.002
22676WAT     H168270   1.879   1.989   3.944
22676WAT     H268271   2.005   1.909   4.011
22677WAT      O68272   6.326   7.257   4.188
22677WAT     H168273   6.404   7.227   4.242
22677WAT     H268274   6.340   7.231   4.092
22678WAT      O68275   0.541   7.712   0.860
22678WAT     H168276   0.453   7.689   0.818
22678WAT     H268277   0.572   7.635   0.916
22679WAT      O68278   8.350   9.390   8.722
22679WAT     H168279   8.332   9.457   8.794
22679WAT     H268280   8.264   9.367   8.676
22680WAT      O68281   6.685   0.365   7.480
22680WAT     H168282   6.595   0.364   7.523
22680WAT     H268283   6.675   0.372   7.380
22681WAT      O68284   5.161   7.936   3.960
22681WAT     H168285   5.135   7.980   3.874
22681WAT     H268286   5.239   7.875   3.943
22682WAT      O68287   1.268   6.385   9.029
22682WAT     H168288   1.215   6.300   9.025
22682WAT     H268289   1.347   6.371   9.089
22683WAT      O68290   1.351   9.449   0.242
22683WAT     H168291   1.290   9.487   0.172
22683WAT     H268292   1.425   9.514   0.261
22684WAT      O68293   8.526   2.208   1.833
22684WAT     H168294   8.503   2.155   1.915
22684WAT     H268295   8.474   2.294   1.833
22685WAT      O68296   0.082   9.559   4.467
22685WAT     H168297  -0.012   9.525   4.471
22685WAT     H268298   0.108   9.576   4.372
22686WAT      O68299   4.052   8.713   1.682
22686WAT     H168300   3.959   8.687   1.656
22686WAT     H268301   4.102   8.741   1.600
22687WAT      O68302   7.599   9.074   2.898
22687WAT     H168303   7.577   9.037   2.808
22687WAT     H268304   7.578   9.171   2.901
22688WAT      O68305   7.240   6.671   6.579
22688WAT     H168306   7.270   6.723   6.659
22688WAT     H268307   7.147   6.697   6.555
22689WAT      O68308   7.635   6.864   1.491
22689WAT     H168309   7.674   6.772   1.495
22689WAT     H268310   7.709   6.931   1.497
22690WAT      O68311   8.367   2.171   7.044
22690WAT     H168312   8.292   2.203   6.986
22690WAT     H268313   8.415   2.097   6.998
22691WAT      O68314   3.624   8.521   6.331
22691WAT     H168315   3.562   8.492   6.258
22691WAT     H268316   3.627   8.621   6.334
22692WAT      O68317   6.754   2.501   6.155
22692WAT     H168318   6.655   2.514   6.149
22692WAT     H268319   6.800   2.590   6.150
22693WAT      O68320   0.198   2.900   7.909
22693WAT     H168321   0.163   2.948   7.989
22693WAT     H268322   0.294   2.877   7.924
22694WAT      O68323   4.305   9.672   4.402
22694WAT     H168324   4.340   9.766   4.398
22694WAT     H268325   4.357   9.615   4.339
22695WAT      O68326   6.380   5.943   8.490
22695WAT     H168327   6.361   6.039   8.472
22695WAT     H268328   6.328   5.914   8.571
22696WAT      O68329   7.101   3.612   8.454
22696WAT     H168330   7.011   3.597   8.496
22696WAT     H268331   7.092   3.608   8.355
22697WAT      O68332   8.863   8.734   1.811
22697WAT     H168333   8.947   8.733   1.757
22697WAT     H268334   8.793   8.679   1.764
22698WAT      O68335   7.008   6.804   1.793
22698WAT     H168336   6.943   6.780   1.721
22698WAT     H268337   7.074   6.870   1.758
22699WAT      O68338   7.346   8.039   5.776
22699WAT     H168339   7.358   7.966   5.709
22699WAT     H268340   7.371   8.005   5.867
22700WAT      O68341   8.600   9.797   1.417
22700WAT     H168342   8.567   9.788   1.511
22700WAT     H268343   8.679   9.858   1.414
22701WAT      O68344   9.706   1.571   0.632
22701WAT     H168345   9.769   1.533   0.701
22701WAT     H268346   9.659   1.496   0.586
22702WAT      O68347   3.264   0.698   2.552
22702WAT     H168348   3.326   0.694   2.473
22702WAT     H268349   3.295   0.635   2.623
22703WAT      O68350   9.863   8.921   3.278
22703WAT     H168351   9.803   8.996   3.307
22703WAT     H268352   9.809   8.853   3.229
22704WAT      O68353   0.194   3.728   8.017
22704WAT     H168354   0.162   3.638   8.049
22704WAT     H268355   0.289   3.741   8.046
22705WAT      O68356   1.784   0.095   3.763
22705WAT     H168357   1.773   0.006   3.806
22705WAT     H268358   1.706   0.114   3.704
22706WAT      O68359   9.720   9.429   4.405
22706WAT     H168360   9.667   9.347   4.384
22706WAT     H268361   9.689   9.504   4.347
22707WAT      O68362   6.050   0.405   8.912
22707WAT     H168363   6.137   0.388   8.865
22707WAT     H268364   5.975   0.386   8.849
22708WAT      O68365   1.931   9.012   6.689
22708WAT     H168366   1.999   9.027   6.761
22708WAT     H268367   1.870   8.938   6.717
22709WAT      O68368   7.623   8.516   8.779
22709WAT     H168369   7.663   8.526   8.688
22709WAT     H268370   7.668   8.441   8.827
22710WAT      O68371   9.775   1.657   0.145
22710WAT     H168372   9.807   1.744   0.109
22710WAT     H268373   9.721   1.673   0.228
22711WAT      O68374   6.204   0.495   5.758
22711WAT     H168375   6.183   0.528   5.666
22711WAT     H268376   6.250   0.567   5.810
22712WAT      O68377   2.253   6.244   8.089
22712WAT     H168378   2.299   6.220   8.175
22712WAT     H268379   2.316   6.298   8.032
22713WAT      O68380   0.816   0.169   8.103
22713WAT     H168381   0.867   0.090   8.068
22713WAT     H268382   0.850   0.193   8.194
22714WAT      O68383   0.074   1.524   3.225
22714WAT     H168384   0.163   1.490   3.253
22714WAT     H268385   0.085   1.614   3.182
22715WAT      O68386   5.805   5.346   6.609
22715WAT     H168387   5.904   5.342   6.593
22715WAT     H268388   5.757   5.301   6.534
22716WAT      O68389   9.646   4.136   7.944
22716WAT     H168390   9.690   4.226   7.937
22716WAT     H268391   9.710   4.070   7.982
22717WAT      O68392   2.300   2.385   9.487
22717WAT     H168393   2.245   2.304   9.465
22717WAT     H268394   2.280   2.415   9.581
22718WAT      O68395   0.203   5.655   6.978
22718WAT     H168396   0.119   5.703   6.954
22718WAT     H268397   0.211   5.572   6.923
22719WAT      O68398   5.174   3.201   1.918
22719WAT     H168399   5.120   3.117   1.927
22719WAT     H268400   5.272   3.177   1.918
22720WAT      O68401   6.056   7.765   4.122
22720WAT     H168402   6.063   7.841   4.057
22720WAT     H268403   6.124   7.777   4.194
22721WAT      O68404   1.229   1.520   7.131
22721WAT     H168405   1.197   1.448   7.192
22721WAT     H268406   1.159   1.591   7.122
22722WAT      O68407   7.972   4.239   2.584
22722WAT     H168408   7.929   4.267   2.499
22722WAT     H268409   7.985   4.140   2.584
22723WAT      O68410   7.496   7.602   1.479
22723WAT     H168411   7.410   7.552   1.488
22723WAT     H268412   7.499   7.648   1.390
22724WAT      O68413   3.464   1.579   9.072
22724WAT     H168414   3.395   1.596   9.142
22724WAT     H268415   3.510   1.493   9.092
22725WAT      O68416   6.911   7.140   6.319
22725WAT     H168417   6.922   7.156   6.417
22725WAT     H268418   6.814   7.150   6.295
22726WAT      O68419   8.130   9.636   8.238
22726WAT     H168420   8.063   9.623   8.165
22726WAT     H268421   8.156   9.547   8.276
22727WAT      O68422   8.255   0.977   2.539
22727WAT     H168423   8.240   0.886   2.579
22727WAT     H268424   8.210   1.046   2.595
22728WAT      O68425   4.907   4.484   6.268
22728WAT     H168426   4.948   4.433   6.193
22728WAT     H268427   4.873   4.420   6.337
22729WAT      O68428   1.122   1.615   0.957
22729WAT     H168429   1.121   1.673   0.876
22729WAT     H268430   1.028   1.590   0.981
22730WAT      O68431   7.091   4.474   3.820
22730WAT     H168432   7.130   4.449   3.908
22730WAT     H268433   7.125   4.565   3.794
22731WAT      O68434   5.206   2.274   6.330
22731WAT     H168435   5.272   2.218   6.380
22731WAT     H268436   5.133   2.303   6.392
22732WAT      O68437   4.461   4.016   5.694
22732WAT     H168438   4.364   4.024   5.671
22732WAT     H268439   4.473   4.031   5.792
22733WAT      O68440   4.263   4.794   9.033
22733WAT     H168441   4.190   4.754   9.089
22733WAT     H268442   4.352   4.766   9.069
22734WAT      O68443   7.602   9.122   4.258
22734WAT     H168444   7.533   9.057   4.224
22734WAT     H268445   7.693   9.082   4.248
22735WAT      O68446   9.240   6.340   3.351
22735WAT     H168447   9.304   6.269   3.321
22735WAT     H268448   9.290   6.411   3.400
22736WAT      O68449   8.906   2.899   6.773
22736WAT     H168450   8.889   2.895   6.675
22736WAT     H268451   8.979   2.964   6.792
22737WAT      O68452   7.478   9.449   5.305
22737WAT     H168453   7.566   9.494   5.293
22737WAT     H268454   7.491   9.359   5.346
22738WAT      O68455   5.143   5.602   9.417
22738WAT     H168456   5.191   5.517   9.437
22738WAT     H268457   5.140   5.659   9.499
22739WAT      O68458   5.787   2.055   6.674
22739WAT     H168459   5.843   2.061   6.591
22739WAT     H268460   5.749   1.963   6.682
22740WAT      O68461   9.118   2.449   6.565
22740WAT     H168462   9.077   2.367   6.606
22740WAT     H268463   9.186   2.422   6.497
22741WAT      O68464   6.155   8.266   7.805
22741WAT     H168465   6.101   8.197   7.757
22741WAT     H268466   6.140   8.258   7.904
22742WAT      O68467   3.046   3.266   7.911
22742WAT     H168468   3.025   3.313   7.996
22742WAT     H268469   3.000   3.177   7.910
22743WAT      O68470   2.352   1.499   6.607
22743WAT     H168471   2.282   1.531   6.543
22743WAT     H268472   2.327   1.527   6.700
22744WAT      O68473   1.870   0.594   8.521
22744WAT     H168474   1.934   0.516   8.519
22744WAT     H268475   1.884   0.646   8.605
22745WAT      O68476   0.460   4.482   0.498
22745WAT     H168477   0.554   4.510   0.516
22745WAT     H268478   0.408   4.484   0.584
22746WAT      O68479   1.907   0.644   7.504
22746WAT     H168480   1.915   0.608   7.411
22746WAT     H268481   1.855   0.579   7.560
22747WAT      O68482   1.614   3.149   2.897
22747WAT     H168483   1.660   3.219   2.842
22747WAT     H268484   1.681   3.102   2.954
22748WAT      O68485   5.294   2.953   4.633
22748WAT     H168486   5.220   2.889   4.614
22748WAT     H268487   5.296   3.024   4.563
22749WAT      O68488   4.262   7.760   7.339
22749WAT     H168489   4.267   7.747   7.438
22749WAT     H268490   4.301   7.681   7.293
22750WAT      O68491   4.754   9.650   6.512
22750WAT     H168492   4.759   9.749   6.497
22750WAT     H268493   4.691   9.609   6.446
22751WAT      O68494   6.418   7.356   5.291
22751WAT     H168495   6.323   7.378   5.313
22751WAT     H268496   6.420   7.282   5.224
22752WAT      O68497   4.541   9.830   2.288
22752WAT     H168498   4.473   9.782   2.343
22752WAT     H268499   4.616   9.768   2.266
22753WAT      O68500   0.528   9.101   8.691
22753WAT     H168501   0.476   9.084   8.775
22753WAT     H268502   0.464   9.113   8.615
22754WAT      O68503   2.992   1.151   6.528
22754WAT     H168504   3.078   1.110   6.499
22754WAT     H268505   2.992   1.162   6.628
22755WAT      O68506   3.228   6.450   5.809
22755WAT     H168507   3.282   6.516   5.862
22755WAT     H268508   3.270   6.438   5.719
22756WAT      O68509   2.037   6.080   9.057
22756WAT     H168510   2.108   6.149   9.074
22756WAT     H268511   2.067   6.018   8.985
22757WAT      O68512   9.278   7.083   8.545
22757WAT     H168513   9.343   7.157   8.560
22757WAT     H268514   9.192   7.122   8.511
22758WAT      O68515   7.790   5.052   7.485
22758WAT     H168516   7.796   5.151   7.497
22758WAT     H268517   7.711   5.017   7.536
22759WAT      O68518   0.026   0.860   3.579
22759WAT     H168519  -0.063   0.824   3.551
22759WAT     H268520   0.039   0.844   3.677
22760WAT      O68521   6.995   6.290   7.870
22760WAT     H168522   7.094   6.273   7.865
22760WAT     H268523   6.960   6.308   7.778
22761WAT      O68524   7.226   0.153   3.832
22761WAT     H168525   7.226   0.253   3.824
22761WAT     H268526   7.192   0.127   3.922
22762WAT      O68527   0.455   4.774   2.906
22762WAT     H168528   0.496   4.861   2.880
22762WAT     H268529   0.388   4.747   2.837
22763WAT      O68530   1.821   0.342   5.357
22763WAT     H168531   1.766   0.424   5.346
22763WAT     H268532   1.768   0.271   5.403
22764WAT      O68533   0.837   5.173   4.409
22764WAT     H168534   0.756   5.185   4.351
22764WAT     H268535   0.843   5.077   4.437
22765WAT      O68536   1.964   2.088   3.487
22765WAT     H168537   1.974   2.187   3.498
22765WAT     H268538   2.050   2.043   3.512
22766WAT      O68539   6.293   7.530   7.531
22766WAT     H168540   6.226   7.545   7.458
22766WAT     H268541   6.247   7.528   7.620
22767WAT      O68542   2.365   8.909   5.508
22767WAT     H168543   2.312   8.825   5.518
22767WAT     H268544   2.392   8.921   5.413
22768WAT      O68545   8.324   1.304   6.284
22768WAT     H168546   8.321   1.234   6.213
22768WAT     H268547   8.397   1.370   6.262
22769WAT      O68548   9.831   6.726   7.614
22769WAT     H168549   9.786   6.795   7.671
22769WAT     H268550   9.772   6.704   7.536
22770WAT      O68551   9.680   8.920   1.042
22770WAT     H168552   9.645   8.965   1.124
22770WAT     H268553   9.702   8.988   0.973
22771WAT      O68554   6.521   8.047   4.192
22771WAT     H168555   6.582   8.016   4.265
22771WAT     H268556   6.438   8.087   4.232
22772WAT      O68557   2.230   6.728   6.711
22772WAT     H168558   2.318   6.723   6.664
22772WAT     H268559   2.157   6.739   6.643
22773WAT      O68560   0.582   2.231   8.530
22773WAT     H168561   0.493   2.187   8.524
22773WAT     H268562   0.638   2.206   8.451
22774WAT      O68563   5.391   4.922   0.390
22774WAT     H168564   5.303   4.966   0.406
22774WAT     H268565   5.437   4.905   0.477
22775WAT      O68566   1.703   8.591   1.160
22775WAT     H168567   1.612   8.625   1.136
22775WAT     H268568   1.751   8.563   1.077
22776WAT      O68569   9.637   0.408   0.216
22776WAT     H168570   9.683   0.478   0.271
22776WAT     H268571   9.538   0.419   0.225
22777WAT      O68572   6.430   7.183   9.374
22777WAT     H168573   6.423   7.104   9.435
22777WAT     H268574   6.400   7.158   9.282
22778WAT      O68575   5.604   3.663   6.425
22778WAT     H168576   5.698   3.649   6.396
22778WAT     H268577   5.564   3.739   6.373
22779WAT      O68578   6.418   7.788   6.529
22779WAT     H168579   6.500   7.828   6.489
22779WAT     H268580   6.396   7.702   6.483
22780WAT      O68581   7.314   9.734   0.551
22780WAT     H168582   7.264   9.705   0.469
22780WAT     H268583   7.346   9.828   0.539
22781WAT      O68584   3.921   7.333   8.617
22781WAT     H168585   3.990   7.405   8.616
22781WAT     H268586   3.835   7.368   8.579
22782WAT      O68587   8.097   4.052   2.860
22782WAT     H168588   8.048   4.098   2.934
22782WAT     H268589   8.032   4.027   2.788
22783WAT      O68590   7.853   4.825   4.262
22783WAT     H168591   7.831   4.757   4.192
22783WAT     H268592   7.884   4.909   4.218
22784WAT      O68593   9.450   0.265   1.068
22784WAT     H168594   9.443   0.284   0.971
22784WAT     H268595   9.370   0.214   1.099
22785WAT      O68596   6.147   1.351   1.930
22785WAT     H168597   6.155   1.344   2.029
22785WAT     H268598   6.219   1.409   1.894
22786WAT      O68599   8.184   3.397   8.233
22786WAT     H168600   8.110   3.459   8.257
22786WAT     H268601   8.268   3.449   8.219
22787WAT      O68602   5.374   9.508   6.411
22787WAT     H168603   5.396   9.445   6.485
22787WAT     H268604   5.291   9.558   6.433
22788WAT      O68605   2.121   6.532   8.913
22788WAT     H168606   2.155   6.496   9.000
22788WAT     H268607   2.193   6.588   8.870
22789WAT      O68608   1.855   1.677   0.984
22789WAT     H168609   1.778   1.697   0.924
22789WAT     H268610   1.868   1.578   0.989
22790WAT      O68611   1.763   4.735   2.116
22790WAT     H168612   1.806   4.804   2.057
22790WAT     H268613   1.830   4.702   2.182
22791WAT      O68614   2.326   1.878   2.390
22791WAT     H168615   2.355   1.789   2.355
22791WAT     H268616   2.228   1.890   2.376
22792WAT      O68617   3.573   1.873   4.479
22792WAT     H168618   3.597   1.780   4.451
22792WAT     H268619   3.576   1.933   4.400
22793WAT      O68620   6.251   8.897   8.876
22793WAT     H168621   6.230   8.900   8.778
22793WAT     H268622   6.284   8.806   8.901
22794WAT      O68623   0.428   7.847   7.622
22794WAT     H168624   0.390   7.758   7.595
22794WAT     H268625   0.504   7.870   7.561
22795WAT      O68626   4.319   5.478   8.084
22795WAT     H168627   4.368   5.519   8.007
22795WAT     H268628   4.243   5.536   8.111
22796WAT      O68629   9.766   3.755   3.177
22796WAT     H168630   9.690   3.702   3.137
22796WAT     H268631   9.776   3.841   3.128
22797WAT      O68632   2.423   0.989   5.263
22797WAT     H168633   2.479   1.071   5.274
22797WAT     H268634   2.332   1.016   5.229
22798WAT      O68635   1.747   8.967   0.198
22798WAT     H168636   1.738   9.018   0.284
22798WAT     H268637   1.842   8.971   0.167
22799WAT      O68638   9.592   2.726   0.467
22799WAT     H168639   9.576   2.823   0.483
22799WAT     H268640   9.547   2.673   0.539
22800WAT      O68641   3.620   8.508   9.856
22800WAT     H168642   3.688   8.563   9.903
22800WAT     H268643   3.666   8.444   9.794
22801WAT      O68644   1.461   2.267   2.904
22801WAT     H168645   1.540   2.212   2.876
22801WAT     H268646   1.469   2.359   2.865
22802WAT      O68647   1.969   8.831   3.927
22802WAT     H168648   1.957   8.764   4.000
22802WAT     H268649   2.066   8.836   3.901
22803WAT      O68650   1.290   1.634   1.189
22803WAT     H168651   1.370   1.585   1.156
22803WAT     H268652   1.224   1.646   1.115
22804WAT      O68653   2.084   1.407   4.448
22804WAT     H168654   2.016   1.333   4.447
22804WAT     H268655   2.106   1.431   4.542
22805WAT      O68656   5.483   5.441   1.652
22805WAT     H168657   5.415   5.432   1.579
22805WAT     H268658   5.491   5.538   1.677
22806WAT      O68659   6.192   2.573   0.464
22806WAT     H168660   6.142   2.620   0.391
22806WAT     H268661   6.285   2.552   0.434
22807WAT      O68662   6.227   4.296   7.107
22807WAT     H168663   6.233   4.202   7.142
22807WAT     H268664   6.140   4.307   7.058
22808WAT      O68665   2.606   9.512   8.629
22808WAT     H168666   2.535   9.512   8.700
22808WAT     H268667   2.659   9.428   8.635
22809WAT      O68668   2.889   8.232   0.371
22809WAT     H168669   2.887   8.155   0.435
22809WAT     H268670   2.965   8.292   0.395
22810WAT      O68671   8.935   8.476   4.723
22810WAT     H168672   8.907   8.564   4.685
22810WAT     H268673   8.876   8.452   4.799
22811WAT      O68674   5.853   0.684   6.268
22811WAT     H168675   5.766   0.693   6.316
22811WAT     H268676   5.895   0.596   6.292
22812WAT      O68677   8.989   7.506   3.524
22812WAT     H168678   9.081   7.513   3.485
22812WAT     H268679   8.974   7.414   3.559
22813WAT      O68680   5.686   9.577   4.355
22813WAT     H168681   5.670   9.548   4.260
22813WAT     H268682   5.752   9.651   4.357
22814WAT      O68683   1.641   5.723   2.528
22814WAT     H168684   1.576   5.798   2.514
22814WAT     H268685   1.636   5.660   2.451
22815WAT      O68686   6.222   0.169   7.263
22815WAT     H168687   6.295   0.109   7.298
22815WAT     H268688   6.209   0.152   7.166
22816WAT      O68689   7.295   9.049   8.750
22816WAT     H168690   7.273   9.004   8.837
22816WAT     H268691   7.213   9.056   8.695
22817WAT      O68692   0.975   8.987   7.634
22817WAT     H168693   1.017   8.943   7.555
22817WAT     H268694   0.899   9.045   7.603
22818WAT      O68695   2.806   2.041   3.828
22818WAT     H168696   2.857   2.024   3.913
22818WAT     H268697   2.743   1.965   3.811
22819WAT      O68698   0.392   3.427   2.000
22819WAT     H168699   0.407   3.486   1.921
22819WAT     H268700   0.296   3.433   2.028
22820WAT      O68701   6.036   8.550   5.979
22820WAT     H168702   6.030   8.629   5.918
22820WAT     H268703   6.025   8.466   5.927
22821WAT      O68704   4.065   7.298   5.173
22821WAT     H168705   3.996   7.273   5.241
22821WAT     H268706   4.130   7.363   5.213
22822WAT      O68707   5.897   3.905   0.044
22822WAT     H168708   5.899   3.827   0.107
22822WAT     H268709   5.911   3.873  -0.050
22823WAT      O68710   6.545   1.780   6.482
22823WAT     H168711   6.630   1.727   6.470
22823WAT     H268712   6.540   1.813   6.576
22824WAT      O68713   9.395   6.703   0.208
22824WAT     H168714   9.391   6.800   0.187
22824WAT     H268715   9.451   6.656   0.141
22825WAT      O68716   8.887   7.234   5.025
22825WAT     H168717   8.969   7.180   5.005
22825WAT     H268718   8.818   7.175   5.069
22826WAT      O68719   8.667   8.872   6.618
22826WAT     H168720   8.693   8.944   6.553
22826WAT     H268721   8.620   8.799   6.569
22827WAT      O68722   6.479   0.193   5.381
22827WAT     H168723   6.555   0.197   5.447
22827WAT     H268724   6.399   0.153   5.426
22828WAT      O68725   2.210   9.645   1.208
22828WAT     H168726   2.163   9.603   1.285
22828WAT     H268727   2.152   9.640   1.126
22829WAT      O68728   4.902   9.674   7.678
22829WAT     H168729   4.964   9.723   7.617
22829WAT     H268730   4.897   9.578   7.651
22830WAT      O68731   5.712   9.631   2.713
22830WAT     H168732   5.617   9.620   2.742
22830WAT     H268733   5.772   9.581   2.777
22831WAT      O68734   8.220   4.526   5.556
22831WAT     H168735   8.124   4.502   5.572
22831WAT     H268736   8.248   4.492   5.467
22832WAT      O68737   0.846   2.470   7.587
22832WAT     H168738   0.754   2.437   7.607
22832WAT     H268739   0.913   2.417   7.640
22833WAT      O68740   3.383   7.687   7.790
22833WAT     H168741   3.318   7.617   7.761
22833WAT     H268742   3.383   7.694   7.890
22834WAT      O68743   5.403   2.666   6.696
22834WAT     H168744   5.321   2.630   6.740
22834WAT     H268745   5.480   2.605   6.714
22835WAT      O68746   1.604   5.051   4.407
22835WAT     H168747   1.622   5.058   4.309
22835WAT     H268748   1.612   5.141   4.450
22836WAT      O68749   4.244   3.096   6.962
22836WAT     H168750   4.175   3.118   6.893
22836WAT     H268751   4.278   3.003   6.948
22837WAT      O68752   7.628   5.855   2.943
22837WAT     H168753   7.650   5.802   2.861
22837WAT     H268754   7.666   5.947   2.934
22838WAT      O68755   3.428   9.441   9.645
22838WAT     H168756   3.422   9.391   9.732
22838WAT     H268757   3.401   9.381   9.570
22839WAT      O68758   0.071   3.250   9.786
22839WAT     H168759   0.075   3.157   9.823
22839WAT     H268760   0.112   3.252   9.695
22840WAT      O68761   0.441   1.073   2.547
22840WAT     H168762   0.362   1.046   2.602
22840WAT     H268763   0.410   1.097   2.455
22841WAT      O68764   0.277   4.417   4.483
22841WAT     H168765   0.336   4.342   4.514
22841WAT     H268766   0.285   4.427   4.384
22842WAT      O68767   0.013   5.222   7.842
22842WAT     H168768   0.046   5.316   7.855
22842WAT     H268769   0.039   5.167   7.922
22843WAT      O68770   7.403   7.899   2.700
22843WAT     H168771   7.483   7.954   2.727
22843WAT     H268772   7.430   7.835   2.628
22844WAT      O68773   6.742   0.592   1.294
22844WAT     H168774   6.819   0.539   1.260
22844WAT     H268775   6.657   0.540   1.282
22845WAT      O68776   3.802   2.737   9.701
22845WAT     H168777   3.803   2.830   9.737
22845WAT     H268778   3.716   2.693   9.726
22846WAT      O68779   3.169   2.977   0.640
22846WAT     H168780   3.264   2.987   0.669
22846WAT     H268781   3.109   3.019   0.707
22847WAT      O68782   5.653   8.603   2.711
22847WAT     H168783   5.604   8.607   2.798
22847WAT     H268784   5.652   8.694   2.668
22848WAT      O68785   4.331   4.101   6.904
22848WAT     H168786   4.333   4.133   6.999
22848WAT     H268787   4.299   4.006   6.902
22849WAT      O68788   4.283   5.072   6.282
22849WAT     H168789   4.243   5.041   6.368
22849WAT     H268790   4.343   5.001   6.245
22850WAT      O68791   5.352   8.224   3.908
22850WAT     H168792   5.253   8.236   3.921
22850WAT     H268793   5.388   8.166   3.981
22851WAT      O68794   7.709   1.066   1.204
22851WAT     H168795   7.635   1.003   1.177
22851WAT     H268796   7.686   1.159   1.175
22852WAT      O68797   2.623   2.542   3.107
22852WAT     H168798   2.597   2.589   3.023
22852WAT     H268799   2.718   2.562   3.129
22853WAT      O68800   6.821   7.268   9.657
22853WAT     H168801   6.913   7.236   9.635
22853WAT     H268802   6.772   7.290   9.572
22854WAT      O68803   4.358   4.435   3.221
22854WAT     H168804   4.315   4.386   3.297
22854WAT     H268805   4.291   4.453   3.150
22855WAT      O68806   8.679   0.815   4.817
22855WAT     H168807   8.660   0.911   4.796
22855WAT     H268808   8.704   0.806   4.914
22856WAT      O68809   5.790   1.164   4.495
22856WAT     H168810   5.765   1.141   4.589
22856WAT     H268811   5.720   1.222   4.454
22857WAT      O68812   5.004   5.204   5.884
22857WAT     H168813   4.941   5.191   5.808
22857WAT     H268814   5.073   5.272   5.860
22858WAT      O68815   8.683   7.375   5.593
22858WAT     H168816   8.718   7.453   5.645
22858WAT     H268817   8.725   7.291   5.628
22859WAT      O68818   3.051   9.603   6.613
22859WAT     H168819   3.095   9.678   6.663
22859WAT     H268820   2.961   9.585   6.652
22860WAT      O68821   6.551   5.848   0.846
22860WAT     H168822   6.620   5.776   0.837
22860WAT     H268823   6.460   5.808   0.839
22861WAT      O68824   1.497   0.523   3.432
22861WAT     H168825   1.450   0.436   3.416
22861WAT     H268826   1.589   0.504   3.468
22862WAT      O68827   7.484   2.016   6.735
22862WAT     H168828   7.550   2.067   6.789
22862WAT     H268829   7.436   1.951   6.794
22863WAT      O68830   0.579   8.648   2.704
22863WAT     H168831   0.523   8.637   2.622
22863WAT     H268832   0.531   8.609   2.782
22864WAT      O68833   1.470   2.569   4.064
22864WAT     H168834   1.541   2.503   4.040
22864WAT     H268835   1.508   2.637   4.126
22865WAT      O68836   2.589   0.412   4.603
22865WAT     H168837   2.673   0.412   4.549
22865WAT     H268838   2.609   0.444   4.696
22866WAT      O68839   9.508   9.329   5.701
22866WAT     H168840   9.521   9.366   5.609
22866WAT     H268841   9.459   9.241   5.695
22867WAT      O68842   8.966   8.826   5.690
22867WAT     H168843   8.890   8.761   5.692
22867WAT     H268844   8.932   8.917   5.669
22868WAT      O68845   9.356   0.255   2.020
22868WAT     H168846   9.256   0.258   2.018
22868WAT     H268847   9.387   0.160   2.014
22869WAT      O68848   1.511   6.846   5.462
22869WAT     H168849   1.482   6.759   5.423
22869WAT     H268850   1.532   6.833   5.560
22870WAT      O68851   3.334   0.466   2.699
22870WAT     H168852   3.405   0.468   2.770
22870WAT     H268853   3.244   0.473   2.742
22871WAT      O68854   0.326   7.115   5.815
22871WAT     H168855   0.232   7.081   5.815
22871WAT     H268856   0.336   7.181   5.890
22872WAT      O68857   3.765   0.051   9.281
22872WAT     H168858   3.671   0.044   9.315
22872WAT     H268859   3.807  -0.040   9.280
22873WAT      O68860   2.003   5.604   3.142
22873WAT     H168861   2.039   5.512   3.151
22873WAT     H268862   1.916   5.601   3.093
22874WAT      O68863   8.849   3.306   6.539
22874WAT     H168864   8.846   3.364   6.457
22874WAT     H268865   8.792   3.225   6.524
22875WAT      O68866   6.996   7.996   9.314
22875WAT     H168867   6.943   8.006   9.230
22875WAT     H268868   7.079   7.944   9.295
22876WAT      O68869   3.336   6.270   5.185
22876WAT     H168870   3.393   6.254   5.104
22876WAT     H268871   3.352   6.197   5.251
22877WAT      O68872   8.312   1.410   1.797
22877WAT     H168873   8.255   1.491   1.807
22877WAT     H268874   8.373   1.421   1.719
22878WAT      O68875   4.182   2.976   4.969
22878WAT     H168876   4.251   2.960   4.898
22878WAT     H268877   4.181   2.898   5.032
22879WAT      O68878   1.811   2.666   3.835
22879WAT     H168879   1.838   2.664   3.931
22879WAT     H268880   1.711   2.675   3.828
22880WAT      O68881   7.272   4.983   8.747
22880WAT     H168882   7.189   4.963   8.696
22880WAT     H268883   7.352   4.965   8.689
22881WAT      O68884   8.583   6.340   1.842
22881WAT     H168885   8.489   6.351   1.873
22881WAT     H268886   8.595   6.384   1.753
22882WAT      O68887   2.453   2.010   1.930
22882WAT     H168888   2.405   1.926   1.903
22882WAT     H268889   2.454   2.017   2.030
22883WAT      O68890   9.435   0.651   2.305
22883WAT     H168891   9.443   0.668   2.403
22883WAT     H268892   9.339   0.649   2.278
22884WAT      O68893   0.614   7.951   3.502
22884WAT     H168894   0.606   7.903   3.590
22884WAT     H268895   0.575   8.042   3.510
22885WAT      O68896   9.155   7.337   0.572
22885WAT     H168897   9.237   7.315   0.625
22885WAT     H268898   9.082   7.363   0.635
22886WAT      O68899   7.073   8.883   8.200
22886WAT     H168900   7.139   8.816   8.167
22886WAT     H268901   7.108   8.975   8.184
22887WAT      O68902   2.945   7.341   8.400
22887WAT     H168903   2.851   7.368   8.422
22887WAT     H268904   2.973   7.386   8.315
22888WAT      O68905   0.146   3.715   7.729
22888WAT     H168906   0.194   3.776   7.666
22888WAT     H268907   0.174   3.736   7.823
22889WAT      O68908   1.485   3.073   6.704
22889WAT     H168909   1.557   3.127   6.748
22889WAT     H268910   1.396   3.114   6.724
22890WAT      O68911   1.205   4.374   2.820
22890WAT     H168912   1.134   4.389   2.751
22890WAT     H268913   1.173   4.407   2.909
22891WAT      O68914   3.026   1.141   9.395
22891WAT     H168915   3.035   1.219   9.332
22891WAT     H268916   3.113   1.094   9.403
22892WAT      O68917   8.026   3.184   2.270
22892WAT     H168918   8.037   3.109   2.335
22892WAT     H268919   7.969   3.153   2.193
22893WAT      O68920   2.416   5.897   9.595
22893WAT     H168921   2.470   5.938   9.522
22893WAT     H268922   2.425   5.797   9.592
22894WAT      O68923   4.040   9.199   2.539
22894WAT     H168924   4.126   9.210   2.589
22894WAT     H268925   4.040   9.110   2.494
22895WAT      O68926   3.568   4.779   1.770
22895WAT     H168927   3.591   4.843   1.697
22895WAT     H268928   3.529   4.828   1.847
22896WAT      O68929   0.918   1.426   1.336
22896WAT     H168930   0.832   1.392   1.374
22896WAT     H268931   0.900   1.470   1.247
22897WAT      O68932   8.914   2.273   9.016
22897WAT     H168933   8.929   2.370   9.035
22897WAT     H268934   8.875   2.229   9.097
22898WAT      O68935   1.280   4.804   3.958
22898WAT     H168936   1.314   4.840   3.872
22898WAT     H268937   1.206   4.863   3.992
22899WAT      O68938   9.228   0.134   6.529
22899WAT     H168939   9.168   0.067   6.573
22899WAT     H268940   9.246   0.105   6.435
22900WAT      O68941   0.611   6.118   8.948
22900WAT     H168942   0.658   6.052   9.006
22900WAT     H268943   0.675   6.153   8.879
22901WAT      O68944   7.313   8.725   4.481
22901WAT     H168945   7.325   8.730   4.382
22901WAT     H268946   7.221   8.755   4.505
22902WAT      O68947   4.913   3.290   6.999
22902WAT     H168948   4.858   3.373   6.987
22902WAT     H268949   4.853   3.210   7.004
22903WAT      O68950   9.299   4.899   7.884
22903WAT     H168951   9.341   4.915   7.973
22903WAT     H268952   9.271   4.987   7.845
22904WAT      O68953   9.569   2.761   8.707
22904WAT     H168954   9.613   2.769   8.796
22904WAT     H268955   9.602   2.679   8.660
22905WAT      O68956   4.380   9.565   9.809
22905WAT     H168957   4.387   9.664   9.794
22905WAT     H268958   4.358   9.548   9.905
22906WAT      O68959   0.864   2.151   6.333
22906WAT     H168960   0.945   2.146   6.275
22906WAT     H268961   0.889   2.135   6.428
22907WAT      O68962   5.352   4.949   8.190
22907WAT     H168963   5.272   4.958   8.249
22907WAT     H268964   5.435   4.949   8.246
22908WAT      O68965   3.246   9.829   2.838
22908WAT     H168966   3.202   9.747   2.876
22908WAT     H268967   3.178   9.902   2.828
22909WAT      O68968   2.480   9.524   8.882
22909WAT     H168969   2.501   9.434   8.920
22909WAT     H268970   2.466   9.589   8.957
22910WAT      O68971   7.601   4.991   8.252
22910WAT     H168972   7.528   5.057   8.266
22910WAT     H268973   7.631   4.994   8.157
22911WAT      O68974   5.031   9.405   8.971
22911WAT     H168975   4.948   9.422   9.025
22911WAT     H268976   5.107   9.456   9.011
22912WAT      O68977   9.458   3.930   9.744
22912WAT     H168978   9.395   3.885   9.680
22912WAT     H268979   9.519   3.991   9.694
22913WAT      O68980   6.064   0.470   0.620
22913WAT     H168981   6.160   0.475   0.647
22913WAT     H268982   6.009   0.530   0.678
22914WAT      O68983   9.659   9.665   9.077
22914WAT     H168984   9.565   9.661   9.111
22914WAT     H268985   9.685   9.576   9.041
22915WAT      O68986   1.425   9.023   1.371
22915WAT     H168987   1.388   8.935   1.342
22915WAT     H268988   1.352   9.092   1.369
22916WAT      O68989   8.560   5.397   1.583
22916WAT     H168990   8.553   5.488   1.625
22916WAT     H268991   8.640   5.394   1.524
22917WAT      O68992   9.423   3.110   4.892
22917WAT     H168993   9.397   3.024   4.848
22917WAT     H268994   9.468   3.091   4.979
22918WAT      O68995   0.572   1.805   0.405
22918WAT     H168996   0.654   1.848   0.368
22918WAT     H268997   0.491   1.838   0.357
22919WAT      O68998   3.067   4.940   5.672
22919WAT     H168999   2.995   4.997   5.711
22919WAT     H269000   3.120   4.994   5.606
22920WAT      O69001   8.046   7.236   9.447
22920WAT     H169002   8.125   7.175   9.442
22920WAT     H269003   7.983   7.215   9.372
22921WAT      O69004   9.816   8.199   6.131
22921WAT     H169005   9.783   8.213   6.224
22921WAT     H269006   9.739   8.202   6.067
22922WAT      O69007   0.625   4.411   7.127
22922WAT     H169008   0.689   4.487   7.137
22922WAT     H269009   0.592   4.407   7.032
22923WAT      O69010   1.759   1.439   4.581
22923WAT     H169011   1.796   1.526   4.615
22923WAT     H269012   1.834   1.379   4.554
22924WAT      O69013   8.473   8.205   4.706
22924WAT     H169014   8.487   8.172   4.613
22924WAT     H269015   8.513   8.140   4.771
22925WAT      O69016   9.535   0.516   5.821
22925WAT     H169017   9.499   0.445   5.761
22925WAT     H269018   9.475   0.596   5.819
22926WAT      O69019   4.736   9.300   2.367
22926WAT     H169020   4.830   9.323   2.343
22926WAT     H269021   4.732   9.209   2.407
22927WAT      O69022   3.224   0.546   8.217
22927WAT     H169023   3.228   0.456   8.173
22927WAT     H269024   3.269   0.614   8.159
22928WAT      O69025   2.580   4.895   4.273
22928WAT     H169026   2.576   4.987   4.312
22928WAT     H269027   2.612   4.831   4.342
22929WAT      O69028   4.422   8.837   8.840
22929WAT     H169029   4.468   8.796   8.919
22929WAT     H269030   4.362   8.769   8.797
22930WAT      O69031   0.591   8.024   5.258
22930WAT     H169032   0.596   7.979   5.169
22930WAT     H269033   0.545   8.112   5.248
22931WAT      O69034   4.412   3.612   3.071
22931WAT     H169035   4.319   3.633   3.041
22931WAT     H269036   4.443   3.528   3.025
22932WAT      O69037   6.467   5.750   9.232
22932WAT     H169038   6.376   5.763   9.192
22932WAT     H269039   6.491   5.831   9.286
22933WAT      O69040   1.124   8.777   8.498
22933WAT     H169041   1.158   8.746   8.409
22933WAT     H269042   1.068   8.859   8.485
22934WAT      O69043   1.766   8.990   3.833
22934WAT     H169044   1.699   9.004   3.905
22934WAT     H269045   1.837   8.927   3.865
22935WAT      O69046   2.613   4.135   7.762
22935WAT     H169047   2.692   4.080   7.734
22935WAT     H269048   2.645   4.220   7.803
22936WAT      O69049   5.427   6.163   3.721
22936WAT     H169050   5.468   6.077   3.691
22936WAT     H269051   5.337   6.144   3.762
22937WAT      O69052   4.505   0.119   6.651
22937WAT     H169053   4.426   0.058   6.661
22937WAT     H269054   4.508   0.181   6.729
22938WAT      O69055   7.092   1.116   5.052
22938WAT     H169056   7.105   1.159   4.963
22938WAT     H269057   7.181   1.086   5.087
22939WAT      O69058   7.797   0.124   9.568
22939WAT     H169059   7.855   0.084   9.497
22939WAT     H269060   7.701   0.114   9.543
22940WAT      O69061   0.202   3.969   1.285
22940WAT     H169062   0.264   4.018   1.223
22940WAT     H269063   0.107   3.990   1.261
22941WAT      O69064   8.086   7.480   2.468
22941WAT     H169065   8.006   7.532   2.500
22941WAT     H269066   8.137   7.446   2.547
22942WAT      O69067   1.902   7.277   4.102
22942WAT     H169068   1.988   7.268   4.052
22942WAT     H269069   1.841   7.202   4.077
22943WAT      O69070   1.405   1.146   9.159
22943WAT     H169071   1.445   1.229   9.118
22943WAT     H269072   1.474   1.101   9.215
22944WAT      O69073   7.106   5.540   9.265
22944WAT     H169074   7.018   5.585   9.249
22944WAT     H269075   7.179   5.608   9.258
22945WAT      O69076   6.598   0.661   6.589
22945WAT     H169077   6.500   0.679   6.582
22945WAT     H269078   6.648   0.746   6.577
22946WAT      O69079   0.671   6.944   0.580
22946WAT     H169080   0.581   6.979   0.555
22946WAT     H269081   0.701   6.876   0.512
22947WAT      O69082   3.624   9.809   2.136
22947WAT     H169083   3.626   9.825   2.038
22947WAT     H269084   3.685   9.733   2.159
22948WAT      O69085   8.764   1.576   1.016
22948WAT     H169086   8.741   1.620   1.103
22948WAT     H269087   8.704   1.613   0.944
22949WAT      O69088   1.241   6.376   9.755
22949WAT     H169089   1.207   6.297   9.806
22949WAT     H269090   1.341   6.378   9.759
22950WAT      O69091   8.563   6.978   9.344
22950WAT     H169092   8.635   6.919   9.309
22950WAT     H269093   8.476   6.952   9.304
22951WAT      O69094   2.986   1.519   1.953
22951WAT     H169095   2.994   1.597   1.890
22951WAT     H269096   3.056   1.451   1.931
22952WAT      O69097   8.674   4.452   3.269
22952WAT     H169098   8.664   4.367   3.321
22952WAT     H269099   8.596   4.512   3.287
22953WAT      O69100   7.109   3.681   9.400
22953WAT     H169101   7.146   3.697   9.309
22953WAT     H269102   7.163   3.611   9.447
22954WAT      O69103   4.102   5.163   5.687
22954WAT     H169104   4.098   5.237   5.619
22954WAT     H269105   4.198   5.141   5.706
22955WAT      O69106   1.513   1.866   8.329
22955WAT     H169107   1.571   1.810   8.271
22955WAT     H269108   1.569   1.929   8.383
22956WAT      O69109   0.924   7.320   7.345
22956WAT     H169110   0.860   7.268   7.288
22956WAT     H269111   0.889   7.325   7.439
22957WAT      O69112   8.397   2.674   8.101
22957WAT     H169113   8.324   2.743   8.106
22957WAT     H269114   8.392   2.626   8.014
22958WAT      O69115   7.077   4.637   0.538
22958WAT     H169116   7.132   4.714   0.506
22958WAT     H269117   6.980   4.659   0.528
22959WAT      O69118   8.925   2.103   3.789
22959WAT     H169119   8.878   2.177   3.838
22959WAT     H269120   8.990   2.142   3.724
22960WAT      O69121   7.986   5.043   9.390
22960WAT     H169122   7.919   4.984   9.345
22960WAT     H269123   8.017   5.113   9.325
22961WAT      O69124   8.087   2.526   9.176
22961WAT     H169125   8.104   2.618   9.213
22961WAT     H269126   8.005   2.527   9.120
22962WAT      O69127   7.362   8.669   4.221
22962WAT     H169128   7.453   8.637   4.197
22962WAT     H269129   7.294   8.617   4.169
22963WAT      O69130   0.086   3.884   6.907
22963WAT     H169131   0.161   3.901   6.972
22963WAT     H269132   0.118   3.821   6.836
22964WAT      O69133   7.290   7.360   6.044
22964WAT     H169134   7.265   7.454   6.067
22964WAT     H269135   7.354   7.361   5.967
22965WAT      O69136   6.735   6.110   7.148
22965WAT     H169137   6.728   6.065   7.060
22965WAT     H269138   6.650   6.097   7.200
22966WAT      O69139   0.024   7.386   4.044
22966WAT     H169140   0.122   7.365   4.048
22966WAT     H269141   0.001   7.420   3.953
22967WAT      O69142   8.724   3.749   7.166
22967WAT     H169143   8.670   3.687   7.109
22967WAT     H269144   8.732   3.711   7.258
22968WAT      O69145   5.726   1.933   1.289
22968WAT     H169146   5.814   1.895   1.320
22968WAT     H269147   5.689   1.876   1.216
22969WAT      O69148   4.314   1.505   2.348
22969WAT     H169149   4.317   1.494   2.447
22969WAT     H269150   4.258   1.432   2.308
22970WAT      O69151   7.635   0.902   3.825
22970WAT     H169152   7.704   0.842   3.784
22970WAT     H269153   7.554   0.905   3.766
22971WAT      O69154   3.668   5.603   3.516
22971WAT     H169155   3.713   5.657   3.445
22971WAT     H269156   3.598   5.545   3.474
22972WAT      O69157   0.576   5.965   4.461
22972WAT     H169158   0.637   6.026   4.410
22972WAT     H269159   0.630   5.896   4.510
22973WAT      O69160   7.655   8.200   4.702
22973WAT     H169161   7.728   8.139   4.672
22973WAT     H269162   7.585   8.147   4.752
22974WAT      O69163   8.374   3.799   5.969
22974WAT     H169164   8.332   3.834   6.053
22974WAT     H269165   8.471   3.821   5.968
22975WAT      O69166   4.780   7.084   4.242
22975WAT     H169167   4.691   7.120   4.214
22975WAT     H269168   4.790   7.093   4.341
22976WAT      O69169   1.360   3.593   6.361
22976WAT     H169170   1.402   3.590   6.270
22976WAT     H269171   1.345   3.500   6.393
22977WAT      O69172   6.745   8.969   2.904
22977WAT     H169173   6.785   8.881   2.928
22977WAT     H269174   6.810   9.022   2.849
22978WAT      O69175   1.720   5.859   9.484
22978WAT     H169176   1.752   5.812   9.401
22978WAT     H269177   1.706   5.792   9.557
22979WAT      O69178   7.510   1.496   4.424
22979WAT     H169179   7.423   1.465   4.385
22979WAT     H269180   7.542   1.429   4.491
22980WAT      O69181   9.787   5.593   6.104
22980WAT     H169182   9.814   5.504   6.140
22980WAT     H269183   9.856   5.626   6.039
22981WAT      O69184   1.773   5.950   5.135
22981WAT     H169185   1.715   5.949   5.054
22981WAT     H269186   1.731   6.007   5.206
22982WAT      O69187   6.456   9.282   1.515
22982WAT     H169188   6.379   9.252   1.459
22982WAT     H269189   6.483   9.207   1.577
22983WAT      O69190   5.238   6.228   8.281
22983WAT     H169191   5.178   6.149   8.269
22983WAT     H269192   5.332   6.202   8.260
22984WAT      O69193   2.668   2.527   9.790
22984WAT     H169194   2.758   2.555   9.823
22984WAT     H269195   2.597   2.577   9.840
22985WAT      O69196   1.897   7.427   9.715
22985WAT     H169197   1.813   7.413   9.662
22985WAT     H269198   1.873   7.450   9.810
22986WAT      O69199   3.450   1.416   9.887
22986WAT     H169200   3.388   1.350   9.845
22986WAT     H269201   3.518   1.368   9.943
22987WAT      O69202   2.934   0.608   4.627
22987WAT     H169203   2.868   0.678   4.657
22987WAT     H269204   2.966   0.630   4.535
22988WAT      O69205   8.478   8.636   8.374
22988WAT     H169206   8.412   8.577   8.421
22988WAT     H269207   8.455   8.732   8.392
22989WAT      O69208   9.809   8.684   9.408
22989WAT     H169209   9.829   8.693   9.310
22989WAT     H269210   9.843   8.765   9.456
22990WAT      O69211   2.261   0.168   6.440
22990WAT     H169212   2.225   0.075   6.436
22990WAT     H269213   2.361   0.166   6.435
22991WAT      O69214   0.700   0.534   4.032
22991WAT     H169215   0.734   0.562   4.122
22991WAT     H269216   0.651   0.610   3.989
22992WAT      O69217   6.865   0.676   0.494
22992WAT     H169218   6.929   0.623   0.549
22992WAT     H269219   6.771   0.645   0.511
22993WAT      O69220   3.449   0.100   6.930
22993WAT     H169221   3.516   0.133   6.864
22993WAT     H269222   3.466   0.004   6.951
22994WAT      O69223   2.449   0.479   0.922
22994WAT     H169224   2.466   0.544   0.996
22994WAT     H269225   2.455   0.526   0.834
22995WAT      O69226   0.015   8.853   4.879
22995WAT     H169227   0.076   8.909   4.935
22995WAT     H269228  -0.006   8.902   4.795
22996WAT      O69229   2.779   6.112   0.145
22996WAT     H169230   2.696   6.166   0.151
22996WAT     H269231   2.758   6.016   0.160
22997WAT      O69232   2.442   8.012   2.704
22997WAT     H169233   2.502   8.079   2.747
22997WAT     H269234   2.488   7.970   2.626
22998WAT      O69235   0.853   5.207   7.016
22998WAT     H169236   0.948   5.238   7.016
22998WAT     H269237   0.850   5.110   7.038
22999WAT      O69238   5.032   2.390   2.961
22999WAT     H169239   5.027   2.290   2.955
22999WAT     H269240   4.946   2.430   2.930
23000WAT      O69241   3.266   1.420   6.016
23000WAT     H169242   3.224   1.491   5.960
23000WAT     H269243   3.196   1.358   6.051
23001WAT      O69244   7.529   1.757   2.748
23001WAT     H169245   7.590   1.755   2.668
23001WAT     H269246   7.435   1.770   2.717
23002WAT      O69247   7.035   1.648   2.397
23002WAT     H169248   7.019   1.717   2.468
23002WAT     H269249   7.072   1.565   2.439
23003WAT      O69250   2.415   5.781   8.724
23003WAT     H169251   2.343   5.763   8.656
23003WAT     H269252   2.504   5.776   8.680
23004WAT      O69253   8.205   3.621   4.852
23004WAT     H169254   8.238   3.710   4.822
23004WAT     H269255   8.131   3.590   4.792
23005WAT      O69256   1.716   8.094   3.095
23005WAT     H169257   1.676   8.056   3.011
23005WAT     H269258   1.738   8.020   3.158
23006WAT      O69259   6.870   7.948   7.172
23006WAT     H169260   6.830   7.871   7.222
23006WAT     H269261   6.814   8.030   7.186
23007WAT      O69262   5.222   9.076   7.071
23007WAT     H169263   5.275   8.993   7.052
23007WAT     H269264   5.152   9.056   7.139
23008WAT      O69265   2.964   9.130   2.674
23008WAT     H169266   2.880   9.100   2.720
23008WAT     H269267   2.990   9.220   2.708
23009WAT      O69268   5.104   1.894   5.077
23009WAT     H169269   5.079   1.849   5.163
23009WAT     H269270   5.159   1.975   5.096
23010WAT      O69271   7.622   2.704   6.586
23010WAT     H169272   7.670   2.730   6.670
23010WAT     H269273   7.682   2.648   6.530
23011WAT      O69274   1.166   5.385   1.660
23011WAT     H169275   1.239   5.317   1.662
23011WAT     H269276   1.089   5.352   1.714
23012WAT      O69277   3.320   6.203   3.531
23012WAT     H169278   3.227   6.178   3.503
23012WAT     H269279   3.348   6.288   3.486
23013WAT      O69280   7.616   1.285   6.771
23013WAT     H169281   7.520   1.279   6.797
23013WAT     H269282   7.639   1.379   6.748
23014WAT      O69283   5.973   7.810   5.856
23014WAT     H169284   6.059   7.786   5.899
23014WAT     H269285   5.901   7.749   5.888
23015WAT      O69286   5.687   2.503   2.728
23015WAT     H169287   5.753   2.431   2.750
23015WAT     H269288   5.629   2.472   2.652
23016WAT      O69289   0.150   3.531   2.080
23016WAT     H169290   0.058   3.560   2.056
23016WAT     H269291   0.198   3.605   2.126
23017WAT      O69292   7.111   5.947   1.968
23017WAT     H169293   7.141   6.042   1.959
23017WAT     H269294   7.054   5.938   2.050
23018WAT      O69295   4.349   9.306   0.601
23018WAT     H169296   4.300   9.377   0.652
23018WAT     H269297   4.339   9.323   0.503
23019WAT      O69298   2.551   6.875   8.135
23019WAT     H169299   2.452   6.870   8.152
23019WAT     H269300   2.598   6.811   8.196
23020WAT      O69301   7.472   6.660   2.685
23020WAT     H169302   7.389   6.709   2.662
23020WAT     H269303   7.454   6.598   2.762
23021WAT      O69304   2.435   6.003   1.507
23021WAT     H169305   2.380   5.999   1.423
23021WAT     H269306   2.398   5.938   1.573
23022WAT      O69307   8.995   2.526   5.821
23022WAT     H169308   9.090   2.545   5.795
23022WAT     H269309   8.960   2.449   5.768
23023WAT      O69310   3.194   8.846   2.884
23023WAT     H169311   3.194   8.940   2.915
23023WAT     H269312   3.173   8.843   2.786
23024WAT      O69313   6.770   5.276   3.551
23024WAT     H169314   6.864   5.267   3.517
23024WAT     H269315   6.739   5.188   3.585
23025WAT      O69316   0.501   5.238   0.765
23025WAT     H169317   0.577   5.180   0.795
23025WAT     H269318   0.427   5.180   0.731
23026WAT      O69319   5.332   8.758   7.647
23026WAT     H169320   5.377   8.682   7.695
23026WAT     H269321   5.233   8.741   7.644
23027WAT      O69322   6.227   6.425   9.310
23027WAT     H169323   6.307   6.441   9.368
23027WAT     H269324   6.248   6.355   9.242
23028WAT      O69325   8.013   0.453   4.388
23028WAT     H169326   8.064   0.369   4.403
23028WAT     H269327   7.933   0.433   4.330
23029WAT      O69328   7.290   3.185   3.597
23029WAT     H169329   7.206   3.225   3.559
23029WAT     H269330   7.301   3.092   3.561
23030WAT      O69331   2.161   1.257   5.383
23030WAT     H169332   2.153   1.210   5.295
23030WAT     H269333   2.130   1.196   5.456
23031WAT      O69334   8.131   3.159   8.914
23031WAT     H169335   8.040   3.198   8.905
23031WAT     H269336   8.185   3.178   8.832
23032WAT      O69337   1.024   5.177   9.160
23032WAT     H169338   0.924   5.181   9.165
23032WAT     H269339   1.058   5.254   9.105
23033WAT      O69340   7.233   2.812   7.730
23033WAT     H169341   7.237   2.872   7.810
23033WAT     H269342   7.227   2.717   7.761
23034WAT      O69343   8.317   8.648   7.932
23034WAT     H169344   8.273   8.573   7.883
23034WAT     H269345   8.246   8.707   7.973
23035WAT      O69346   6.612   2.064   1.996
23035WAT     H169347   6.622   2.075   1.897
23035WAT     H269348   6.667   1.988   2.027
23036WAT      O69349   8.781   8.970   8.009
23036WAT     H169350   8.704   8.907   8.000
23036WAT     H269351   8.765   9.051   7.953
23037WAT      O69352   6.637   2.250   2.210
23037WAT     H169353   6.630   2.180   2.139
23037WAT     H269354   6.713   2.312   2.188
23038WAT      O69355   9.471   8.547   3.747
23038WAT     H169356   9.502   8.556   3.841
23038WAT     H269357   9.394   8.483   3.743
23039WAT      O69358   1.160   2.252   9.194
23039WAT     H169359   1.123   2.225   9.283
23039WAT     H269360   1.107   2.329   9.158
23040WAT      O69361   3.062   5.049   7.245
23040WAT     H169362   2.999   4.973   7.231
23040WAT     H269363   3.078   5.096   7.159
23041WAT      O69364   4.658   1.126   1.657
23041WAT     H169365   4.605   1.117   1.572
23041WAT     H269366   4.745   1.171   1.637
23042WAT      O69367   8.024   1.787   6.260
23042WAT     H169368   7.979   1.849   6.195
23042WAT     H269369   8.121   1.810   6.267
23043WAT      O69370   9.774   3.475   2.723
23043WAT     H169371   9.801   3.525   2.641
23043WAT     H269372   9.685   3.506   2.754
23044WAT      O69373   6.532   8.482   1.337
23044WAT     H169374   6.608   8.539   1.367
23044WAT     H269375   6.561   8.386   1.335
23045WAT      O69376   3.985   7.920   0.404
23045WAT     H169377   4.013   7.989   0.337
23045WAT     H269378   4.067   7.875   0.441
23046WAT      O69379   9.343   0.056   3.431
23046WAT     H169380   9.364   0.152   3.444
23046WAT     H269381   9.428   0.003   3.431
23047WAT      O69382   4.651   5.783   4.520
23047WAT     H169383   4.662   5.721   4.442
23047WAT     H269384   4.623   5.730   4.600
23048WAT      O69385   4.562   6.355   1.870
23048WAT     H169386   4.567   6.371   1.771
23048WAT     H269387   4.654   6.348   1.907
23049WAT      O69388   1.065   8.269   4.329
23049WAT     H169389   1.015   8.312   4.405
23049WAT     H269390   1.102   8.181   4.360
23050WAT      O69391   0.708   2.611   1.435
23050WAT     H169392   0.620   2.652   1.457
23050WAT     H269393   0.782   2.668   1.470
23051WAT      O69394   0.104   8.158   4.641
23051WAT     H169395   0.198   8.171   4.670
23051WAT     H269396   0.102   8.118   4.549
23052WAT      O69397   5.441   7.435   0.727
23052WAT     H169398   5.439   7.492   0.810
23052WAT     H269399   5.501   7.478   0.659
23053WAT      O69400   5.874   0.610   3.310
23053WAT     H169401   5.973   0.616   3.323
23053WAT     H269402   5.850   0.516   3.287
23054WAT      O69403   5.472   0.993   6.358
23054WAT     H169404   5.526   1.077   6.346
23054WAT     H269405   5.454   0.979   6.455
23055WAT      O69406   2.112   1.836   0.999
23055WAT     H169407   2.038   1.769   0.999
23055WAT     H269408   2.089   1.912   0.937
23056WAT      O69409   0.784   1.224   8.998
23056WAT     H169410   0.755   1.176   8.915
23056WAT     H269411   0.883   1.214   9.009
23057WAT      O69412   2.473   5.262   6.666
23057WAT     H169413   2.394   5.317   6.693
23057WAT     H269414   2.556   5.317   6.671
23058WAT      O69415   9.410   4.904   3.552
23058WAT     H169416   9.449   4.848   3.626
23058WAT     H269417   9.474   4.977   3.528
23059WAT      O69418   7.042   4.981   8.635
23059WAT     H169419   7.047   4.884   8.609
23059WAT     H269420   6.946   5.009   8.638
23060WAT      O69421   2.477   4.508   7.481
23060WAT     H169422   2.487   4.501   7.580
23060WAT     H269423   2.565   4.532   7.440
23061WAT      O69424   7.656   2.287   4.650
23061WAT     H169425   7.579   2.248   4.699
23061WAT     H269426   7.624   2.356   4.585
23062WAT      O69427   9.879   7.787   8.035
23062WAT     H169428   9.886   7.799   8.134
23062WAT     H269429   9.849   7.694   8.014
23063WAT      O69430   6.345   4.956   3.964
23063WAT     H169431   6.282   4.996   4.030
23063WAT     H269432   6.356   4.859   3.982
23064WAT      O69433   1.212   8.481   1.948
23064WAT     H169434   1.123   8.516   1.977
23064WAT     H269435   1.284   8.523   2.005
23065WAT      O69436   3.848   6.447   1.565
23065WAT     H169437   3.783   6.372   1.554
23065WAT     H269438   3.882   6.448   1.659
23066WAT      O69439   4.566   5.167   8.735
23066WAT     H169440   4.585   5.136   8.828
23066WAT     H269441   4.504   5.246   8.738
23067WAT      O69442   6.291   2.184   3.529
23067WAT     H169443   6.337   2.107   3.485
23067WAT     H269444   6.192   2.171   3.526
23068WAT      O69445   7.131   9.837   1.778
23068WAT     H169446   7.043   9.792   1.768
23068WAT     H269447   7.120   9.936   1.767
23069WAT      O69448   4.792   8.723   1.721
23069WAT     H169449   4.776   8.627   1.694
23069WAT     H269450   4.888   8.735   1.744
23070WAT      O69451   0.717   3.574   5.754
23070WAT     H169452   0.733   3.477   5.735
23070WAT     H269453   0.708   3.624   5.668
23071WAT      O69454   6.307   0.627   1.148
23071WAT     H169455   6.386   0.573   1.178
23071WAT     H269456   6.254   0.573   1.082
23072WAT      O69457   0.563   7.428   6.386
23072WAT     H169458   0.524   7.512   6.421
23072WAT     H269459   0.493   7.376   6.336
23073WAT      O69460   7.186   3.216   0.643
23073WAT     H169461   7.107   3.259   0.686
23073WAT     H269462   7.196   3.250   0.550
23074WAT      O69463   4.446   3.271   8.028
23074WAT     H169464   4.424   3.358   7.983
23074WAT     H269465   4.402   3.268   8.117
23075WAT      O69466   2.313   9.218   5.071
23075WAT     H169467   2.319   9.189   5.167
23075WAT     H269468   2.262   9.303   5.066
23076WAT      O69469   4.685   0.310   2.906
23076WAT     H169470   4.667   0.212   2.911
23076WAT     H269471   4.630   0.350   2.833
23077WAT      O69472   8.401   3.408   2.731
23077WAT     H169473   8.489   3.368   2.705
23077WAT     H269474   8.401   3.428   2.829
23078WAT      O69475   1.002   1.613   9.402
23078WAT     H169476   1.038   1.568   9.320
23078WAT     H269477   0.914   1.572   9.426
23079WAT      O69478   3.620   8.754   5.791
23079WAT     H169479   3.638   8.835   5.846
23079WAT     H269480   3.706   8.704   5.775
23080WAT      O69481   7.904   8.118   4.396
23080WAT     H169482   7.941   8.206   4.366
23080WAT     H269483   7.936   8.099   4.489
23081WAT      O69484   3.357   8.284   6.480
23081WAT     H169485   3.320   8.373   6.509
23081WAT     H269486   3.291   8.212   6.501
23082WAT      O69487   6.037   1.852   4.720
23082WAT     H169488   6.114   1.812   4.671
23082WAT     H269489   5.957   1.793   4.710
23083WAT      O69490   3.458   8.546   4.956
23083WAT     H169491   3.385   8.480   4.972
23083WAT     H269492   3.422   8.639   4.962
23084WAT      O69493   5.350   1.620   5.298
23084WAT     H169494   5.409   1.694   5.267
23084WAT     H269495   5.404   1.556   5.353
23085WAT      O69496   8.740   8.485   7.353
23085WAT     H169497   8.707   8.579   7.342
23085WAT     H269498   8.817   8.483   7.417
23086WAT      O69499   9.094   8.828   8.687
23086WAT     H169500   9.013   8.769   8.688
23086WAT     H269501   9.155   8.802   8.762
23087WAT      O69502   6.458   2.321   2.373
23087WAT     H169503   6.431   2.228   2.400
23087WAT     H269504   6.534   2.315   2.307
23088WAT      O69505   9.208   5.514   7.346
23088WAT     H169506   9.235   5.606   7.316
23088WAT     H269507   9.290   5.462   7.372
23089WAT      O69508   7.559   4.863   3.780
23089WAT     H169509   7.586   4.875   3.876
23089WAT     H269510   7.631   4.811   3.732
23090WAT      O69511   8.145   4.516   9.625
23090WAT     H169512   8.086   4.558   9.555
23090WAT     H269513   8.234   4.494   9.585
23091WAT      O69514   9.028   2.805   1.515
23091WAT     H169515   9.083   2.873   1.467
23091WAT     H269516   9.082   2.764   1.589
23092WAT      O69517   1.887   0.187   3.062
23092WAT     H169518   1.890   0.271   3.117
23092WAT     H269519   1.938   0.201   2.977
23093WAT      O69520   9.507   9.396   3.317
23093WAT     H169521   9.537   9.351   3.233
23093WAT     H269522   9.525   9.336   3.395
23094WAT      O69523   7.601   6.600   3.014
23094WAT     H169524   7.526   6.547   2.975
23094WAT     H269525   7.683   6.542   3.020
23095WAT      O69526   1.574   5.965   7.682
23095WAT     H169527   1.569   5.867   7.666
23095WAT     H269528   1.646   6.005   7.625
23096WAT      O69529   2.594   6.250   9.356
23096WAT     H169530   2.562   6.162   9.390
23096WAT     H269531   2.650   6.236   9.274
23097WAT      O69532   0.477   5.278   2.669
23097WAT     H169533   0.382   5.246   2.664
23097WAT     H269534   0.499   5.329   2.585
23098WAT      O69535   5.775   6.716   4.364
23098WAT     H169536   5.792   6.721   4.463
23098WAT     H269537   5.741   6.625   4.341
23099WAT      O69538   2.479   3.225   7.341
23099WAT     H169539   2.405   3.219   7.408
23099WAT     H269540   2.484   3.319   7.305
23100WAT      O69541   5.482   3.011   7.862
23100WAT     H169542   5.524   2.931   7.819
23100WAT     H269543   5.547   3.086   7.864
23101WAT      O69544   0.912   6.420   5.435
23101WAT     H169545   0.911   6.507   5.483
23101WAT     H269546   0.994   6.369   5.462
23102WAT      O69547   0.320   0.744   2.574
23102WAT     H169548   0.344   0.692   2.656
23102WAT     H269549   0.268   0.826   2.599
23103WAT      O69550   8.586   7.615   8.622
23103WAT     H169551   8.618   7.677   8.550
23103WAT     H269552   8.487   7.623   8.632
23104WAT      O69553   0.129   3.426   0.800
23104WAT     H169554   0.228   3.427   0.788
23104WAT     H269555   0.096   3.331   0.799
23105WAT      O69556   2.491   1.369   9.430
23105WAT     H169557   2.457   1.289   9.479
23105WAT     H269558   2.501   1.446   9.493
23106WAT      O69559   4.957   9.421   7.554
23106WAT     H169560   4.895   9.352   7.517
23106WAT     H269561   5.007   9.384   7.632
23107WAT      O69562   6.767   9.194   3.630
23107WAT     H169563   6.673   9.159   3.629
23107WAT     H269564   6.824   9.136   3.687
23108WAT      O69565   4.657   4.093   5.272
23108WAT     H169566   4.672   4.123   5.366
23108WAT     H269567   4.576   4.140   5.235
23109WAT      O69568   5.022   8.893   8.569
23109WAT     H169569   5.120   8.878   8.585
23109WAT     H269570   5.010   8.939   8.481
23110WAT      O69571   4.377   5.347   3.630
23110WAT     H169572   4.370   5.299   3.543
23110WAT     H269573   4.474   5.359   3.653
23111WAT      O69574   3.911   3.113   1.707
23111WAT     H169575   3.876   3.030   1.751
23111WAT     H269576   3.987   3.089   1.648
23112WAT      O69577   3.777   1.537   1.934
23112WAT     H169578   3.836   1.617   1.931
23112WAT     H269579   3.706   1.550   2.004
23113WAT      O69580   1.986   2.596   3.351
23113WAT     H169581   1.898   2.576   3.393
23113WAT     H269582   1.972   2.630   3.258
23114WAT      O69583   0.523   6.960   0.278
23114WAT     H169584   0.445   6.916   0.323
23114WAT     H269585   0.576   6.892   0.228
23115WAT      O69586   6.466   1.779   7.936
23115WAT     H169587   6.445   1.714   7.863
23115WAT     H269588   6.493   1.730   8.019
23116WAT      O69589   4.195   8.020   7.358
23116WAT     H169590   4.158   8.019   7.451
23116WAT     H269591   4.226   7.928   7.333
23117WAT      O69592   4.478   1.730   9.804
23117WAT     H169593   4.540   1.751   9.729
23117WAT     H269594   4.389   1.702   9.767
23118WAT      O69595   3.282   6.467   8.948
23118WAT     H169596   3.263   6.473   9.046
23118WAT     H269597   3.249   6.550   8.903
23119WAT      O69598   4.629   1.768   5.230
23119WAT     H169599   4.673   1.771   5.140
23119WAT     H269600   4.694   1.735   5.298
23120WAT      O69601   1.954   3.376   7.649
23120WAT     H169602   1.960   3.372   7.549
23120WAT     H269603   1.936   3.284   7.685
23121WAT      O69604   6.613   4.701   1.977
23121WAT     H169605   6.654   4.633   2.039
23121WAT     H269606   6.515   4.681   1.966
23122WAT      O69607   3.324   4.514   9.634
23122WAT     H169608   3.401   4.576   9.621
23122WAT     H269609   3.274   4.504   9.549
23123WAT      O69610   0.431   4.607   2.375
23123WAT     H169611   0.336   4.574   2.379
23123WAT     H269612   0.476   4.567   2.295
23124WAT      O69613   0.008   4.449   7.414
23124WAT     H169614   0.086   4.473   7.472
23124WAT     H269615  -0.070   4.507   7.437
23125WAT      O69616   3.068   7.809   7.655
23125WAT     H169617   3.123   7.836   7.576
23125WAT     H269618   3.107   7.849   7.738
23126WAT      O69619   5.432   6.369   2.277
23126WAT     H169620   5.336   6.386   2.300
23126WAT     H269621   5.439   6.343   2.180
23127WAT      O69622   3.115   3.736   7.098
23127WAT     H169623   3.174   3.750   7.018
23127WAT     H269624   3.155   3.665   7.157
23128WAT      O69625   8.161   8.369   5.786
23128WAT     H169626   8.205   8.451   5.749
23128WAT     H269627   8.125   8.314   5.710
23129WAT      O69628   8.917   6.545   9.880
23129WAT     H169629   8.977   6.468   9.862
23129WAT     H269630   8.822   6.519   9.863
23130WAT      O69631   6.228   9.386   2.237
23130WAT     H169632   6.154   9.425   2.182
23130WAT     H269633   6.307   9.367   2.179
23131WAT      O69634   3.933   0.973   7.123
23131WAT     H169635   3.945   0.911   7.045
23131WAT     H269636   3.836   0.982   7.144
23132WAT      O69637   5.869   7.966   2.867
23132WAT     H169638   5.820   7.935   2.949
23132WAT     H269639   5.949   8.020   2.895
23133WAT      O69640   9.309   2.159   1.271
23133WAT     H169641   9.282   2.064   1.289
23133WAT     H269642   9.231   2.219   1.285
23134WAT      O69643   1.135   4.002   4.786
23134WAT     H169644   1.076   4.009   4.706
23134WAT     H269645   1.202   4.077   4.785
23135WAT      O69646   0.508   3.449   3.102
23135WAT     H169647   0.509   3.359   3.058
23135WAT     H269648   0.595   3.464   3.148
23136WAT      O69649   3.005   9.000   4.598
23136WAT     H169650   3.000   9.009   4.697
23136WAT     H269651   2.913   8.984   4.561
23137WAT      O69652   4.070   1.486   5.965
23137WAT     H169653   4.065   1.475   6.064
23137WAT     H269654   3.982   1.518   5.930
23138WAT      O69655   9.755   2.453   5.588
23138WAT     H169656   9.678   2.442   5.525
23138WAT     H269657   9.837   2.416   5.546
23139WAT      O69658   9.570   9.719   2.376
23139WAT     H169659   9.476   9.750   2.387
23139WAT     H269660   9.623   9.745   2.457
23140WAT      O69661   2.995   4.640   7.378
23140WAT     H169662   3.069   4.672   7.437
23140WAT     H269663   3.028   4.566   7.320
23141WAT      O69664   1.284   3.473   4.524
23141WAT     H169665   1.310   3.460   4.619
23141WAT     H269666   1.352   3.530   4.478
23142WAT      O69667   7.357   1.220   1.774
23142WAT     H169668   7.274   1.273   1.791
23142WAT     H269669   7.393   1.241   1.684
23143WAT      O69670   0.288   4.538   1.395
23143WAT     H169671   0.382   4.511   1.373
23143WAT     H269672   0.260   4.614   1.337
23144WAT      O69673   7.073   9.365   5.708
23144WAT     H169674   7.088   9.364   5.807
23144WAT     H269675   6.996   9.306   5.685
23145WAT      O69676   4.528   9.307   0.232
23145WAT     H169677   4.437   9.349   0.239
23145WAT     H269678   4.586   9.364   0.173
23146WAT      O69679   8.403   0.767   7.708
23146WAT     H169680   8.391   0.867   7.707
23146WAT     H269681   8.425   0.737   7.801
23147WAT      O69682   8.863   2.212   2.549
23147WAT     H169683   8.954   2.209   2.592
23147WAT     H269684   8.859   2.289   2.485
23148WAT      O69685   6.452   4.396   3.980
23148WAT     H169686   6.515   4.341   3.925
23148WAT     H269687   6.371   4.342   4.003
23149WAT      O69688   2.540   4.188   8.627
23149WAT     H169689   2.527   4.142   8.539
23149WAT     H269690   2.460   4.174   8.685
23150WAT      O69691   1.023   2.338   4.969
23150WAT     H169692   1.068   2.250   4.982
23150WAT     H269693   1.072   2.409   5.020
23151WAT      O69694   2.086   0.078   3.216
23151WAT     H169695   2.171   0.123   3.241
23151WAT     H269696   2.036   0.134   3.150
23152WAT      O69697   2.670   1.096   0.030
23152WAT     H169698   2.658   1.168  -0.039
23152WAT     H269699   2.765   1.066   0.030
23153WAT      O69700   8.838   4.816   4.086
23153WAT     H169701   8.886   4.842   4.002
23153WAT     H269702   8.804   4.899   4.131
23154WAT      O69703   2.770   5.657   6.801
23154WAT     H169704   2.831   5.729   6.769
23154WAT     H269705   2.801   5.625   6.890
23155WAT      O69706   0.159   9.750   7.887
23155WAT     H169707   0.092   9.706   7.947
23155WAT     H269708   0.189   9.837   7.927
23156WAT      O69709   2.265   4.543   7.321
23156WAT     H169710   2.348   4.533   7.375
23156WAT     H269711   2.190   4.495   7.365
23157WAT      O69712   6.953   3.969   8.921
23157WAT     H169713   6.971   3.974   8.822
23157WAT     H269714   6.865   4.010   8.941
23158WAT      O69715   3.973   5.314   9.691
23158WAT     H169716   3.985   5.376   9.769
23158WAT     H269717   3.905   5.352   9.629
23159WAT      O69718   0.999   8.558   2.124
23159WAT     H169719   0.984   8.656   2.108
23159WAT     H269720   0.966   8.534   2.215
23160WAT      O69721   4.844   2.074   7.925
23160WAT     H169722   4.777   2.099   7.994
23160WAT     H269723   4.842   1.975   7.911
23161WAT      O69724   2.857   3.725   6.756
23161WAT     H169725   2.912   3.641   6.753
23161WAT     H269726   2.916   3.804   6.735
23162WAT      O69727   5.137   4.821   9.576
23162WAT     H169728   5.158   4.918   9.563
23162WAT     H269729   5.218   4.767   9.551
23163WAT      O69730   3.189   0.793   7.967
23163WAT     H169731   3.273   0.782   8.021
23163WAT     H269732   3.210   0.781   7.870
23164WAT      O69733   4.592   2.462   2.729
23164WAT     H169734   4.639   2.524   2.666
23164WAT     H269735   4.574   2.375   2.683
23165WAT      O69736   9.173   6.423   0.994
23165WAT     H169737   9.142   6.371   0.914
23165WAT     H269738   9.175   6.520   0.971
23166WAT      O69739   9.471   6.703   5.737
23166WAT     H169740   9.565   6.685   5.710
23166WAT     H269741   9.447   6.797   5.714
23167WAT      O69742   4.821   1.175   0.426
23167WAT     H169743   4.829   1.219   0.337
23167WAT     H269744   4.817   1.076   0.414
23168WAT      O69745   9.346   4.015   6.727
23168WAT     H169746   9.326   4.062   6.813
23168WAT     H269747   9.383   3.924   6.746
23169WAT      O69748   8.849   6.243   1.412
23169WAT     H169749   8.943   6.264   1.441
23169WAT     H269750   8.798   6.328   1.399
23170WAT      O69751   3.193   3.915   1.710
23170WAT     H169752   3.228   3.889   1.800
23170WAT     H269753   3.227   3.851   1.641
23171WAT      O69754   6.106   2.376   2.625
23171WAT     H169755   6.184   2.338   2.675
23171WAT     H269756   6.070   2.307   2.562
23172WAT      O69757   3.249   9.376   8.738
23172WAT     H169758   3.234   9.376   8.639
23172WAT     H269759   3.305   9.454   8.764
23173WAT      O69760   9.228   9.426   0.936
23173WAT     H169761   9.251   9.347   0.878
23173WAT     H269762   9.217   9.396   1.030
23174WAT      O69763   9.284   6.883   9.533
23174WAT     H169764   9.350   6.886   9.457
23174WAT     H269765   9.281   6.973   9.577
23175WAT      O69766   5.056   9.106   9.664
23175WAT     H169767   5.058   9.007   9.659
23175WAT     H269768   5.038   9.144   9.573
23176WAT      O69769   7.507   8.056   5.418
23176WAT     H169770   7.504   8.147   5.458
23176WAT     H269771   7.468   7.990   5.482
23177WAT      O69772   8.539   8.564   2.506
23177WAT     H169773   8.441   8.586   2.508
23177WAT     H269774   8.579   8.601   2.422
23178WAT      O69775   8.865   8.988   1.745
23178WAT     H169776   8.885   8.904   1.795
23178WAT     H269777   8.836   9.059   1.810
23179WAT      O69778   8.106   5.936   1.276
23179WAT     H169779   8.112   5.879   1.194
23179WAT     H269780   8.059   5.885   1.348
23180WAT      O69781   2.356   6.096   0.686
23180WAT     H169782   2.307   6.012   0.664
23180WAT     H269783   2.321   6.133   0.772
23181WAT      O69784   9.078   3.481   2.844
23181WAT     H169785   9.071   3.423   2.763
23181WAT     H269786   9.169   3.473   2.884
23182WAT      O69787   3.476   2.203   8.450
23182WAT     H169788   3.522   2.211   8.361
23182WAT     H269789   3.387   2.247   8.445
23183WAT      O69790   8.813   1.217   0.219
23183WAT     H169791   8.786   1.160   0.141
23183WAT     H269792   8.888   1.277   0.193
23184WAT      O69793   4.795   6.608   2.913
23184WAT     H169794   4.795   6.617   2.813
23184WAT     H269795   4.804   6.511   2.937
23185WAT      O69796   5.817   8.809   4.426
23185WAT     H169797   5.877   8.889   4.429
23185WAT     H269798   5.792   8.782   4.519
23186WAT      O69799   5.591   2.843   6.883
23186WAT     H169800   5.684   2.823   6.850
23186WAT     H269801   5.534   2.869   6.806
23187WAT      O69802   0.792   6.850   4.221
23187WAT     H169803   0.835   6.770   4.263
23187WAT     H269804   0.703   6.824   4.184
23188WAT      O69805   3.102   9.579   1.895
23188WAT     H169806   3.067   9.639   1.966
23188WAT     H269807   3.128   9.491   1.935
23189WAT      O69808   8.418   8.166   2.290
23189WAT     H169809   8.443   8.111   2.211
23189WAT     H269810   8.408   8.262   2.262
23190WAT      O69811   1.448   5.357   8.564
23190WAT     H169812   1.371   5.344   8.627
23190WAT     H269813   1.428   5.312   8.477
23191WAT      O69814   6.814   5.984   5.204
23191WAT     H169815   6.839   5.889   5.219
23191WAT     H269816   6.753   5.991   5.125
23192WAT      O69817   2.459   6.666   1.999
23192WAT     H169818   2.402   6.598   2.045
23192WAT     H269819   2.401   6.727   1.944
23193WAT      O69820   3.350   5.358   1.248
23193WAT     H169821   3.262   5.315   1.271
23193WAT     H269822   3.371   5.428   1.316
23194WAT      O69823   4.174   9.120   4.246
23194WAT     H169824   4.260   9.110   4.196
23194WAT     H269825   4.194   9.133   4.343
23195WAT      O69826   9.677   6.308   5.363
23195WAT     H169827   9.757   6.254   5.337
23195WAT     H269828   9.683   6.331   5.460
23196WAT      O69829   9.562   5.199   6.961
23196WAT     H169830   9.492   5.254   7.007
23196WAT     H269831   9.518   5.138   6.895
23197WAT      O69832   2.166   1.538   6.184
23197WAT     H169833   2.105   1.461   6.167
23197WAT     H269834   2.260   1.512   6.164
23198WAT      O69835   3.473   5.710   8.585
23198WAT     H169836   3.414   5.761   8.523
23198WAT     H269837   3.523   5.773   8.644
23199WAT      O69838   1.767   5.484   5.841
23199WAT     H169839   1.836   5.541   5.884
23199WAT     H269840   1.676   5.512   5.872
23200WAT      O69841   8.465   9.333   1.018
23200WAT     H169842   8.466   9.256   0.954
23200WAT     H269843   8.406   9.310   1.096
23201WAT      O69844   6.421   6.445   0.118
23201WAT     H169845   6.350   6.376   0.132
23201WAT     H269846   6.511   6.403   0.124
23202WAT      O69847   5.730   4.999   7.105
23202WAT     H169848   5.739   4.992   7.005
23202WAT     H269849   5.814   5.038   7.143
23203WAT      O69850   3.735   5.986   7.542
23203WAT     H169851   3.689   6.035   7.467
23203WAT     H269852   3.722   6.036   7.627
23204WAT      O69853   5.370   1.122   2.558
23204WAT     H169854   5.299   1.082   2.500
23204WAT     H269855   5.398   1.055   2.627
23205WAT      O69856   7.030   8.913   3.088
23205WAT     H169857   7.036   9.000   3.040
23205WAT     H269858   7.077   8.843   3.035
23206WAT      O69859   3.708   4.209   9.831
23206WAT     H169860   3.738   4.194   9.925
23206WAT     H269861   3.686   4.121   9.789
23207WAT      O69862   1.521   5.422   5.322
23207WAT     H169863   1.490   5.327   5.311
23207WAT     H269864   1.557   5.435   5.414
23208WAT      O69865   9.690   8.303   7.428
23208WAT     H169866   9.739   8.334   7.509
23208WAT     H269867   9.746   8.318   7.346
23209WAT      O69868   7.551   1.249   9.397
23209WAT     H169869   7.651   1.238   9.398
23209WAT     H269870   7.521   1.273   9.305
23210WAT      O69871   3.794   1.363   0.115
23210WAT     H169872   3.834   1.337   0.027
23210WAT     H269873   3.729   1.292   0.144
23211WAT      O69874   5.960   4.757   5.081
23211WAT     H169875   6.009   4.808   5.011
23211WAT     H269876   5.863   4.752   5.059
23212WAT      O69877   0.671   9.488   7.205
23212WAT     H169878   0.665   9.403   7.257
23212WAT     H269879   0.635   9.472   7.113
23213WAT      O69880   9.373   8.665   2.335
23213WAT     H169881   9.331   8.696   2.420
23213WAT     H269882   9.370   8.739   2.267
23214WAT      O69883   6.539   0.778   5.785
23214WAT     H169884   6.530   0.679   5.773
23214WAT     H269885   6.596   0.815   5.712
23215WAT      O69886   4.888   9.253   5.459
23215WAT     H169887   4.820   9.326   5.459
23215WAT     H269888   4.878   9.198   5.376
23216WAT      O69889   2.470   5.373   3.023
23216WAT     H169890   2.398   5.429   3.064
23216WAT     H269891   2.551   5.375   3.082
23217WAT      O69892   8.242   2.565   8.297
23217WAT     H169893   8.315   2.590   8.234
23217WAT     H269894   8.167   2.522   8.247
23218WAT      O69895   8.891   2.483   8.105
23218WAT     H169896   8.907   2.418   8.179
23218WAT     H269897   8.806   2.533   8.122
23219WAT      O69898   1.131   8.165   0.061
23219WAT     H169899   1.126   8.147   0.159
23219WAT     H269900   1.045   8.208   0.032
23220WAT      O69901   8.890   5.694   2.456
23220WAT     H169902   8.813   5.652   2.504
23220WAT     H269903   8.974   5.680   2.508
23221WAT      O69904   1.560   0.848   3.177
23221WAT     H169905   1.547   0.941   3.142
23221WAT     H269906   1.490   0.828   3.246
23222WAT      O69907   4.325   7.315   2.063
23222WAT     H169908   4.298   7.409   2.039
23222WAT     H269909   4.275   7.286   2.144
23223WAT      O69910   1.337   4.784   2.420
23223WAT     H169911   1.325   4.782   2.520
23223WAT     H269912   1.435   4.787   2.399
23224WAT      O69913   6.175   2.662   2.791
23224WAT     H169914   6.185   2.731   2.719
23224WAT     H269915   6.083   2.669   2.831
23225WAT      O69916   0.311   6.588   8.514
23225WAT     H169917   0.401   6.624   8.536
23225WAT     H269918   0.289   6.610   8.419
23226WAT      O69919   5.085   2.186   8.005
23226WAT     H169920   5.000   2.162   7.958
23226WAT     H269921   5.162   2.140   7.960
23227WAT      O69922   3.146   1.311   7.640
23227WAT     H169923   3.214   1.305   7.568
23227WAT     H269924   3.080   1.236   7.631
23228WAT      O69925   5.988   2.435   1.466
23228WAT     H169926   5.985   2.530   1.436
23228WAT     H269927   5.911   2.384   1.427
23229WAT      O69928   6.521   9.699   7.930
23229WAT     H169929   6.613   9.660   7.930
23229WAT     H269930   6.525   9.793   7.964
23230WAT      O69931   9.488   5.856   8.771
23230WAT     H169932   9.539   5.786   8.722
23230WAT     H269933   9.390   5.842   8.757
23231WAT      O69934   0.100   7.667   2.945
23231WAT     H169935   0.166   7.606   2.901
23231WAT     H269936   0.008   7.645   2.913
23232WAT      O69937   1.714   3.843   6.147
23232WAT     H169938   1.645   3.895   6.197
23232WAT     H269939   1.789   3.904   6.120
23233WAT      O69940   7.419   1.799   2.317
23233WAT     H169941   7.382   1.758   2.234
23233WAT     H269942   7.443   1.895   2.299
23234WAT      O69943   3.434   2.803   6.150
23234WAT     H169944   3.374   2.882   6.159
23234WAT     H269945   3.447   2.783   6.053
23235WAT      O69946   0.990   0.822   2.333
23235WAT     H169947   1.002   0.883   2.411
23235WAT     H269948   0.895   0.825   2.303
23236WAT      O69949   0.863   2.979   2.896
23236WAT     H169950   0.948   2.961   2.946
23236WAT     H269951   0.831   2.895   2.853
23237WAT      O69952   2.319   4.983   9.270
23237WAT     H169953   2.230   4.939   9.278
23237WAT     H269954   2.308   5.074   9.230
23238WAT      O69955   8.161   1.673   9.752
23238WAT     H169956   8.093   1.600   9.761
23238WAT     H269957   8.114   1.761   9.742
23239WAT      O69958   8.214   0.157   9.326
23239WAT     H169959   8.213   0.255   9.348
23239WAT     H269960   8.237   0.145   9.229
23240WAT      O69961   2.182   5.742   5.413
23240WAT     H169962   2.116   5.814   5.393
23240WAT     H269963   2.250   5.738   5.340
23241WAT      O69964   9.291   9.081   2.506
23241WAT     H169965   9.380   9.041   2.486
23241WAT     H269966   9.227   9.059   2.432
23242WAT      O69967   0.854   4.086   2.464
23242WAT     H169968   0.767   4.114   2.425
23242WAT     H269969   0.858   4.114   2.560
23243WAT      O69970   8.064   9.465   5.883
23243WAT     H169971   8.125   9.482   5.806
23243WAT     H269972   7.998   9.539   5.891
23244WAT      O69973   1.131   5.050   7.644
23244WAT     H169974   1.050   5.100   7.676
23244WAT     H269975   1.182   5.107   7.580
23245WAT      O69976   5.726   1.748   8.784
23245WAT     H169977   5.813   1.759   8.735
23245WAT     H269978   5.651   1.776   8.724
23246WAT      O69979   6.369   7.372   0.566
23246WAT     H169980   6.298   7.441   0.580
23246WAT     H269981   6.327   7.282   0.555
23247WAT      O69982   4.653   8.041   9.054
23247WAT     H169983   4.667   8.101   8.975
23247WAT     H269984   4.558   8.047   9.084
23248WAT      O69985   0.233   1.734   1.376
23248WAT     H169986   0.315   1.776   1.416
23248WAT     H269987   0.228   1.757   1.279
23249WAT      O69988   9.574   3.022   7.568
23249WAT     H169989   9.563   2.978   7.479
23249WAT     H269990   9.659   2.992   7.610
23250WAT      O69991   4.616   1.021   6.660
23250WAT     H169992   4.697   0.965   6.677
23250WAT     H269993   4.590   1.014   6.563
23251WAT      O69994   6.579   5.137   3.902
23251WAT     H169995   6.494   5.089   3.880
23251WAT     H269996   6.560   5.234   3.913
23252WAT      O69997   2.102   4.146   8.286
23252WAT     H169998   2.017   4.100   8.262
23252WAT     H269999   2.105   4.235   8.240
23253WAT      O70000   6.608   3.078   6.645
23253WAT     H170001   6.594   3.103   6.549
23253WAT     H270002   6.553   3.137   6.703
23254WAT      O70003   7.283   6.058   9.088
23254WAT     H170004   7.372   6.095   9.062
23254WAT     H270005   7.228   6.041   9.005
23255WAT      O70006   6.566   5.787   1.787
23255WAT     H170007   6.495   5.855   1.770
23255WAT     H270008   6.637   5.826   1.844
23256WAT      O70009   3.500   9.084   2.099
23256WAT     H170010   3.403   9.091   2.124
23256WAT     H270011   3.525   9.160   2.039
23257WAT      O70012   7.136   9.264   4.949
23257WAT     H170013   7.207   9.317   4.997
23257WAT     H270014   7.047   9.307   4.965
23258WAT      O70015   2.315   4.711   5.364
23258WAT     H170016   2.339   4.800   5.325
23258WAT     H270017   2.215   4.704   5.372
23259WAT      O70018   7.954   7.281   9.691
23259WAT     H170019   7.868   7.331   9.695
23259WAT     H270020   7.976   7.258   9.596
23260WAT      O70021   9.478   7.250   0.998
23260WAT     H170022   9.563   7.285   1.037
23260WAT     H270023   9.498   7.169   0.942
23261WAT      O70024   1.333   3.651   1.532
23261WAT     H170025   1.315   3.739   1.488
23261WAT     H270026   1.266   3.584   1.501
23262WAT      O70027   7.303   3.558   8.676
23262WAT     H170028   7.228   3.559   8.611
23262WAT     H270029   7.283   3.495   8.751
23263WAT      O70030   6.371   0.870   4.253
23263WAT     H170031   6.427   0.805   4.202
23263WAT     H270032   6.321   0.928   4.190
23264WAT      O70033   2.383   6.343   1.119
23264WAT     H170034   2.331   6.394   1.187
23264WAT     H270035   2.469   6.311   1.160
23265WAT      O70036   3.831   9.444   5.278
23265WAT     H170037   3.897   9.451   5.203
23265WAT     H270038   3.769   9.523   5.276
23266WAT      O70039   5.753   0.114   4.716
23266WAT     H170040   5.805   0.200   4.716
23266WAT     H270041   5.666   0.128   4.764
23267WAT      O70042   5.989   7.224   0.738
23267WAT     H170043   6.071   7.215   0.795
23267WAT     H270044   5.954   7.317   0.744
23268WAT      O70045   5.128   4.659   3.742
23268WAT     H170046   5.157   4.625   3.831
23268WAT     H270047   5.128   4.759   3.742
23269WAT      O70048   0.520   8.027   4.055
23269WAT     H170049   0.436   8.068   4.019
23269WAT     H270050   0.582   8.006   3.979
23270WAT      O70051   6.240   1.718   4.177
23270WAT     H170052   6.177   1.776   4.125
23270WAT     H270053   6.207   1.624   4.176
23271WAT      O70054   0.124   2.009   0.911
23271WAT     H170055   0.059   1.937   0.933
23271WAT     H270056   0.075   2.092   0.884
23272WAT      O70057   8.584   8.081   9.379
23272WAT     H170058   8.601   7.999   9.434
23272WAT     H270059   8.616   8.065   9.285
23273WAT      O70060   1.339   5.585   5.217
23273WAT     H170061   1.399   5.518   5.262
23273WAT     H270062   1.256   5.596   5.270
23274WAT      O70063   7.250   3.964   8.288
23274WAT     H170064   7.170   3.994   8.236
23274WAT     H270065   7.264   3.866   8.275
23275WAT      O70066   7.816   2.633   0.146
23275WAT     H170067   7.757   2.698   0.193
23275WAT     H270068   7.809   2.647   0.047
23276WAT      O70069   4.112   4.698   9.545
23276WAT     H170070   4.086   4.619   9.489
23276WAT     H270071   4.206   4.686   9.577
23277WAT      O70072   3.941   5.542   3.676
23277WAT     H170073   3.918   5.611   3.745
23277WAT     H270074   3.891   5.458   3.696
23278WAT      O70075   0.775   2.311   2.436
23278WAT     H170076   0.757   2.306   2.338
23278WAT     H270077   0.698   2.273   2.487
23279WAT      O70078   6.962   4.040   7.641
23279WAT     H170079   6.997   4.130   7.668
23279WAT     H270080   6.877   4.051   7.590
23280WAT      O70081   8.086   0.174   4.474
23280WAT     H170082   8.016   0.174   4.545
23280WAT     H270083   8.082   0.089   4.422
23281WAT      O70084   2.600   6.332   4.124
23281WAT     H170085   2.682   6.315   4.070
23281WAT     H270086   2.588   6.431   4.136
23282WAT      O70087   4.415   0.056   7.786
23282WAT     H170088   4.370   0.109   7.715
23282WAT     H270089   4.348  -0.002   7.832
23283WAT      O70090   2.631   7.210   6.659
23283WAT     H170091   2.592   7.259   6.581
23283WAT     H270092   2.557   7.172   6.715
23284WAT      O70093   7.074   5.567   0.324
23284WAT     H170094   7.063   5.664   0.302
23284WAT     H270095   7.086   5.516   0.239
23285WAT      O70096   1.710   1.697   3.241
23285WAT     H170097   1.667   1.695   3.151
23285WAT     H270098   1.781   1.768   3.242
23286WAT      O70099   7.952   3.797   1.217
23286WAT     H170100   7.970   3.853   1.136
23286WAT     H270101   7.992   3.706   1.205
23287WAT      O70102   8.083   0.788   5.064
23287WAT     H170103   8.036   0.823   4.983
23287WAT     H270104   8.063   0.846   5.142
23288WAT      O70105   3.759   8.820   2.537
23288WAT     H170106   3.823   8.820   2.614
23288WAT     H270107   3.741   8.913   2.508
23289WAT      O70108   7.320   6.913   3.006
23289WAT     H170109   7.273   6.902   3.094
23289WAT     H270110   7.418   6.925   3.022
23290WAT      O70111   3.152   9.356   0.088
23290WAT     H170112   3.224   9.308   0.138
23290WAT     H270113   3.186   9.445   0.058
23291WAT      O70114   3.191   1.513   2.738
23291WAT     H170115   3.247   1.547   2.813
23291WAT     H270116   3.201   1.414   2.730
23292WAT      O70117   1.456   1.314   0.235
23292WAT     H170118   1.487   1.369   0.313
23292WAT     H270119   1.534   1.269   0.193
23293WAT      O70120   8.019   4.095   5.180
23293WAT     H170121   7.946   4.148   5.225
23293WAT     H270122   7.982   4.052   5.098
23294WAT      O70123   1.832   7.838   9.084
23294WAT     H170124   1.898   7.880   9.146
23294WAT     H270125   1.856   7.860   8.989
23295WAT      O70126   0.698   0.902   6.283
23295WAT     H170127   0.758   0.869   6.210
23295WAT     H270128   0.754   0.943   6.355
23296WAT      O70129   2.311   5.238   9.177
23296WAT     H170130   2.403   5.254   9.211
23296WAT     H270131   2.260   5.325   9.177
23297WAT      O70132   2.325   2.778   1.194
23297WAT     H170133   2.366   2.753   1.282
23297WAT     H270134   2.253   2.713   1.170
23298WAT      O70135   7.266   0.743   2.207
23298WAT     H170136   7.277   0.737   2.108
23298WAT     H270137   7.266   0.651   2.246
23299WAT      O70138   9.600   0.860   4.714
23299WAT     H170139   9.621   0.825   4.805
23299WAT     H270140   9.508   0.832   4.687
23300WAT      O70141   5.401   8.462   7.480
23300WAT     H170142   5.457   8.538   7.513
23300WAT     H270143   5.408   8.385   7.543
23301WAT      O70144   5.632   5.019   8.808
23301WAT     H170145   5.619   5.102   8.754
23301WAT     H270146   5.663   5.045   8.900
23302WAT      O70147   1.113   2.233   1.339
23302WAT     H170148   1.163   2.237   1.252
23302WAT     H270149   1.016   2.253   1.323
23303WAT      O70150   0.858   5.437   8.098
23303WAT     H170151   0.956   5.423   8.109
23303WAT     H270152   0.812   5.421   8.186
23304WAT      O70153   6.943   5.037   5.010
23304WAT     H170154   6.944   5.086   5.096
23304WAT     H270155   7.002   4.956   5.018
23305WAT      O70156   5.547   8.311   5.672
23305WAT     H170157   5.485   8.360   5.612
23305WAT     H270158   5.590   8.376   5.736
23306WAT      O70159   6.602   5.465   4.426
23306WAT     H170160   6.678   5.422   4.376
23306WAT     H270161   6.557   5.396   4.483
23307WAT      O70162   2.123   3.949   0.873
23307WAT     H170163   2.203   3.937   0.931
23307WAT     H270164   2.145   3.922   0.779
23308WAT      O70165   9.708   3.508   2.043
23308WAT     H170166   9.643   3.538   1.973
23308WAT     H270167   9.671   3.429   2.092
23309WAT      O70168   9.764   4.738   6.518
23309WAT     H170169   9.762   4.674   6.595
23309WAT     H270170   9.757   4.832   6.552
23310WAT      O70171   6.060   7.962   3.733
23310WAT     H170172   5.977   7.907   3.720
23310WAT     H270173   6.078   7.972   3.831
23311WAT      O70174   3.152   3.140   5.228
23311WAT     H170175   3.052   3.141   5.226
23311WAT     H270176   3.187   3.223   5.185
23312WAT      O70177   4.299   6.477   6.649
23312WAT     H170178   4.322   6.404   6.585
23312WAT     H270179   4.319   6.447   6.743
23313WAT      O70180   5.210   7.672   8.657
23313WAT     H170181   5.296   7.722   8.648
23313WAT     H270182   5.226   7.587   8.708
23314WAT      O70183   5.212   6.195   4.815
23314WAT     H170184   5.241   6.263   4.883
23314WAT     H270185   5.237   6.227   4.724
23315WAT      O70186   1.682   7.171   0.728
23315WAT     H170187   1.678   7.233   0.807
23315WAT     H270188   1.644   7.217   0.648
23316WAT      O70189   1.008   0.785   8.435
23316WAT     H170190   0.916   0.778   8.474
23316WAT     H270191   1.075   0.793   8.508
23317WAT      O70192   9.795   2.164   9.319
23317WAT     H170193   9.855   2.244   9.321
23317WAT     H270194   9.755   2.155   9.227
23318WAT      O70195   7.225   3.980   4.098
23318WAT     H170196   7.243   3.884   4.120
23318WAT     H270197   7.299   4.017   4.042
23319WAT      O70198   1.221   2.880   2.547
23319WAT     H170199   1.311   2.895   2.506
23319WAT     H270200   1.154   2.939   2.501
23320WAT      O70201   3.581   8.933   4.346
23320WAT     H170202   3.580   9.030   4.373
23320WAT     H270203   3.614   8.925   4.252
23321WAT      O70204   9.658   3.318   3.063
23321WAT     H170205   9.658   3.261   2.981
23321WAT     H270206   9.745   3.307   3.110
23322WAT      O70207   1.589   4.997   7.024
23322WAT     H170208   1.578   5.063   7.099
23322WAT     H270209   1.503   4.988   6.974
23323WAT      O70210   9.356   1.821   2.927
23323WAT     H170211   9.451   1.793   2.917
23323WAT     H270212   9.300   1.770   2.861
23324WAT      O70213   2.483   8.470   8.902
23324WAT     H170214   2.483   8.479   8.803
23324WAT     H270215   2.394   8.437   8.933
23325WAT      O70216   2.647   9.759   4.969
23325WAT     H170217   2.599   9.682   5.011
23325WAT     H270218   2.589   9.797   4.896
23326WAT      O70219   1.840   9.533   6.455
23326WAT     H170220   1.749   9.555   6.421
23326WAT     H270221   1.875   9.452   6.409
23327WAT      O70222   7.334   5.462   7.540
23327WAT     H170223   7.294   5.548   7.571
23327WAT     H270224   7.265   5.390   7.544
23328WAT      O70225   8.105   8.146   3.818
23328WAT     H170226   8.183   8.166   3.759
23328WAT     H270227   8.071   8.231   3.859
23329WAT      O70228   4.076   9.457   3.391
23329WAT     H170229   4.137   9.431   3.466
23329WAT     H270230   4.020   9.378   3.366
23330WAT      O70231   7.616   2.815   0.276
23330WAT     H170232   7.521   2.804   0.249
23330WAT     H270233   7.627   2.789   0.372
23331WAT      O70234   8.503   2.787   1.086
23331WAT     H170235   8.484   2.749   1.176
23331WAT     H270236   8.602   2.788   1.071
23332WAT      O70237   7.863   2.567   1.693
23332WAT     H170238   7.823   2.600   1.779
23332WAT     H270239   7.800   2.585   1.618
23333WAT      O70240   0.878   7.234   8.208
23333WAT     H170241   0.935   7.291   8.149
23333WAT     H270242   0.937   7.182   8.270
23334WAT      O70243   0.152   8.395   1.673
23334WAT     H170244   0.153   8.481   1.724
23334WAT     H270245   0.058   8.371   1.649
23335WAT      O70246   8.106   6.704   1.713
23335WAT     H170247   8.008   6.719   1.728
23335WAT     H270248   8.128   6.722   1.617
23336WAT      O70249   2.684   0.918   7.814
23336WAT     H170250   2.740   0.876   7.886
23336WAT     H270251   2.723   1.008   7.790
23337WAT      O70252   6.244   5.516   9.742
23337WAT     H170253   6.317   5.529   9.809
23337WAT     H270254   6.254   5.583   9.668
23338WAT      O70255   7.853   3.959   1.629
23338WAT     H170256   7.944   3.998   1.641
23338WAT     H270257   7.787   4.013   1.681
23339WAT      O70258   9.005   4.214   5.706
23339WAT     H170259   9.096   4.254   5.694
23339WAT     H270260   8.966   4.245   5.792
23340WAT      O70261   0.858   9.419   4.468
23340WAT     H170262   0.925   9.373   4.410
23340WAT     H270263   0.766   9.401   4.433
23341WAT      O70264   2.660   0.918   7.276
23341WAT     H170265   2.562   0.936   7.289
23341WAT     H270266   2.688   0.953   7.186
23342WAT      O70267   8.199   2.295   6.873
23342WAT     H170268   8.166   2.384   6.907
23342WAT     H270269   8.213   2.300   6.775
23343WAT      O70270   6.276   0.830   1.346
23343WAT     H170271   6.269   0.748   1.289
23343WAT     H270272   6.202   0.893   1.323
23344WAT      O70273   4.870   9.766   8.082
23344WAT     H170274   4.820   9.846   8.116
23344WAT     H270275   4.809   9.708   8.028
23345WAT      O70276   3.007   0.936   4.539
23345WAT     H170277   3.024   0.908   4.633
23345WAT     H270278   3.066   0.884   4.477
23346WAT      O70279   0.601   4.204   0.812
23346WAT     H170280   0.602   4.129   0.878
23346WAT     H270281   0.560   4.173   0.727
23347WAT      O70282   1.440   0.657   8.927
23347WAT     H170283   1.407   0.740   8.973
23347WAT     H270284   1.491   0.601   8.992
23348WAT      O70285   8.229   7.137   0.235
23348WAT     H170286   8.184   7.211   0.185
23348WAT     H270287   8.324   7.163   0.253
23349WAT      O70288   5.940   4.664   4.463
23349WAT     H170289   6.030   4.620   4.465
23349WAT     H270290   5.871   4.598   4.435
23350WAT      O70291   9.314   8.614   1.536
23350WAT     H170292   9.280   8.574   1.451
23350WAT     H270293   9.259   8.695   1.560
23351WAT      O70294   9.842   8.670   8.948
23351WAT     H170295   9.928   8.675   8.897
23351WAT     H270296   9.860   8.682   9.045
23352WAT      O70297   3.199   9.722   9.602
23352WAT     H170298   3.208   9.814   9.564
23352WAT     H270299   3.162   9.661   9.531
23353WAT      O70300   1.890   6.010   9.268
23353WAT     H170301   1.965   6.040   9.209
23353WAT     H270302   1.903   5.914   9.291
23354WAT      O70303   5.061   7.429   5.856
23354WAT     H170304   5.052   7.457   5.952
23354WAT     H270305   4.983   7.465   5.804
23355WAT      O70306   7.961   8.357   4.322
23355WAT     H170307   8.035   8.372   4.388
23355WAT     H270308   7.963   8.430   4.253
23356WAT      O70309   9.426   6.332   6.529
23356WAT     H170310   9.399   6.426   6.507
23356WAT     H270311   9.345   6.275   6.538
23357WAT      O70312   5.492   2.316   0.494
23357WAT     H170313   5.515   2.401   0.542
23357WAT     H270314   5.399   2.288   0.520
23358WAT      O70315   7.127   2.548   8.912
23358WAT     H170316   7.120   2.532   8.814
23358WAT     H270317   7.204   2.607   8.932
23359WAT      O70318   6.701   5.825   0.192
23359WAT     H170319   6.786   5.780   0.164
23359WAT     H270320   6.687   5.812   0.290
23360WAT      O70321   7.527   4.451   0.293
23360WAT     H170322   7.461   4.376   0.284
23360WAT     H270323   7.601   4.423   0.355
23361WAT      O70324   2.400   6.500   5.529
23361WAT     H170325   2.306   6.466   5.541
23361WAT     H270326   2.443   6.453   5.452
23362WAT      O70327   1.845   8.660   2.160
23362WAT     H170328   1.945   8.654   2.164
23362WAT     H270329   1.815   8.741   2.211
23363WAT      O70330   2.294   4.177   9.696
23363WAT     H170331   2.370   4.197   9.758
23363WAT     H270332   2.244   4.097   9.728
23364WAT      O70333   6.180   3.486   0.028
23364WAT     H170334   6.197   3.479   0.126
23364WAT     H270335   6.215   3.573  -0.006
23365WAT      O70336   6.053   4.186   9.440
23365WAT     H170337   6.091   4.128   9.368
23365WAT     H270338   6.064   4.141   9.528
23366WAT      O70339   6.637   2.844   7.536
23366WAT     H170340   6.551   2.804   7.503
23366WAT     H270341   6.641   2.835   7.636
23367WAT      O70342   7.086   7.137   4.914
23367WAT     H170343   7.050   7.227   4.891
23367WAT     H270344   7.154   7.147   4.987
23368WAT      O70345   8.732   4.592   6.291
23368WAT     H170346   8.754   4.589   6.193
23368WAT     H270347   8.724   4.498   6.326
23369WAT      O70348   0.877   0.099   9.768
23369WAT     H170349   0.855   0.195   9.783
23369WAT     H270350   0.974   0.090   9.744
23370WAT      O70351   5.838   8.330   8.153
23370WAT     H170352   5.860   8.285   8.240
23370WAT     H270353   5.848   8.429   8.163
23371WAT      O70354   4.908   0.201   0.733
23371WAT     H170355   4.915   0.173   0.828
23371WAT     H270356   4.869   0.126   0.679
23372WAT      O70357   6.850   8.302   5.440
23372WAT     H170358   6.896   8.225   5.396
23372WAT     H270359   6.783   8.341   5.376
23373WAT      O70360   2.471   3.948   3.251
23373WAT     H170361   2.442   3.941   3.156
23373WAT     H270362   2.494   4.043   3.272
23374WAT      O70363   8.489   1.275   0.756
23374WAT     H170364   8.576   1.262   0.710
23374WAT     H270365   8.420   1.305   0.690
23375WAT      O70366   7.122   4.509   9.681
23375WAT     H170367   7.177   4.466   9.609
23375WAT     H270368   7.045   4.557   9.639
23376WAT      O70369   9.166   0.759   4.241
23376WAT     H170370   9.190   0.662   4.244
23376WAT     H270371   9.177   0.794   4.148
23377WAT      O70372   7.731   3.964   8.417
23377WAT     H170373   7.643   3.952   8.464
23377WAT     H270374   7.725   4.042   8.355
23378WAT      O70375   0.459   0.822   2.339
23378WAT     H170376   0.405   0.897   2.301
23378WAT     H270377   0.416   0.789   2.423
23379WAT      O70378   8.586   8.802   9.298
23379WAT     H170379   8.624   8.894   9.303
23379WAT     H270380   8.486   8.807   9.293
23380WAT      O70381   9.629   4.887   0.194
23380WAT     H170382   9.663   4.967   0.145
23380WAT     H270383   9.641   4.806   0.136
23381WAT      O70384   7.149   0.929   1.373
23381WAT     H170385   7.195   0.918   1.462
23381WAT     H270386   7.176   0.856   1.312
23382WAT      O70387   5.871   7.648   6.450
23382WAT     H170388   5.813   7.571   6.476
23382WAT     H270389   5.880   7.710   6.527
23383WAT      O70390   0.689   2.386   7.267
23383WAT     H170391   0.677   2.319   7.340
23383WAT     H270392   0.765   2.447   7.291
23384WAT      O70393   2.892   7.707   6.065
23384WAT     H170394   2.938   7.649   5.998
23384WAT     H270395   2.948   7.788   6.084
23385WAT      O70396   9.218   4.638   1.624
23385WAT     H170397   9.121   4.617   1.637
23385WAT     H270398   9.240   4.630   1.526
23386WAT      O70399   3.287   1.037   5.321
23386WAT     H170400   3.246   1.006   5.407
23386WAT     H270401   3.272   0.967   5.251
23387WAT      O70402   8.061   5.295   4.053
23387WAT     H170403   8.105   5.351   4.124
23387WAT     H270404   8.126   5.226   4.020
23388WAT      O70405   1.754   8.900   2.613
23388WAT     H170406   1.686   8.827   2.616
23388WAT     H270407   1.836   8.872   2.664
23389WAT      O70408   8.016   5.256   7.063
23389WAT     H170409   8.015   5.252   6.963
23389WAT     H270410   8.105   5.287   7.095
23390WAT      O70411   8.210   6.208   4.277
23390WAT     H170412   8.299   6.170   4.251
23390WAT     H270413   8.214   6.308   4.274
23391WAT      O70414   1.204   7.058   8.105
23391WAT     H170415   1.177   7.091   8.196
23391WAT     H270416   1.235   6.964   8.111
23392WAT      O70417   0.100   6.176   4.540
23392WAT     H170418   0.047   6.185   4.456
23392WAT     H270419   0.188   6.134   4.521
23393WAT      O70420   5.667   6.692   2.736
23393WAT     H170421   5.726   6.675   2.657
23393WAT     H270422   5.576   6.655   2.718
23394WAT      O70423   3.639   5.094   9.480
23394WAT     H170424   3.660   5.153   9.558
23394WAT     H270425   3.555   5.043   9.499
23395WAT      O70426   4.764   9.532   4.858
23395WAT     H170427   4.774   9.615   4.913
23395WAT     H270428   4.755   9.453   4.919
23396WAT      O70429   2.506   0.930   4.683
23396WAT     H170430   2.471   0.845   4.644
23396WAT     H270431   2.444   0.962   4.755
23397WAT      O70432   7.078   9.585   1.191
23397WAT     H170433   7.097   9.654   1.122
23397WAT     H270434   7.033   9.628   1.270
23398WAT      O70435   3.746   9.371   4.967
23398WAT     H170436   3.807   9.319   4.907
23398WAT     H270437   3.689   9.307   5.020
23399WAT      O70438   3.238   5.544   2.288
23399WAT     H170439   3.332   5.567   2.312
23399WAT     H270440   3.184   5.628   2.281
23400WAT      O70441   4.538   6.892   2.143
23400WAT     H170442   4.444   6.923   2.156
23400WAT     H270443   4.539   6.792   2.137
23401WAT      O70444   9.243   4.619   0.801
23401WAT     H170445   9.295   4.688   0.851
23401WAT     H270446   9.305   4.547   0.771
23402WAT      O70447   0.282   1.156   5.404
23402WAT     H170448   0.192   1.134   5.365
23402WAT     H270449   0.346   1.082   5.383
23403WAT      O70450   5.361   0.992   7.029
23403WAT     H170451   5.282   1.012   7.087
23403WAT     H270452   5.344   1.027   6.937
23404WAT      O70453   4.917   4.629   0.468
23404WAT     H170454   4.900   4.564   0.393
23404WAT     H270455   4.869   4.598   0.550
23405WAT      O70456   0.703   5.867   6.360
23405WAT     H170457   0.619   5.908   6.324
23405WAT     H270458   0.690   5.768   6.369
23406WAT      O70459   6.370   6.043   4.717
23406WAT     H170460   6.442   5.974   4.732
23406WAT     H270461   6.349   6.048   4.619
23407WAT      O70462   1.555   7.171   4.320
23407WAT     H170463   1.526   7.216   4.235
23407WAT     H270464   1.602   7.237   4.378
23408WAT      O70465   2.373   7.691   7.275
23408WAT     H170466   2.328   7.698   7.364
23408WAT     H270467   2.461   7.645   7.286
23409WAT      O70468   7.133   4.047   5.645
23409WAT     H170469   7.131   3.985   5.566
23409WAT     H270470   7.067   4.016   5.713
23410WAT      O70471   1.753   8.490   0.924
23410WAT     H170472   1.779   8.538   0.840
23410WAT     H270473   1.830   8.437   0.957
23411WAT      O70474   0.784   9.495   8.677
23411WAT     H170475   0.697   9.498   8.627
23411WAT     H270476   0.817   9.401   8.680
23412WAT      O70477   2.363   0.273   2.410
23412WAT     H170478   2.353   0.371   2.390
23412WAT     H270479   2.391   0.225   2.328
23413WAT      O70480   3.911   1.726   6.742
23413WAT     H170481   4.005   1.706   6.714
23413WAT     H270482   3.858   1.754   6.663
23414WAT      O70483   6.041   0.250   5.792
23414WAT     H170484   5.957   0.297   5.818
23414WAT     H270485   6.116   0.280   5.852
23415WAT      O70486   6.060   3.131   2.985
23415WAT     H170487   5.991   3.119   3.057
23415WAT     H270488   6.151   3.123   3.025
23416WAT      O70489   2.020   6.738   9.656
23416WAT     H170490   2.056   6.768   9.567
23416WAT     H270491   2.062   6.792   9.729
23417WAT      O70492   2.581   0.410   6.074
23417WAT     H170493   2.598   0.339   6.143
23417WAT     H270494   2.534   0.487   6.117
23418WAT      O70495   1.397   1.325   3.599
23418WAT     H170496   1.349   1.259   3.656
23418WAT     H270497   1.424   1.281   3.513
23419WAT      O70498   2.456   2.446   1.166
23419WAT     H170499   2.514   2.432   1.086
23419WAT     H270500   2.507   2.495   1.237
23420WAT      O70501   9.256   8.915   1.453
23420WAT     H170502   9.212   9.004   1.439
23420WAT     H270503   9.214   8.848   1.392
23421WAT      O70504   2.802   9.379   5.974
23421WAT     H170505   2.811   9.454   5.909
23421WAT     H270506   2.713   9.384   6.019
23422WAT      O70507   6.981   9.590   2.308
23422WAT     H170508   6.981   9.495   2.340
23422WAT     H270509   6.926   9.597   2.225
23423WAT      O70510   1.732   4.333   0.974
23423WAT     H170511   1.698   4.372   0.888
23423WAT     H270512   1.832   4.336   0.974
23424WAT      O70513   4.337   1.638   8.258
23424WAT     H170514   4.248   1.681   8.269
23424WAT     H270515   4.336   1.578   8.179
23425WAT      O70516   6.287   2.427   1.755
23425WAT     H170517   6.379   2.460   1.731
23425WAT     H270518   6.294   2.355   1.824
23426WAT      O70519   9.459   3.707   8.000
23426WAT     H170520   9.478   3.788   8.056
23426WAT     H270521   9.500   3.627   8.043
23427WAT      O70522   1.511   1.470   0.461
23427WAT     H170523   1.582   1.539   0.454
23427WAT     H270524   1.424   1.507   0.427
23428WAT      O70525   9.373   4.298   5.350
23428WAT     H170526   9.367   4.337   5.258
23428WAT     H270527   9.440   4.349   5.404
23429WAT      O70528   6.866   7.357   3.409
23429WAT     H170529   6.802   7.301   3.356
23429WAT     H270530   6.821   7.442   3.438
23430WAT      O70531   1.016   0.317   0.095
23430WAT     H170532   0.972   0.256   0.160
23430WAT     H270533   0.949   0.345   0.026
23431WAT      O70534   8.550   4.764   8.746
23431WAT     H170535   8.564   4.742   8.843
23431WAT     H270536   8.481   4.835   8.738
23432WAT      O70537   9.324   1.228   1.760
23432WAT     H170538   9.266   1.147   1.770
23432WAT     H270539   9.268   1.304   1.726
23433WAT      O70540   0.532   1.892   3.319
23433WAT     H170541   0.587   1.914   3.400
23433WAT     H270542   0.438   1.873   3.346
23434WAT      O70543   1.582   3.828   3.570
23434WAT     H170544   1.522   3.838   3.491
23434WAT     H270545   1.586   3.913   3.621
23435WAT      O70546   6.464   9.088   9.169
23435WAT     H170547   6.432   8.998   9.198
23435WAT     H270548   6.524   9.078   9.090
23436WAT      O70549   7.680   4.730   4.461
23436WAT     H170550   7.743   4.764   4.392
23436WAT     H270551   7.619   4.662   4.420
23437WAT      O70552   7.799   3.507   5.642
23437WAT     H170553   7.868   3.545   5.703
23437WAT     H270554   7.710   3.509   5.689
23438WAT      O70555   8.487   8.764   3.148
23438WAT     H170556   8.537   8.681   3.170
23438WAT     H270557   8.538   8.844   3.181
23439WAT      O70558   7.785   0.587   9.221
23439WAT     H170559   7.774   0.556   9.126
23439WAT     H270560   7.720   0.540   9.279
23440WAT      O70561   2.129   8.974   3.659
23440WAT     H170562   2.091   9.065   3.676
23440WAT     H270563   2.058   8.914   3.622
23441WAT      O70564   8.436   4.547   2.349
23441WAT     H170565   8.389   4.546   2.261
23441WAT     H270566   8.372   4.577   2.420
23442WAT      O70567   2.098   3.126   8.283
23442WAT     H170568   2.184   3.081   8.309
23442WAT     H270569   2.073   3.193   8.353
23443WAT      O70570   5.928   8.179   9.087
23443WAT     H170571   5.860   8.108   9.073
23443WAT     H270572   5.902   8.236   9.166
23444WAT      O70573   6.074   5.801   6.703
23444WAT     H170574   6.055   5.847   6.790
23444WAT     H270575   6.006   5.826   6.635
23445WAT      O70576   7.103   8.427   9.513
23445WAT     H170577   7.035   8.356   9.527
23445WAT     H270578   7.059   8.510   9.480
23446WAT      O70579   5.773   1.634   9.775
23446WAT     H170580   5.826   1.584   9.707
23446WAT     H270581   5.808   1.613   9.866
23447WAT      O70582   7.312   7.847   6.773
23447WAT     H170583   7.273   7.939   6.774
23447WAT     H270584   7.238   7.780   6.759
23448WAT      O70585   4.157   7.759   5.365
23448WAT     H170586   4.185   7.737   5.458
23448WAT     H270587   4.116   7.850   5.363
23449WAT      O70588   1.651   4.519   8.820
23449WAT     H170589   1.661   4.611   8.858
23449WAT     H270590   1.586   4.467   8.876
23450WAT      O70591   6.801   1.911   9.119
23450WAT     H170592   6.894   1.913   9.156
23450WAT     H270593   6.802   1.875   9.026
23451WAT      O70594   7.016   5.689   1.007
23451WAT     H170595   6.976   5.779   0.989
23451WAT     H270596   6.950   5.618   0.983
23452WAT      O70597   3.655   8.377   0.852
23452WAT     H170598   3.632   8.464   0.895
23452WAT     H270599   3.640   8.303   0.918
23453WAT      O70600   4.113   6.166   4.351
23453WAT     H170601   4.126   6.260   4.321
23453WAT     H270602   4.020   6.137   4.331
23454WAT      O70603   1.960   3.820   4.182
23454WAT     H170604   1.920   3.903   4.143
23454WAT     H270605   1.926   3.740   4.131
23455WAT      O70606   1.060   8.893   5.574
23455WAT     H170607   0.963   8.917   5.563
23455WAT     H270608   1.114   8.977   5.580
23456WAT      O70609   3.156   7.814   4.988
23456WAT     H170610   3.094   7.822   4.910
23456WAT     H270611   3.231   7.752   4.964
23457WAT      O70612   3.439   4.232   1.963
23457WAT     H170613   3.506   4.305   1.977
23457WAT     H270614   3.361   4.267   1.912
23458WAT      O70615   1.546   9.772   8.945
23458WAT     H170616   1.595   9.685   8.936
23458WAT     H270617   1.613   9.847   8.952
23459WAT      O70618   7.895   9.729   2.903
23459WAT     H170619   7.896   9.629   2.905
23459WAT     H270620   7.932   9.764   2.989
23460WAT      O70621   4.698   1.988   9.183
23460WAT     H170622   4.658   1.963   9.095
23460WAT     H270623   4.639   2.055   9.229
23461WAT      O70624   8.782   4.000   3.515
23461WAT     H170625   8.833   4.060   3.577
23461WAT     H270626   8.697   3.972   3.559
23462WAT      O70627   8.302   1.798   2.372
23462WAT     H170628   8.387   1.767   2.414
23462WAT     H270629   8.227   1.787   2.436
23463WAT      O70630   0.589   2.569   1.944
23463WAT     H170631   0.605   2.493   1.882
23463WAT     H270632   0.663   2.635   1.936
23464WAT      O70633   6.947   6.894   6.747
23464WAT     H170634   7.012   6.910   6.822
23464WAT     H270635   6.871   6.838   6.780
23465WAT      O70636   5.140   9.144   4.076
23465WAT     H170637   5.077   9.195   4.134
23465WAT     H270638   5.220   9.201   4.057
23466WAT      O70639   5.503   0.538   5.103
23466WAT     H170640   5.565   0.462   5.121
23466WAT     H270641   5.535   0.619   5.153
23467WAT      O70642   1.808   9.832   8.691
23467WAT     H170643   1.807   9.836   8.791
23467WAT     H270644   1.895   9.869   8.657
23468WAT      O70645   1.138   4.831   4.767
23468WAT     H170646   1.193   4.842   4.850
23468WAT     H270647   1.109   4.736   4.758
23469WAT      O70648   3.254   2.399   7.710
23469WAT     H170649   3.275   2.316   7.658
23469WAT     H270650   3.276   2.384   7.806
23470WAT      O70651   7.175   2.460   1.571
23470WAT     H170652   7.188   2.363   1.593
23470WAT     H270653   7.082   2.475   1.540
23471WAT      O70654   7.835   5.845   7.542
23471WAT     H170655   7.885   5.907   7.601
23471WAT     H270656   7.822   5.757   7.588
23472WAT      O70657   4.080   3.487   1.588
23472WAT     H170658   4.098   3.430   1.507
23472WAT     H270659   4.133   3.452   1.665
23473WAT      O70660   0.757   6.729   0.450
23473WAT     H170661   0.820   6.652   0.455
23473WAT     H270662   0.731   6.746   0.355
23474WAT      O70663   5.133   6.012   6.875
23474WAT     H170664   5.202   6.015   6.947
23474WAT     H270665   5.061   5.947   6.900
23475WAT      O70666   1.837   0.240   4.184
23475WAT     H170667   1.892   0.157   4.175
23475WAT     H270668   1.846   0.295   4.102
23476WAT      O70669   2.521   1.708   8.057
23476WAT     H170670   2.476   1.667   8.136
23476WAT     H270671   2.606   1.659   8.038
23477WAT      O70672   2.367   7.359   4.883
23477WAT     H170673   2.459   7.371   4.847
23477WAT     H270674   2.368   7.371   4.983
23478WAT      O70675   0.563   3.404   5.414
23478WAT     H170676   0.566   3.503   5.403
23478WAT     H270677   0.488   3.366   5.359
23479WAT      O70678   0.832   2.614   8.553
23479WAT     H170679   0.753   2.658   8.511
23479WAT     H270680   0.814   2.516   8.566
23480WAT      O70681   2.562   6.657   5.069
23480WAT     H170682   2.585   6.664   5.166
23480WAT     H270683   2.506   6.575   5.054
23481WAT      O70684   3.792   9.667   1.760
23481WAT     H170685   3.766   9.664   1.663
23481WAT     H270686   3.729   9.727   1.809
23482WAT      O70687   0.491   7.460   4.380
23482WAT     H170688   0.498   7.412   4.467
23482WAT     H270689   0.417   7.526   4.384
23483WAT      O70690   4.546   9.433   4.632
23483WAT     H170691   4.609   9.488   4.688
23483WAT     H270692   4.456   9.431   4.676
23484WAT      O70693   2.040   0.025   3.488
23484WAT     H170694   2.045   0.044   3.390
23484WAT     H270695   2.125   0.054   3.532
23485WAT      O70696   8.158   6.507   8.574
23485WAT     H170697   8.165   6.463   8.664
23485WAT     H270698   8.091   6.581   8.579
23486WAT      O70699   5.979   0.129   9.094
23486WAT     H170700   5.910   0.086   9.153
23486WAT     H270701   5.990   0.225   9.120
23487WAT      O70702   3.496   4.495   9.282
23487WAT     H170703   3.403   4.513   9.313
23487WAT     H270704   3.561   4.520   9.354
23488WAT      O70705   0.630   4.193   1.504
23488WAT     H170706   0.600   4.267   1.565
23488WAT     H270707   0.600   4.213   1.410
23489WAT      O70708   5.270   9.266   0.209
23489WAT     H170709   5.261   9.313   0.296
23489WAT     H270710   5.206   9.306   0.143
23490WAT      O70711   9.265   0.697   6.296
23490WAT     H170712   9.226   0.684   6.204
23490WAT     H270713   9.348   0.752   6.289
23491WAT      O70714   5.761   1.881   0.904
23491WAT     H170715   5.723   1.840   0.987
23491WAT     H270716   5.776   1.979   0.919
23492WAT      O70717   5.635   5.923   3.073
23492WAT     H170718   5.539   5.932   3.097
23492WAT     H270719   5.663   6.003   3.019
23493WAT      O70720   8.699   6.938   6.961
23493WAT     H170721   8.625   6.986   7.010
23493WAT     H270722   8.747   6.878   7.025
23494WAT      O70723   2.275   3.102   8.906
23494WAT     H170724   2.204   3.032   8.897
23494WAT     H270725   2.293   3.143   8.817
23495WAT      O70726   3.383   7.704   6.134
23495WAT     H170727   3.353   7.798   6.117
23495WAT     H270728   3.382   7.653   6.048
23496WAT      O70729   5.258   3.711   2.719
23496WAT     H170730   5.234   3.621   2.756
23496WAT     H270731   5.325   3.699   2.646
23497WAT      O70732   6.516   4.798   8.563
23497WAT     H170733   6.501   4.731   8.491
23497WAT     H270734   6.594   4.769   8.620
23498WAT      O70735   3.339   2.432   7.968
23498WAT     H170736   3.348   2.356   8.032
23498WAT     H270737   3.288   2.506   8.011
23499WAT      O70738   3.393   1.962   3.738
23499WAT     H170739   3.349   1.873   3.749
23499WAT     H270740   3.336   2.021   3.681
23500WAT      O70741   7.730   1.139   8.755
23500WAT     H170742   7.665   1.132   8.679
23500WAT     H270743   7.683   1.117   8.840
23501WAT      O70744   7.057   3.398   6.437
23501WAT     H170745   7.033   3.491   6.409
23501WAT     H270746   7.014   3.378   6.525
23502WAT      O70747   4.143   6.951   5.349
23502WAT     H170748   4.118   7.009   5.426
23502WAT     H270749   4.091   6.866   5.352
23503WAT      O70750   6.777   5.732   1.429
23503WAT     H170751   6.831   5.784   1.495
23503WAT     H270752   6.745   5.648   1.471
23504WAT      O70753   6.778   8.803   0.948
23504WAT     H170754   6.842   8.869   0.986
23504WAT     H270755   6.732   8.755   1.023
23505WAT      O70756   2.471   1.919   9.402
23505WAT     H170757   2.485   2.018   9.403
23505WAT     H270758   2.501   1.882   9.314
23506WAT      O70759   7.826   1.140   4.567
23506WAT     H170760   7.823   1.123   4.665
23506WAT     H270761   7.744   1.192   4.540
23507WAT      O70762   4.132   5.883   6.111
23507WAT     H170763   4.229   5.895   6.092
23507WAT     H270764   4.104   5.945   6.184
23508WAT      O70765   3.444   0.763   4.973
23508WAT     H170766   3.493   0.849   4.992
23508WAT     H270767   3.506   0.686   4.987
23509WAT      O70768   0.102   4.047   2.360
23509WAT     H170769   0.148   4.131   2.385
23509WAT     H270770   0.067   4.002   2.443
23510WAT      O70771   4.569   9.531   3.933
23510WAT     H170772   4.583   9.575   3.845
23510WAT     H270773   4.643   9.557   3.995
23511WAT      O70774   0.407   7.473   5.239
23511WAT     H170775   0.458   7.505   5.160
23511WAT     H270776   0.310   7.494   5.227
23512WAT      O70777   3.102   6.521   8.510
23512WAT     H170778   3.176   6.511   8.576
23512WAT     H270779   3.059   6.432   8.494
23513WAT      O70780   1.965   7.371   9.303
23513WAT     H170781   1.876   7.413   9.318
23513WAT     H270782   1.960   7.306   9.227
23514WAT      O70783   7.849   1.790   7.492
23514WAT     H170784   7.882   1.759   7.403
23514WAT     H270785   7.763   1.839   7.481
23515WAT      O70786   2.254   6.056   4.782
23515WAT     H170787   2.252   6.155   4.797
23515WAT     H270788   2.207   6.011   4.858
23516WAT      O70789   5.690   5.223   2.848
23516WAT     H170790   5.748   5.289   2.801
23516WAT     H270791   5.595   5.237   2.821
23517WAT      O70792   9.662   1.008   8.179
23517WAT     H170793   9.626   1.097   8.206
23517WAT     H270794   9.715   0.969   8.254
23518WAT      O70795   0.474   7.266   1.350
23518WAT     H170796   0.407   7.334   1.320
23518WAT     H270797   0.563   7.310   1.361
23519WAT      O70798   9.847   4.693   0.434
23519WAT     H170799   9.904   4.730   0.360
23519WAT     H270800   9.759   4.741   0.436
23520WAT      O70801   1.948   3.315   5.709
23520WAT     H170802   1.951   3.247   5.635
23520WAT     H270803   1.997   3.280   5.788
23521WAT      O70804   1.446   7.898   2.610
23521WAT     H170805   1.509   7.826   2.580
23521WAT     H270806   1.483   7.944   2.690
23522WAT      O70807   9.697   0.052   4.512
23522WAT     H170808   9.729   0.098   4.595
23522WAT     H270809   9.614   0.001   4.533
23523WAT      O70810   2.043   2.233   3.832
23523WAT     H170811   2.086   2.302   3.890
23523WAT     H270812   1.984   2.175   3.888
23524WAT      O70813   0.900   3.465   7.818
23524WAT     H170814   0.959   3.453   7.738
23524WAT     H270815   0.815   3.510   7.790
23525WAT      O70816   2.764   1.607   6.474
23525WAT     H170817   2.698   1.678   6.497
23525WAT     H270818   2.787   1.613   6.377
23526WAT      O70819   5.216   6.273   1.114
23526WAT     H170820   5.229   6.207   1.040
23526WAT     H270821   5.300   6.327   1.125
23527WAT      O70822   0.726   6.179   4.359
23527WAT     H170823   0.774   6.142   4.439
23527WAT     H270824   0.788   6.178   4.280
23528WAT      O70825   3.702   6.480   4.101
23528WAT     H170826   3.702   6.563   4.044
23528WAT     H270827   3.786   6.428   4.083
23529WAT      O70828   1.047   4.666   2.178
23529WAT     H170829   1.113   4.608   2.129
23529WAT     H270830   1.006   4.613   2.253
23530WAT      O70831   4.008   1.446   6.236
23530WAT     H170832   4.021   1.378   6.307
23530WAT     H270833   3.911   1.455   6.215
23531WAT      O70834   3.099   2.646   7.764
23531WAT     H170835   3.141   2.660   7.854
23531WAT     H270836   3.140   2.565   7.721
23532WAT      O70837   4.315   4.089   0.320
23532WAT     H170838   4.403   4.086   0.272
23532WAT     H270839   4.242   4.058   0.258
23533WAT      O70840   0.503   3.787   0.885
23533WAT     H170841   0.463   3.810   0.796
23533WAT     H270842   0.447   3.717   0.930
23534WAT      O70843   3.605   1.905   8.143
23534WAT     H170844   3.513   1.940   8.131
23534WAT     H270845   3.617   1.821   8.090
23535WAT      O70846   5.673   8.090   3.391
23535WAT     H170847   5.732   8.073   3.311
23535WAT     H270848   5.577   8.092   3.361
23536WAT      O70849   2.220   2.137   5.810
23536WAT     H170850   2.258   2.205   5.873
23536WAT     H270851   2.134   2.171   5.773
23537WAT      O70852   5.209   4.838   7.973
23537WAT     H170853   5.236   4.872   7.883
23537WAT     H270854   5.255   4.892   8.044
23538WAT      O70855   5.738   6.719   7.374
23538WAT     H170856   5.651   6.759   7.405
23538WAT     H270857   5.813   6.778   7.403
23539WAT      O70858   7.016   2.755   1.395
23539WAT     H170859   6.932   2.808   1.386
23539WAT     H270860   7.079   2.801   1.459
23540WAT      O70861   9.613   2.331   1.885
23540WAT     H170862   9.699   2.355   1.838
23540WAT     H270863   9.546   2.300   1.818
23541WAT      O70864   7.878   1.272   5.013
23541WAT     H170865   7.813   1.315   5.075
23541WAT     H270866   7.967   1.264   5.057
23542WAT      O70867   7.672   9.563   6.029
23542WAT     H170868   7.680   9.606   6.119
23542WAT     H270869   7.594   9.601   5.980
23543WAT      O70870   1.243   1.327   2.638
23543WAT     H170871   1.213   1.345   2.545
23543WAT     H270872   1.234   1.411   2.693
23544WAT      O70873   0.654   0.451   3.469
23544WAT     H170874   0.646   0.399   3.555
23544WAT     H270875   0.612   0.541   3.481
23545WAT      O70876   7.770   1.300   2.261
23545WAT     H170877   7.811   1.385   2.228
23545WAT     H270878   7.679   1.289   2.222
23546WAT      O70879   1.889   2.052   6.629
23546WAT     H170880   1.857   1.975   6.685
23546WAT     H270881   1.916   2.018   6.539
23547WAT      O70882   4.140   4.960   4.379
23547WAT     H170883   4.170   5.012   4.459
23547WAT     H270884   4.041   4.943   4.386
23548WAT      O70885   0.408   4.198   5.865
23548WAT     H170886   0.441   4.146   5.786
23548WAT     H270887   0.485   4.221   5.924
23549WAT      O70888   1.864   4.519   4.616
23549WAT     H170889   1.958   4.527   4.581
23549WAT     H270890   1.809   4.593   4.578
23550WAT      O70891   2.364   3.481   5.377
23550WAT     H170892   2.286   3.543   5.373
23550WAT     H270893   2.428   3.513   5.447
23551WAT      O70894   1.615   5.063   9.385
23551WAT     H170895   1.619   5.107   9.474
23551WAT     H270896   1.671   4.980   9.387
23552WAT      O70897   1.671   5.928   8.322
23552WAT     H170898   1.659   5.985   8.240
23552WAT     H270899   1.646   5.834   8.300
23553WAT      O70900   6.356   4.820   7.130
23553WAT     H170901   6.373   4.779   7.040
23553WAT     H270902   6.372   4.751   7.201
23554WAT      O70903   1.514   8.745   0.764
23554WAT     H170904   1.588   8.680   0.745
23554WAT     H270905   1.483   8.786   0.678
23555WAT      O70906   5.775   9.159   5.053
23555WAT     H170907   5.757   9.087   4.986
23555WAT     H270908   5.809   9.118   5.138
23556WAT      O70909   8.932   0.043   5.185
23556WAT     H170910   8.889   0.128   5.214
23556WAT     H270911   8.914  -0.028   5.254
23557WAT      O70912   5.836   9.560   3.485
23557WAT     H170913   5.909   9.629   3.481
23557WAT     H270914   5.865   9.477   3.438
23558WAT      O70915   3.538   5.556   6.349
23558WAT     H170916   3.508   5.511   6.265
23558WAT     H270917   3.605   5.627   6.326
23559WAT      O70918   6.306   4.210   2.651
23559WAT     H170919   6.349   4.245   2.734
23559WAT     H270920   6.377   4.180   2.587
23560WAT      O70921   5.892   2.735   2.633
23560WAT     H170922   5.926   2.670   2.565
23560WAT     H270923   5.822   2.793   2.592
23561WAT      O70924   0.814   9.434   6.150
23561WAT     H170925   0.855   9.422   6.059
23561WAT     H270926   0.717   9.408   6.146
23562WAT      O70927   9.410   0.017   9.102
23562WAT     H170928   9.494   0.012   9.048
23562WAT     H270929   9.374  -0.075   9.116
23563WAT      O70930   4.123   9.723   8.547
23563WAT     H170931   4.086   9.630   8.543
23563WAT     H270932   4.186   9.731   8.624
23564WAT      O70933   2.596   0.032   8.371
23564WAT     H170934   2.602  -0.067   8.380
23564WAT     H270935   2.634   0.060   8.283
23565WAT      O70936   0.993   1.176   5.295
23565WAT     H170937   0.930   1.201   5.368
23565WAT     H270938   0.996   1.076   5.287
23566WAT      O70939   2.021   5.066   9.324
23566WAT     H170940   1.982   5.058   9.415
23566WAT     H270941   2.054   5.159   9.309
23567WAT      O70942   4.313   5.190   0.896
23567WAT     H170943   4.219   5.222   0.906
23567WAT     H270944   4.335   5.182   0.799
23568WAT      O70945   1.639   7.266   3.350
23568WAT     H170946   1.567   7.314   3.400
23568WAT     H270947   1.728   7.290   3.389
23569WAT      O70948   6.468   3.077   2.567
23569WAT     H170949   6.459   2.978   2.581
23569WAT     H270950   6.386   3.123   2.601
23570WAT      O70951   5.348   8.322   8.906
23570WAT     H170952   5.269   8.261   8.903
23570WAT     H270953   5.395   8.311   8.994
23571WAT      O70954   2.094   8.104   2.792
23571WAT     H170955   2.001   8.111   2.829
23571WAT     H270956   2.122   8.008   2.790
23572WAT      O70957   0.290   4.753   8.853
23572WAT     H170958   0.331   4.839   8.882
23572WAT     H270959   0.320   4.679   8.913
23573WAT      O70960   0.490   4.609   8.731
23573WAT     H170961   0.432   4.689   8.744
23573WAT     H270962   0.432   4.530   8.710
23574WAT      O70963   1.484   5.141   5.369
23574WAT     H170964   1.521   5.082   5.297
23574WAT     H270965   1.385   5.131   5.372
23575WAT      O70966   4.139   2.483   3.993
23575WAT     H170967   4.053   2.432   3.992
23575WAT     H270968   4.174   2.491   3.900
23576WAT      O70969   4.660   5.041   4.177
23576WAT     H170970   4.736   5.016   4.237
23576WAT     H270971   4.574   5.008   4.216
23577WAT      O70972   9.069   2.257   1.335
23577WAT     H170973   9.002   2.184   1.348
23577WAT     H270974   9.021   2.343   1.317
23578WAT      O70975   2.925   1.172   2.995
23578WAT     H170976   2.901   1.254   2.944
23578WAT     H270977   2.871   1.168   3.079
23579WAT      O70978   8.629   5.632   1.724
23579WAT     H170979   8.644   5.653   1.821
23579WAT     H270980   8.664   5.706   1.668
23580WAT      O70981   8.608   2.177   5.214
23580WAT     H170982   8.576   2.268   5.188
23580WAT     H270983   8.531   2.113   5.213
23581WAT      O70984   5.311   9.014   0.070
23581WAT     H170985   5.294   9.104   0.110
23581WAT     H270986   5.355   9.025  -0.020
23582WAT      O70987   2.611   8.625   4.254
23582WAT     H170988   2.671   8.658   4.181
23582WAT     H270989   2.516   8.639   4.227
23583WAT      O70990   9.479   1.308   4.838
23583WAT     H170991   9.548   1.379   4.820
23583WAT     H270992   9.524   1.224   4.868
23584WAT      O70993   5.060   7.204   0.953
23584WAT     H170994   5.058   7.268   1.030
23584WAT     H270995   5.152   7.201   0.914
23585WAT      O70996   1.751   4.723   4.508
23585WAT     H170997   1.730   4.813   4.547
23585WAT     H270998   1.758   4.730   4.409
23586WAT      O70999   1.304   0.018   9.061
23586WAT     H171000   1.371  -0.042   9.017
23586WAT     H271001   1.212  -0.020   9.049
23587WAT      O71002   2.407   5.942   1.948
23587WAT     H171003   2.459   5.863   1.915
23587WAT     H271004   2.387   6.003   1.871
23588WAT      O71005   2.968   1.102   7.646
23588WAT     H171006   2.953   1.110   7.548
23588WAT     H271007   2.884   1.128   7.695
23589WAT      O71008   8.571   8.278   8.809
23589WAT     H171009   8.527   8.290   8.720
23589WAT     H271010   8.593   8.368   8.848
23590WAT      O71011   0.078   1.477   3.614
23590WAT     H171012   0.018   1.499   3.537
23590WAT     H271013   0.033   1.503   3.699
23591WAT      O71014   4.963   5.316   2.336
23591WAT     H171015   5.020   5.277   2.408
23591WAT     H271016   5.018   5.331   2.254
23592WAT      O71017   9.680   5.017   7.132
23592WAT     H171018   9.684   5.066   7.219
23592WAT     H271019   9.667   5.081   7.057
23593WAT      O71020   5.896   2.767   5.277
23593WAT     H171021   5.973   2.740   5.220
23593WAT     H271022   5.890   2.866   5.281
23594WAT      O71023   1.719   3.591   9.021
23594WAT     H171024   1.674   3.632   8.941
23594WAT     H271025   1.816   3.617   9.021
23595WAT      O71026   8.460   2.260   7.557
23595WAT     H171027   8.419   2.169   7.548
23595WAT     H271028   8.558   2.250   7.574
23596WAT      O71029   4.765   8.510   7.199
23596WAT     H171030   4.796   8.481   7.289
23596WAT     H271031   4.688   8.454   7.169
23597WAT      O71032   4.685   8.270   8.867
23597WAT     H171033   4.671   8.320   8.782
23597WAT     H271034   4.691   8.336   8.943
23598WAT      O71035   9.255   2.585   8.593
23598WAT     H171036   9.294   2.600   8.502
23598WAT     H271037   9.219   2.671   8.627
23599WAT      O71038   2.595   1.583   0.718
23599WAT     H171039   2.608   1.504   0.658
23599WAT     H271040   2.568   1.662   0.664
23600WAT      O71041   1.610   2.366   3.978
23600WAT     H171042   1.704   2.365   4.012
23600WAT     H271043   1.559   2.292   4.021
23601WAT      O71044   8.118   7.368   4.487
23601WAT     H171045   8.184   7.354   4.562
23601WAT     H271046   8.167   7.375   4.401
23602WAT      O71047   0.243   1.132   7.707
23602WAT     H171048   0.256   1.183   7.793
23602WAT     H271049   0.223   1.037   7.728
23603WAT      O71050   5.933   9.141   8.332
23603WAT     H171051   5.950   9.207   8.405
23603WAT     H271052   5.975   9.174   8.247
23604WAT      O71053   8.050   4.813   6.148
23604WAT     H171054   8.014   4.736   6.200
23604WAT     H271055   7.982   4.842   6.080
23605WAT      O71056   1.052   4.782   4.242
23605WAT     H171057   1.146   4.759   4.215
23605WAT     H271058   1.019   4.857   4.186
23606WAT      O71059   7.663   0.824   7.478
23606WAT     H171060   7.738   0.877   7.439
23606WAT     H271061   7.581   0.881   7.485
23607WAT      O71062   0.748   3.529   1.305
23607WAT     H171063   0.699   3.471   1.371
23607WAT     H271064   0.802   3.596   1.354
23608WAT      O71065   5.932   7.199   8.595
23608WAT     H171066   6.016   7.250   8.574
23608WAT     H271067   5.858   7.230   8.535
23609WAT      O71068   7.396   2.164   2.014
23609WAT     H171069   7.433   2.152   2.106
23609WAT     H271070   7.359   2.257   2.005
23610WAT      O71071   5.781   9.146   8.972
23610WAT     H171072   5.875   9.131   9.004
23610WAT     H271073   5.783   9.172   8.875
23611WAT      O71074   6.296   0.059   8.838
23611WAT     H171075   6.205   0.018   8.845
23611WAT     H271076   6.291   0.146   8.789
23612WAT      O71077   0.462   5.144   7.469
23612WAT     H171078   0.501   5.156   7.378
23612WAT     H271079   0.362   5.143   7.463
23613WAT      O71080   4.582   3.720   7.518
23613WAT     H171081   4.497   3.712   7.570
23613WAT     H271082   4.627   3.630   7.513
23614WAT      O71083   7.282   0.189   9.206
23614WAT     H171084   7.365   0.237   9.236
23614WAT     H271085   7.298   0.090   9.209
23615WAT      O71086   5.208   2.890   7.080
23615WAT     H171087   5.166   2.851   7.162
23615WAT     H271088   5.305   2.904   7.096
23616WAT      O71089   7.422   5.238   1.626
23616WAT     H171090   7.476   5.201   1.702
23616WAT     H271091   7.465   5.323   1.594
23617WAT      O71092   2.991   3.331   6.363
23617WAT     H171093   2.976   3.430   6.365
23617WAT     H271094   2.979   3.294   6.455
23618WAT      O71095   3.933   5.076   0.224
23618WAT     H171096   3.990   5.154   0.202
23618WAT     H271097   3.908   5.028   0.140
23619WAT      O71098   4.912   6.930   8.997
23619WAT     H171099   4.864   6.972   9.074
23619WAT     H271100   4.890   6.832   8.993
23620WAT      O71101   0.085   8.999   5.361
23620WAT     H171102   0.153   9.052   5.309
23620WAT     H271103   0.122   8.980   5.452
23621WAT      O71104   1.374   4.680   7.613
23621WAT     H171105   1.442   4.720   7.675
23621WAT     H271106   1.283   4.715   7.636
23622WAT      O71107   7.708   2.587   3.778
23622WAT     H171108   7.657   2.502   3.791
23622WAT     H271109   7.703   2.642   3.862
23623WAT      O71110   5.913   7.378   4.412
23623WAT     H171111   6.006   7.400   4.384
23623WAT     H271112   5.895   7.281   4.398
23624WAT      O71113   7.501   1.117   4.516
23624WAT     H171114   7.544   1.200   4.553
23624WAT     H271115   7.484   1.130   4.418
23625WAT      O71116   6.427   9.255   6.990
23625WAT     H171117   6.401   9.160   7.010
23625WAT     H271118   6.501   9.256   6.923
23626WAT      O71119   6.485   7.452   9.256
23626WAT     H171120   6.494   7.372   9.316
23626WAT     H271121   6.389   7.479   9.251
23627WAT      O71122   4.774   6.730   8.771
23627WAT     H171123   4.689   6.776   8.746
23627WAT     H271124   4.817   6.692   8.688
23628WAT      O71125   0.286   2.007   9.057
23628WAT     H171126   0.207   2.047   9.011
23628WAT     H271127   0.369   2.053   9.026
23629WAT      O71128   4.056   8.203   9.509
23629WAT     H171129   4.022   8.193   9.416
23629WAT     H271130   4.044   8.298   9.539
23630WAT      O71131   3.948   6.863   0.647
23630WAT     H171132   4.037   6.879   0.603
23630WAT     H271133   3.876   6.903   0.591
23631WAT      O71134   5.444   6.378   1.934
23631WAT     H171135   5.538   6.392   1.966
23631WAT     H271136   5.405   6.466   1.907
23632WAT      O71137   0.464   5.925   6.261
23632WAT     H171138   0.403   5.856   6.300
23632WAT     H271139   0.446   5.933   6.163
23633WAT      O71140   5.449   6.425   9.619
23633WAT     H171141   5.351   6.431   9.637
23633WAT     H271142   5.500   6.463   9.696
23634WAT      O71143   7.107   7.407   1.789
23634WAT     H171144   7.075   7.476   1.854
23634WAT     H271145   7.127   7.322   1.838
23635WAT      O71146   6.029   0.556   7.408
23635WAT     H171147   6.032   0.579   7.506
23635WAT     H271148   5.939   0.521   7.384
23636WAT      O71149   7.041   3.045   4.175
23636WAT     H171150   6.984   3.097   4.238
23636WAT     H271151   7.131   3.088   4.166
23637WAT      O71152   8.492   0.654   5.536
23637WAT     H171153   8.455   0.583   5.596
23637WAT     H271154   8.590   0.665   5.553
23638WAT      O71155   0.501   2.093   5.761
23638WAT     H171156   0.481   2.185   5.726
23638WAT     H271157   0.573   2.099   5.830
23639WAT      O71158   0.654   4.514   2.501
23639WAT     H171159   0.583   4.574   2.463
23639WAT     H271160   0.711   4.566   2.564
23640WAT      O71161   4.772   9.684   7.192
23640WAT     H171162   4.872   9.686   7.194
23640WAT     H271163   4.741   9.607   7.136
23641WAT      O71164   5.646   6.060   4.122
23641WAT     H171165   5.633   6.154   4.090
23641WAT     H271166   5.675   6.061   4.218
23642WAT      O71167   2.347   2.948   4.418
23642WAT     H171168   2.297   2.905   4.493
23642WAT     H271169   2.442   2.963   4.445
23643WAT      O71170   5.885   7.793   6.682
23643WAT     H171171   5.823   7.871   6.683
23643WAT     H271172   5.922   7.778   6.773
23644WAT      O71173   2.868   3.297   5.767
23644WAT     H171174   2.944   3.233   5.768
23644WAT     H271175   2.809   3.278   5.689
23645WAT      O71176   9.196   4.392   4.158
23645WAT     H171177   9.284   4.429   4.188
23645WAT     H271178   9.128   4.466   4.153
23646WAT      O71179   2.981   3.995   5.173
23646WAT     H171180   2.897   4.046   5.192
23646WAT     H271181   3.056   4.033   5.226
23647WAT      O71182   9.843   5.735   6.887
23647WAT     H171183   9.813   5.800   6.818
23647WAT     H271184   9.817   5.768   6.977
23648WAT      O71185   2.644   5.006   7.050
23648WAT     H171186   2.647   4.976   7.145
23648WAT     H271187   2.588   4.942   6.996
23649WAT      O71188   2.400   4.825   3.639
23649WAT     H171189   2.389   4.727   3.652
23649WAT     H271190   2.461   4.861   3.710
23650WAT      O71191   1.517   1.959   5.454
23650WAT     H171192   1.448   1.906   5.406
23650WAT     H271193   1.482   2.051   5.475
23651WAT      O71194   2.152   9.489   5.865
23651WAT     H171195   2.104   9.483   5.778
23651WAT     H271196   2.248   9.512   5.849
23652WAT      O71197   4.480   9.266   7.694
23652WAT     H171198   4.407   9.286   7.628
23652WAT     H271199   4.500   9.347   7.748
23653WAT      O71200   0.669   4.159   3.106
23653WAT     H171201   0.673   4.060   3.102
23653WAT     H271202   0.595   4.188   3.167
23654WAT      O71203   5.171   9.779   4.082
23654WAT     H171204   5.227   9.766   4.164
23654WAT     H271205   5.140   9.691   4.048
23655WAT      O71206   1.060   5.035   4.120
23655WAT     H171207   1.116   5.113   4.147
23655WAT     H271208   1.008   5.058   4.038
23656WAT      O71209   1.590   4.129   2.178
23656WAT     H171210   1.507   4.087   2.142
23656WAT     H271211   1.642   4.062   2.230
23657WAT      O71212   8.540   5.894   8.806
23657WAT     H171213   8.590   5.949   8.739
23657WAT     H271214   8.448   5.931   8.818
23658WAT      O71215   5.817   5.037   9.415
23658WAT     H171216   5.908   5.048   9.453
23658WAT     H271217   5.818   4.966   9.344
23659WAT      O71218   3.215   8.410   0.069
23659WAT     H171219   3.162   8.353   0.007
23659WAT     H271220   3.227   8.501   0.029
23660WAT      O71221   3.141   7.676   2.049
23660WAT     H171222   3.042   7.694   2.042
23660WAT     H271223   3.157   7.611   2.124
23661WAT      O71224   9.477   5.199   3.263
23661WAT     H171225   9.406   5.215   3.332
23661WAT     H271226   9.567   5.207   3.306
23662WAT      O71227   6.629   9.829   8.222
23662WAT     H171228   6.618   9.900   8.152
23662WAT     H271229   6.720   9.789   8.214
23663WAT      O71230   2.648   3.557   8.614
23663WAT     H171231   2.632   3.533   8.518
23663WAT     H271232   2.568   3.532   8.668
23664WAT      O71233   8.133   5.534   9.364
23664WAT     H171234   8.187   5.561   9.285
23664WAT     H271235   8.036   5.546   9.344
23665WAT      O71236   1.524   5.591   5.926
23665WAT     H171237   1.468   5.591   5.843
23665WAT     H271238   1.465   5.608   6.005
23666WAT      O71239   2.721   2.317   9.624
23666WAT     H171240   2.700   2.394   9.684
23666WAT     H271241   2.818   2.321   9.599
23667WAT      O71242   0.986   0.317   5.359
23667WAT     H171243   1.013   0.404   5.401
23667WAT     H271244   1.064   0.253   5.362
23668WAT      O71245   7.398   1.709   5.195
23668WAT     H171246   7.339   1.785   5.222
23668WAT     H271247   7.455   1.682   5.272
23669WAT      O71248   3.230   8.285   6.075
23669WAT     H171249   3.185   8.361   6.121
23669WAT     H271250   3.169   8.206   6.071
23670WAT      O71251   6.395   2.595   0.762
23670WAT     H171252   6.402   2.665   0.833
23670WAT     H271253   6.439   2.628   0.679
23671WAT      O71254   5.152   2.934   8.915
23671WAT     H171255   5.119   2.844   8.941
23671WAT     H271256   5.087   3.004   8.944
23672WAT      O71257   9.534   0.185   4.811
23672WAT     H171258   9.482   0.204   4.728
23672WAT     H271259   9.534   0.087   4.828
23673WAT      O71260   0.378   6.587   0.573
23673WAT     H171261   0.338   6.575   0.663
23673WAT     H271262   0.474   6.560   0.575
23674WAT      O71263   8.905   9.647   4.150
23674WAT     H171264   8.958   9.639   4.234
23674WAT     H271265   8.865   9.558   4.127
23675WAT      O71266   7.144   2.408   6.026
23675WAT     H171267   7.138   2.314   6.060
23675WAT     H271268   7.141   2.472   6.103
23676WAT      O71269   2.739   0.296   0.846
23676WAT     H171270   2.647   0.298   0.807
23676WAT     H271271   2.770   0.390   0.862
23677WAT      O71272   4.023   9.049   6.253
23677WAT     H171273   4.071   9.011   6.174
23677WAT     H271274   3.994   9.143   6.232
23678WAT      O71275   5.177   6.627   4.381
23678WAT     H171276   5.235   6.676   4.315
23678WAT     H271277   5.172   6.531   4.355
23679WAT      O71278   8.603   4.669   8.048
23679WAT     H171279   8.513   4.668   8.091
23679WAT     H271280   8.622   4.580   8.007
23680WAT      O71281   5.500   8.877   7.989
23680WAT     H171282   5.548   8.827   7.917
23680WAT     H271283   5.567   8.922   8.049
23681WAT      O71284   9.878   1.442   7.020
23681WAT     H171285   9.839   1.442   7.112
23681WAT     H271286   9.974   1.415   7.025
23682WAT      O71287   5.990   7.306   7.053
23682WAT     H171288   6.043   7.390   7.064
23682WAT     H271289   6.030   7.250   6.981
23683WAT      O71290   8.870   5.093   1.585
23683WAT     H171291   8.864   5.182   1.630
23683WAT     H271292   8.930   5.100   1.505
23684WAT      O71293   7.599   3.694   9.784
23684WAT     H171294   7.634   3.772   9.836
23684WAT     H271295   7.507   3.671   9.817
23685WAT      O71296   8.678   9.105   1.322
23685WAT     H171297   8.770   9.072   1.344
23685WAT     H271298   8.634   9.137   1.406
23686WAT      O71299   6.209   4.412   9.543
23686WAT     H171300   6.138   4.368   9.488
23686WAT     H271301   6.295   4.361   9.534
23687WAT      O71302   1.907   3.601   5.711
23687WAT     H171303   1.918   3.502   5.704
23687WAT     H271304   1.831   3.622   5.773
23688WAT      O71305   7.642   2.143   7.506
23688WAT     H171306   7.543   2.143   7.486
23688WAT     H271307   7.660   2.084   7.584
23689WAT      O71308   9.240   4.989   7.500
23689WAT     H171309   9.146   4.954   7.496
23689WAT     H271310   9.299   4.933   7.443
23690WAT      O71311   7.807   0.877   9.183
23690WAT     H171312   7.798   0.778   9.193
23690WAT     H271313   7.752   0.907   9.106
23691WAT      O71314   4.437   2.675   6.229
23691WAT     H171315   4.466   2.585   6.261
23691WAT     H271316   4.376   2.716   6.297
23692WAT      O71317   4.732   0.566   0.009
23692WAT     H171318   4.747   0.599  -0.085
23692WAT     H271319   4.742   0.642   0.073
23693WAT      O71320   4.812   5.806   3.119
23693WAT     H171321   4.858   5.830   3.033
23693WAT     H271322   4.766   5.887   3.155
23694WAT      O71323   8.123   2.241   2.196
23694WAT     H171324   8.164   2.298   2.125
23694WAT     H271325   8.170   2.153   2.200
23695WAT      O71326   4.719   9.757   5.489
23695WAT     H171327   4.694   9.763   5.586
23695WAT     H271328   4.663   9.688   5.444
23696WAT      O71329   5.275   2.303   7.098
23696WAT     H171330   5.179   2.292   7.124
23696WAT     H271331   5.309   2.392   7.129
23697WAT      O71332   5.355   5.809   2.255
23697WAT     H171333   5.269   5.860   2.264
23697WAT     H271334   5.337   5.711   2.266
23698WAT      O71335   8.279   4.347   4.268
23698WAT     H171336   8.345   4.412   4.307
23698WAT     H271337   8.248   4.380   4.180
23699WAT      O71338   7.276   2.554   7.847
23699WAT     H171339   7.255   2.548   7.944
23699WAT     H271340   7.267   2.464   7.804
23700WAT      O71341   4.503   6.421   8.088
23700WAT     H171342   4.502   6.505   8.034
23700WAT     H271343   4.591   6.375   8.076
23701WAT      O71344   7.613   3.767   9.303
23701WAT     H171345   7.665   3.790   9.385
23701WAT     H271346   7.672   3.717   9.239
23702WAT      O71347   4.850   8.661   0.621
23702WAT     H171348   4.800   8.747   0.625
23702WAT     H271349   4.788   8.585   0.637
23703WAT      O71350   8.473   8.122   1.847
23703WAT     H171351   8.481   8.211   1.893
23703WAT     H271352   8.383   8.114   1.804
23704WAT      O71353   1.644   0.341   2.958
23704WAT     H171354   1.598   0.252   2.957
23704WAT     H271355   1.633   0.382   3.049
23705WAT      O71356   4.982   8.991   4.883
23705WAT     H171357   4.972   9.084   4.916
23705WAT     H271358   5.032   8.936   4.950
23706WAT      O71359   8.692   7.294   0.845
23706WAT     H171360   8.600   7.328   0.859
23706WAT     H271361   8.757   7.347   0.900
23707WAT      O71362   0.460   7.242   0.313
23707WAT     H171363   0.506   7.155   0.294
23707WAT     H271364   0.366   7.239   0.279
23708WAT      O71365   0.183   4.109   8.818
23708WAT     H171366   0.231   4.130   8.733
23708WAT     H271367   0.228   4.033   8.863
23709WAT      O71368   4.832   7.582   8.322
23709WAT     H171369   4.784   7.497   8.301
23709WAT     H271370   4.846   7.588   8.421
23710WAT      O71371   0.600   4.193   7.629
23710WAT     H171372   0.512   4.178   7.584
23710WAT     H271373   0.666   4.227   7.563
23711WAT      O71374   6.457   6.081   0.957
23711WAT     H171375   6.474   5.999   0.903
23711WAT     H271376   6.508   6.074   1.043
23712WAT      O71377   3.981   5.083   9.835
23712WAT     H171378   3.978   5.175   9.797
23712WAT     H271379   3.909   5.027   9.794
23713WAT      O71380   6.445   0.348   7.601
23713WAT     H171381   6.456   0.314   7.694
23713WAT     H271382   6.348   0.347   7.576
23714WAT      O71383   8.906   2.071   1.397
23714WAT     H171384   8.937   2.026   1.481
23714WAT     H271385   8.878   2.002   1.331
23715WAT      O71386   3.367   9.315   1.771
23715WAT     H171387   3.281   9.366   1.775
23715WAT     H271388   3.352   9.229   1.722
23716WAT      O71389   4.604   9.217   1.059
23716WAT     H171390   4.673   9.278   1.099
23716WAT     H271391   4.597   9.134   1.115
23717WAT      O71392   5.282   9.417   8.318
23717WAT     H171393   5.200   9.397   8.372
23717WAT     H271394   5.350   9.345   8.333
23718WAT      O71395   6.446   7.884   3.352
23718WAT     H171396   6.383   7.953   3.390
23718WAT     H271397   6.432   7.797   3.399
23719WAT      O71398   7.520   2.563   9.790
23719WAT     H171399   7.579   2.526   9.718
23719WAT     H271400   7.528   2.663   9.791
23720WAT      O71401   8.654   7.449   4.895
23720WAT     H171402   8.648   7.536   4.846
23720WAT     H271403   8.733   7.397   4.862
23721WAT      O71404   1.150   5.216   2.555
23721WAT     H171405   1.227   5.190   2.614
23721WAT     H271406   1.173   5.195   2.460
23722WAT      O71407   2.357   3.343   0.846
23722WAT     H171408   2.447   3.385   0.849
23722WAT     H271409   2.366   3.244   0.830
23723WAT      O71410   3.756   6.335   7.383
23723WAT     H171411   3.683   6.267   7.381
23723WAT     H271412   3.799   6.335   7.474
23724WAT      O71413   9.626   7.391   8.632
23724WAT     H171414   9.648   7.294   8.643
23724WAT     H271415   9.622   7.435   8.722
23725WAT      O71416   8.841   9.533   2.924
23725WAT     H171417   8.907   9.496   2.990
23725WAT     H271418   8.890   9.582   2.852
23726WAT      O71419   3.080   6.957   0.472
23726WAT     H171420   3.047   6.870   0.508
23726WAT     H271421   3.176   6.969   0.495
23727WAT      O71422   8.923   1.611   8.614
23727WAT     H171423   8.869   1.537   8.656
23727WAT     H271424   9.017   1.581   8.602
23728WAT      O71425   4.324   0.696   6.638
23728WAT     H171426   4.316   0.788   6.677
23728WAT     H271427   4.233   0.665   6.608
23729WAT      O71428   2.459   7.159   9.233
23729WAT     H171429   2.473   7.208   9.319
23729WAT     H271430   2.416   7.221   9.167
23730WAT      O71431   8.420   3.036   8.412
23730WAT     H171432   8.335   3.076   8.448
23730WAT     H271433   8.436   3.071   8.320
23731WAT      O71434   9.507   4.693   4.548
23731WAT     H171435   9.479   4.622   4.613
23731WAT     H271436   9.427   4.746   4.521
23732WAT      O71437   2.047   1.733   3.926
23732WAT     H171438   1.963   1.687   3.900
23732WAT     H271439   2.119   1.666   3.944
23733WAT      O71440   1.092   2.739   8.822
23733WAT     H171441   1.076   2.814   8.758
23733WAT     H271442   1.012   2.679   8.824
23734WAT      O71443   9.857   9.088   1.306
23734WAT     H171444   9.780   9.146   1.278
23734WAT     H271445   9.825   9.021   1.373
23735WAT      O71446   9.762   7.793   4.593
23735WAT     H171447   9.743   7.830   4.502
23735WAT     H271448   9.722   7.702   4.601
23736WAT      O71449   2.430   7.057   6.203
23736WAT     H171450   2.338   7.087   6.231
23736WAT     H271451   2.434   7.050   6.104
23737WAT      O71452   1.548   3.857   2.589
23737WAT     H171453   1.598   3.940   2.615
23737WAT     H271454   1.555   3.844   2.490
23738WAT      O71455   7.379   2.544   2.137
23738WAT     H171456   7.341   2.489   2.062
23738WAT     H271457   7.454   2.495   2.180
23739WAT      O71458   2.618   7.746   7.623
23739WAT     H171459   2.677   7.777   7.698
23739WAT     H271460   2.567   7.823   7.586
23740WAT      O71461   0.799   3.176   5.085
23740WAT     H171462   0.851   3.101   5.045
23740WAT     H271463   0.781   3.245   5.015
23741WAT      O71464   2.223   2.660   5.995
23741WAT     H171465   2.262   2.732   5.937
23741WAT     H271466   2.123   2.660   5.986
23742WAT      O71467   6.162   8.293   7.489
23742WAT     H171468   6.194   8.203   7.457
23742WAT     H271469   6.067   8.287   7.519
23743WAT      O71470   3.136   9.163   9.575
23743WAT     H171471   3.223   9.200   9.542
23743WAT     H271472   3.061   9.201   9.520
23744WAT      O71473   5.297   1.569   2.764
23744WAT     H171474   5.313   1.470   2.764
23744WAT     H271475   5.217   1.589   2.821
23745WAT      O71476   6.630   0.721   7.924
23745WAT     H171477   6.602   0.789   7.992
23745WAT     H271478   6.690   0.765   7.856
23746WAT      O71479   8.798   7.023   3.891
23746WAT     H171480   8.850   7.038   3.807
23746WAT     H271481   8.757   6.931   3.889
23747WAT      O71482   8.332   0.159   4.584
23747WAT     H171483   8.322   0.207   4.671
23747WAT     H271484   8.254   0.179   4.525
23748WAT      O71485   3.272   6.134   0.823
23748WAT     H171486   3.201   6.200   0.848
23748WAT     H271487   3.357   6.158   0.870
23749WAT      O71488   8.799   4.523   8.720
23749WAT     H171489   8.865   4.449   8.731
23749WAT     H271490   8.735   4.523   8.796
23750WAT      O71491   9.691   6.988   5.783
23750WAT     H171492   9.660   7.082   5.793
23750WAT     H271493   9.697   6.945   5.873
23751WAT      O71494   7.219   5.474   1.620
23751WAT     H171495   7.150   5.521   1.565
23751WAT     H271496   7.211   5.375   1.606
23752WAT      O71497   2.750   5.280   7.681
23752WAT     H171498   2.772   5.357   7.741
23752WAT     H271499   2.660   5.244   7.703
23753WAT      O71500   7.940   8.762   4.470
23753WAT     H171501   7.901   8.672   4.450
23753WAT     H271502   7.879   8.813   4.530
23754WAT      O71503   2.308   3.869   3.613
23754WAT     H171504   2.325   3.852   3.710
23754WAT     H271505   2.364   3.946   3.582
23755WAT      O71506   8.534   3.858   6.463
23755WAT     H171507   8.487   3.937   6.502
23755WAT     H271508   8.467   3.787   6.439
23756WAT      O71509   8.701   9.583   1.277
23756WAT     H171510   8.665   9.659   1.331
23756WAT     H271511   8.678   9.598   1.180
23757WAT      O71512   8.984   9.670   1.196
23757WAT     H171513   9.011   9.717   1.112
23757WAT     H271514   8.890   9.637   1.186
23758WAT      O71515   3.837   2.951   9.864
23758WAT     H171516   3.761   2.938   9.928
23758WAT     H271517   3.915   2.897   9.894
23759WAT      O71518   1.860   7.482   7.787
23759WAT     H171519   1.821   7.493   7.695
23759WAT     H271520   1.957   7.507   7.785
23760WAT      O71521   9.528   6.058   8.946
23760WAT     H171522   9.565   6.128   8.885
23760WAT     H271523   9.512   5.974   8.894
23761WAT      O71524   7.955   7.362   1.153
23761WAT     H171525   7.912   7.394   1.069
23761WAT     H271526   8.025   7.428   1.182
23762WAT      O71527   6.917   0.060   1.084
23762WAT     H171528   6.891   0.104   0.998
23762WAT     H271529   6.854  -0.015   1.103
23763WAT      O71530   1.734   9.696   3.911
23763WAT     H171531   1.808   9.680   3.977
23763WAT     H271532   1.723   9.615   3.853
23764WAT      O71533   5.453   8.373   5.287
23764WAT     H171534   5.457   8.434   5.366
23764WAT     H271535   5.396   8.294   5.309
23765WAT      O71536   3.230   6.333   4.815
23765WAT     H171537   3.188   6.346   4.724
23765WAT     H271538   3.161   6.296   4.877
23766WAT      O71539   3.447   1.930   5.935
23766WAT     H171540   3.477   2.018   5.972
23766WAT     H271541   3.430   1.866   6.010
23767WAT      O71542   7.012   8.678   3.519
23767WAT     H171543   6.920   8.657   3.550
23767WAT     H271544   7.014   8.772   3.484
23768WAT      O71545   2.478   8.066   9.214
23768WAT     H171546   2.482   7.979   9.262
23768WAT     H271547   2.559   8.121   9.237
23769WAT      O71548   4.480   8.821   4.203
23769WAT     H171549   4.398   8.764   4.192
23769WAT     H271550   4.550   8.792   4.138
23770WAT      O71551   8.278   1.083   2.850
23770WAT     H171552   8.180   1.075   2.831
23770WAT     H271553   8.305   1.180   2.846
23771WAT      O71554   7.154   4.608   6.239
23771WAT     H171555   7.091   4.561   6.177
23771WAT     H271556   7.245   4.613   6.198
23772WAT      O71557   3.021   0.358   5.275
23772WAT     H171558   3.011   0.354   5.374
23772WAT     H271559   3.071   0.277   5.243
23773WAT      O71560   1.059   7.394   5.310
23773WAT     H171561   1.112   7.329   5.255
23773WAT     H271562   1.110   7.417   5.393
23774WAT      O71563   7.894   7.305   8.639
23774WAT     H171564   7.946   7.237   8.588
23774WAT     H271565   7.813   7.263   8.679
23775WAT      O71566   6.320   6.554   3.447
23775WAT     H171567   6.405   6.542   3.497
23775WAT     H271568   6.303   6.474   3.389
23776WAT      O71569   9.288   2.711   8.285
23776WAT     H171570   9.218   2.718   8.214
23776WAT     H271571   9.335   2.799   8.295
23777WAT      O71572   3.980   2.404   8.917
23777WAT     H171573   3.939   2.483   8.963
23777WAT     H271574   4.040   2.435   8.843
23778WAT      O71575   4.303   8.432   8.606
23778WAT     H171576   4.236   8.505   8.620
23778WAT     H271577   4.257   8.352   8.568
23779WAT      O71578   9.648   0.350   6.637
23779WAT     H171579   9.550   0.361   6.623
23779WAT     H271580   9.670   0.253   6.648
23780WAT      O71581   2.222   6.820   0.663
23780WAT     H171582   2.149   6.753   0.647
23780WAT     H271583   2.181   6.909   0.687
23781WAT      O71584   4.919   6.154   7.683
23781WAT     H171585   4.985   6.215   7.727
23781WAT     H271586   4.884   6.198   7.600
23782WAT      O71587   3.380   1.762   3.237
23782WAT     H171588   3.294   1.715   3.258
23782WAT     H271589   3.449   1.738   3.306
23783WAT      O71590   4.184   6.796   2.975
23783WAT     H171591   4.125   6.820   2.898
23783WAT     H271592   4.271   6.761   2.941
23784WAT      O71593   9.748   9.225   5.849
23784WAT     H171594   9.669   9.265   5.802
23784WAT     H271595   9.829   9.234   5.791
23785WAT      O71596   4.704   5.313   3.394
23785WAT     H171597   4.723   5.341   3.299
23785WAT     H271598   4.609   5.282   3.401
23786WAT      O71599   8.056   0.527   5.145
23786WAT     H171600   8.041   0.535   5.243
23786WAT     H271601   8.091   0.613   5.109
23787WAT      O71602   9.303   8.322   4.042
23787WAT     H171603   9.211   8.308   4.007
23787WAT     H271604   9.329   8.245   4.100
23788WAT      O71605   0.421   2.554   4.587
23788WAT     H171606   0.413   2.621   4.513
23788WAT     H271607   0.457   2.468   4.550
23789WAT      O71608   5.429   1.220   0.294
23789WAT     H171609   5.467   1.305   0.259
23789WAT     H271610   5.333   1.233   0.319
23790WAT      O71611   1.892   1.383   8.671
23790WAT     H171612   1.870   1.480   8.666
23790WAT     H271613   1.884   1.351   8.765
23791WAT      O71614   3.872   8.709   8.754
23791WAT     H171615   3.876   8.703   8.854
23791WAT     H271616   3.920   8.791   8.723
23792WAT      O71617   3.941   3.032   5.872
23792WAT     H171618   3.921   3.116   5.922
23792WAT     H271619   4.039   3.023   5.860
23793WAT      O71620   3.511   7.846   0.880
23793WAT     H171621   3.439   7.785   0.848
23793WAT     H271622   3.471   7.925   0.927
23794WAT      O71623   8.173   2.167   8.788
23794WAT     H171624   8.273   2.176   8.787
23794WAT     H271625   8.141   2.166   8.883
23795WAT      O71626   4.748   6.449   2.390
23795WAT     H171627   4.776   6.388   2.315
23795WAT     H271628   4.728   6.539   2.353
23796WAT      O71629   5.674   6.212   1.349
23796WAT     H171630   5.601   6.274   1.376
23796WAT     H271631   5.651   6.119   1.378
23797WAT      O71632   4.633   5.501   2.696
23797WAT     H171633   4.681   5.418   2.667
23797WAT     H271634   4.670   5.580   2.647
23798WAT      O71635   8.114   6.803   8.856
23798WAT     H171636   8.192   6.797   8.919
23798WAT     H271637   8.115   6.892   8.811
23799WAT      O71638   4.411   2.093   3.567
23799WAT     H171639   4.479   2.054   3.506
23799WAT     H271640   4.439   2.185   3.595
23800WAT      O71641   6.200   3.762   7.697
23800WAT     H171642   6.151   3.820   7.632
23800WAT     H271643   6.230   3.817   7.775
23801WAT      O71644   1.814   0.256   4.446
23801WAT     H171645   1.823   0.262   4.347
23801WAT     H271646   1.774   0.340   4.481
23802WAT      O71647   9.689   3.701   4.238
23802WAT     H171648   9.776   3.678   4.282
23802WAT     H271649   9.687   3.798   4.216
23803WAT      O71650   8.278   2.876   4.359
23803WAT     H171651   8.295   2.972   4.384
23803WAT     H271652   8.324   2.856   4.272
23804WAT      O71653   1.495   2.047   1.763
23804WAT     H171654   1.555   2.052   1.683
23804WAT     H271655   1.435   1.968   1.755
23805WAT      O71656   7.016   0.194   0.018
23805WAT     H171657   7.030   0.212   0.115
23805WAT     H271658   6.969   0.107   0.006
23806WAT      O71659   0.864   0.161   1.696
23806WAT     H171660   0.917   0.077   1.694
23806WAT     H271661   0.909   0.228   1.754
23807WAT      O71662   8.342   9.252   3.496
23807WAT     H171663   8.262   9.283   3.443
23807WAT     H271664   8.409   9.212   3.435
23808WAT      O71665   0.142   5.552   9.059
23808WAT     H171666   0.201   5.471   9.061
23808WAT     H271667   0.159   5.605   8.976
23809WAT      O71668   1.847   8.107   7.491
23809WAT     H171669   1.936   8.063   7.481
23809WAT     H271670   1.827   8.161   7.409
23810WAT      O71671   3.823   2.808   8.401
23810WAT     H171672   3.889   2.749   8.353
23810WAT     H271673   3.807   2.772   8.492
23811WAT      O71674   3.968   2.847   6.946
23811WAT     H171675   3.888   2.892   6.986
23811WAT     H271676   3.981   2.757   6.989
23812WAT      O71677   8.165   1.083   0.394
23812WAT     H171678   8.109   1.121   0.320
23812WAT     H271679   8.111   1.082   0.478
23813WAT      O71680   4.698   3.071   9.285
23813WAT     H171681   4.705   3.025   9.374
23813WAT     H271682   4.774   3.136   9.275
23814WAT      O71683   0.764   5.526   6.005
23814WAT     H171684   0.859   5.517   5.975
23814WAT     H271685   0.712   5.573   5.933
23815WAT      O71686   8.206   8.800   4.766
23815WAT     H171687   8.208   8.842   4.675
23815WAT     H271688   8.285   8.831   4.818
23816WAT      O71689   9.593   0.932   9.535
23816WAT     H171690   9.519   0.987   9.496
23816WAT     H271691   9.558   0.841   9.558
23817WAT      O71692   7.669   0.940   2.517
23817WAT     H171693   7.639   0.998   2.593
23817WAT     H271694   7.656   0.844   2.540
23818WAT      O71695   6.828   1.946   8.792
23818WAT     H171696   6.787   1.865   8.751
23818WAT     H271697   6.773   2.027   8.768
23819WAT      O71698   3.593   9.692   0.088
23819WAT     H171699   3.528   9.734   0.024
23819WAT     H271700   3.543   9.658   0.168
23820WAT      O71701   4.959   6.161   3.246
23820WAT     H171702   5.021   6.220   3.193
23820WAT     H271703   5.011   6.112   3.316
23821WAT      O71704   2.041   3.338   8.456
23821WAT     H171705   2.008   3.339   8.551
23821WAT     H271706   2.010   3.421   8.410
23822WAT      O71707   0.667   6.313   5.743
23822WAT     H171708   0.734   6.254   5.697
23822WAT     H271709   0.619   6.260   5.813
23823WAT      O71710   5.041   7.925   7.263
23823WAT     H171711   4.984   7.965   7.192
23823WAT     H271712   4.993   7.850   7.307
23824WAT      O71713   0.921   5.344   0.416
23824WAT     H171714   0.881   5.254   0.402
23824WAT     H271715   0.963   5.376   0.330
23825WAT      O71716   4.054   0.172   9.008
23825WAT     H171717   4.135   0.217   8.970
23825WAT     H271718   4.020   0.105   8.942
23826WAT      O71719   9.516   8.504   7.445
23826WAT     H171720   9.557   8.413   7.452
23826WAT     H271721   9.551   8.550   7.363
23827WAT      O71722   7.303   0.490   5.706
23827WAT     H171723   7.217   0.534   5.731
23827WAT     H271724   7.289   0.391   5.697
23828WAT      O71725   5.357   7.420   4.519
23828WAT     H171726   5.380   7.498   4.577
23828WAT     H271727   5.413   7.421   4.436
23829WAT      O71728   1.113   0.389   3.747
23829WAT     H171729   1.021   0.408   3.780
23829WAT     H271730   1.109   0.317   3.677
23830WAT      O71731   4.890   3.061   5.840
23830WAT     H171732   4.845   3.092   5.924
23830WAT     H271733   4.916   3.140   5.785
23831WAT      O71734   1.798   8.499   9.806
23831WAT     H171735   1.714   8.532   9.850
23831WAT     H271736   1.777   8.418   9.752
23832WAT      O71737   4.490   5.492   8.316
23832WAT     H171738   4.462   5.471   8.222
23832WAT     H271739   4.410   5.489   8.376
23833WAT      O71740   4.400   0.864   1.227
23833WAT     H171741   4.357   0.890   1.141
23833WAT     H271742   4.499   0.854   1.214
23834WAT      O71743   7.188   6.961   3.249
23834WAT     H171744   7.104   6.909   3.231
23834WAT     H271745   7.186   6.997   3.342
23835WAT      O71746   2.139   6.870   8.749
23835WAT     H171747   2.181   6.793   8.797
23835WAT     H271748   2.150   6.953   8.804
23836WAT      O71749   7.882   2.714   8.052
23836WAT     H171750   7.923   2.743   7.965
23836WAT     H271751   7.942   2.647   8.096
23837WAT      O71752   7.946   1.460   5.531
23837WAT     H171753   7.862   1.485   5.578
23837WAT     H271754   8.005   1.408   5.593
23838WAT      O71755   5.382   4.579   3.606
23838WAT     H171756   5.290   4.564   3.644
23838WAT     H271757   5.385   4.544   3.512
23839WAT      O71758   7.721   2.996   7.872
23839WAT     H171759   7.771   3.012   7.787
23839WAT     H271760   7.695   2.900   7.878
23840WAT      O71761   7.378   8.017   1.154
23840WAT     H171762   7.292   8.061   1.180
23840WAT     H271763   7.421   8.070   1.080
23841WAT      O71764   4.847   2.376   3.665
23841WAT     H171765   4.849   2.469   3.703
23841WAT     H271766   4.813   2.313   3.734
23842WAT      O71767   8.528   9.287   4.658
23842WAT     H171768   8.504   9.190   4.656
23842WAT     H271769   8.466   9.338   4.598
23843WAT      O71770   2.841   6.200   7.896
23843WAT     H171771   2.869   6.173   7.804
23843WAT     H271772   2.785   6.128   7.936
23844WAT      O71773   2.121   7.402   7.648
23844WAT     H171774   2.134   7.391   7.550
23844WAT     H271775   2.136   7.314   7.694
23845WAT      O71776   3.909   5.673   6.072
23845WAT     H171777   3.892   5.661   5.974
23845WAT     H271778   3.993   5.725   6.086
23846WAT      O71779   7.351   7.812   1.635
23846WAT     H171780   7.419   7.869   1.681
23846WAT     H271781   7.397   7.745   1.577
23847WAT      O71782   8.780   7.092   6.056
23847WAT     H171783   8.724   7.020   6.016
23847WAT     H271784   8.749   7.181   6.023
23848WAT      O71785   2.118   2.270   6.337
23848WAT     H171786   2.072   2.297   6.421
23848WAT     H271787   2.069   2.307   6.258
23849WAT      O71788   2.084   3.892   7.624
23849WAT     H171789   2.151   3.855   7.559
23849WAT     H271790   2.118   3.881   7.717
23850WAT      O71791   8.809   5.933   1.295
23850WAT     H171792   8.718   5.898   1.315
23850WAT     H271793   8.837   5.996   1.368
23851WAT      O71794   5.109   9.401   5.486
23851WAT     H171795   5.104   9.456   5.570
23851WAT     H271796   5.025   9.349   5.476
23852WAT      O71797   8.809   1.595   6.814
23852WAT     H171798   8.818   1.633   6.722
23852WAT     H271799   8.889   1.538   6.834
23853WAT      O71800   4.438   4.893   3.785
23853WAT     H171801   4.375   4.901   3.708
23853WAT     H271802   4.531   4.915   3.756
23854WAT      O71803   3.055   5.509   1.394
23854WAT     H171804   3.034   5.575   1.467
23854WAT     H271805   3.112   5.436   1.432
23855WAT      O71806   7.438   6.310   0.484
23855WAT     H171807   7.510   6.260   0.436
23855WAT     H271808   7.451   6.408   0.470
23856WAT      O71809   6.935   0.342   8.854
23856WAT     H171810   6.924   0.436   8.821
23856WAT     H271811   6.969   0.344   8.948
23857WAT      O71812   2.594   7.096   7.937
23857WAT     H171813   2.613   7.045   8.021
23857WAT     H271814   2.679   7.135   7.902
23858WAT      O71815   6.561   8.096   2.829
23858WAT     H171816   6.639   8.057   2.878
23858WAT     H271817   6.554   8.053   2.739
23859WAT      O71818   4.113   0.403   9.198
23859WAT     H171819   4.193   0.373   9.147
23859WAT     H271820   4.038   0.339   9.185
23860WAT      O71821   2.315   7.970   6.153
23860WAT     H171822   2.267   7.886   6.178
23860WAT     H271823   2.300   8.039   6.224
23861WAT      O71824   6.352   6.824   5.564
23861WAT     H171825   6.338   6.730   5.596
23861WAT     H271826   6.264   6.871   5.557
23862WAT      O71827   0.498   1.997   7.037
23862WAT     H171828   0.567   1.937   6.998
23862WAT     H271829   0.517   2.092   7.011
23863WAT      O71830   8.432   4.544   3.906
23863WAT     H171831   8.523   4.558   3.946
23863WAT     H271832   8.398   4.631   3.871
23864WAT      O71833   2.665   8.737   0.938
23864WAT     H171834   2.612   8.711   0.857
23864WAT     H271835   2.652   8.835   0.956
23865WAT      O71836   0.028   8.837   1.179
23865WAT     H171837   0.005   8.851   1.275
23865WAT     H271838  -0.037   8.887   1.122
23866WAT      O71839   1.078   2.902   7.074
23866WAT     H171840   1.084   2.835   7.001
23866WAT     H271841   0.994   2.955   7.064
23867WAT      O71842   2.804   3.895   8.135
23867WAT     H171843   2.838   3.926   8.046
23867WAT     H271844   2.745   3.815   8.121
23868WAT      O71845   3.098   6.312   0.940
23868WAT     H171846   3.161   6.346   1.010
23868WAT     H271847   3.032   6.384   0.918
23869WAT      O71848   3.829   0.644   8.597
23869WAT     H171849   3.851   0.725   8.542
23869WAT     H271850   3.737   0.613   8.573
23870WAT      O71851   4.615   4.845   5.996
23870WAT     H171852   4.602   4.899   5.914
23870WAT     H271853   4.631   4.749   5.971
23871WAT      O71854   3.701   3.114   5.675
23871WAT     H171855   3.764   3.066   5.736
23871WAT     H271856   3.746   3.197   5.640
23872WAT      O71857   9.553   0.770   6.230
23872WAT     H171858   9.606   0.688   6.208
23872WAT     H271859   9.612   0.836   6.278
23873WAT      O71860   7.227   5.787   9.481
23873WAT     H171861   7.237   5.877   9.439
23873WAT     H271862   7.313   5.760   9.523
23874WAT      O71863   7.711   4.546   7.484
23874WAT     H171864   7.793   4.492   7.502
23874WAT     H271865   7.651   4.544   7.564
23875WAT      O71866   0.289   3.918   7.544
23875WAT     H171867   0.195   3.927   7.511
23875WAT     H271868   0.329   4.009   7.554
23876WAT      O71869   7.784   6.563   2.171
23876WAT     H171870   7.735   6.512   2.241
23876WAT     H271871   7.719   6.607   2.109
23877WAT      O71872   0.987   4.747   1.260
23877WAT     H171873   1.045   4.699   1.327
23877WAT     H271874   0.891   4.725   1.278
23878WAT      O71875   7.898   6.766   6.561
23878WAT     H171876   7.869   6.721   6.646
23878WAT     H271877   7.992   6.741   6.540
23879WAT      O71878   8.819   7.396   8.946
23879WAT     H171879   8.764   7.321   8.908
23879WAT     H271880   8.785   7.421   9.036
23880WAT      O71881   7.808   9.157   9.024
23880WAT     H171882   7.775   9.247   8.996
23880WAT     H271883   7.756   9.126   9.104
23881WAT      O71884   5.723   3.769   4.538
23881WAT     H171885   5.731   3.676   4.573
23881WAT     H271886   5.699   3.831   4.613
23882WAT      O71887   6.449   8.323   2.985
23882WAT     H171888   6.527   8.351   3.040
23882WAT     H271889   6.475   8.244   2.929
23883WAT      O71890   5.278   0.757   2.908
23883WAT     H171891   5.191   0.797   2.880
23883WAT     H271892   5.291   0.770   3.007
23884WAT      O71893   5.882   0.369   8.006
23884WAT     H171894   5.972   0.401   7.978
23884WAT     H271895   5.867   0.391   8.103
23885WAT      O71896   1.401   0.373   4.360
23885WAT     H171897   1.442   0.307   4.297
23885WAT     H271898   1.416   0.343   4.454
23886WAT      O71899   9.446   9.456   1.535
23886WAT     H171900   9.428   9.470   1.633
23886WAT     H271901   9.359   9.455   1.485
23887WAT      O71902   4.467   3.706   2.290
23887WAT     H171903   4.395   3.658   2.340
23887WAT     H271904   4.550   3.710   2.346
23888WAT      O71905   2.912   2.567   3.147
23888WAT     H171906   2.971   2.487   3.158
23888WAT     H271907   2.961   2.649   3.175
23889WAT      O71908   3.230   0.347   0.171
23889WAT     H171909   3.225   0.446   0.157
23889WAT     H271910   3.137   0.309   0.175
23890WAT      O71911   4.065   1.225   2.523
23890WAT     H171912   4.027   1.316   2.543
23890WAT     H271913   4.090   1.220   2.427
23891WAT      O71914   8.212   0.009   5.364
23891WAT     H171915   8.209  -0.025   5.270
23891WAT     H271916   8.304   0.043   5.384
23892WAT      O71917   5.118   8.833   5.090
23892WAT     H171918   5.096   8.805   5.183
23892WAT     H271919   5.210   8.802   5.066
23893WAT      O71920   7.815   6.126   9.025
23893WAT     H171921   7.770   6.151   8.940
23893WAT     H271922   7.890   6.063   9.007
23894WAT      O71923   3.066   7.524   3.970
23894WAT     H171924   2.992   7.575   4.014
23894WAT     H271925   3.034   7.484   3.885
23895WAT      O71926   5.918   8.402   4.582
23895WAT     H171927   6.008   8.433   4.612
23895WAT     H271928   5.902   8.432   4.488
23896WAT      O71929   4.049   4.997   5.900
23896WAT     H171930   4.054   4.909   5.853
23896WAT     H271931   4.044   5.071   5.832
23897WAT      O71932   9.326   5.815   8.471
23897WAT     H171933   9.425   5.808   8.458
23897WAT     H271934   9.304   5.807   8.568
23898WAT      O71935   1.911   1.283   4.104
23898WAT     H171936   2.003   1.307   4.136
23898WAT     H271937   1.858   1.246   4.181
23899WAT      O71938   2.072   7.197   9.707
23899WAT     H171939   2.064   7.179   9.609
23899WAT     H271940   2.014   7.275   9.732
23900WAT      O71941   6.292   5.916   4.429
23900WAT     H171942   6.372   5.936   4.372
23900WAT     H271943   6.283   5.816   4.439
23901WAT      O71944   7.988   5.421   3.410
23901WAT     H171945   8.073   5.394   3.364
23901WAT     H271946   7.933   5.476   3.348
23902WAT      O71947   2.733   3.656   4.483
23902WAT     H171948   2.699   3.636   4.391
23902WAT     H271949   2.656   3.659   4.547
23903WAT      O71950   6.215   1.718   6.261
23903WAT     H171951   6.257   1.705   6.351
23903WAT     H271952   6.228   1.636   6.205
23904WAT      O71953   1.960   3.106   5.525
23904WAT     H171954   1.898   3.028   5.528
23904WAT     H271955   2.014   3.103   5.440
23905WAT      O71956   7.271   4.018   3.569
23905WAT     H171957   7.210   4.098   3.572
23905WAT     H271958   7.362   4.047   3.539
23906WAT      O71959   7.302   3.244   5.813
23906WAT     H171960   7.375   3.296   5.768
23906WAT     H271961   7.267   3.296   5.890
23907WAT      O71962   1.305   3.677   5.569
23907WAT     H171963   1.217   3.633   5.583
23907WAT     H271964   1.297   3.742   5.493
23908WAT      O71965   4.729   8.347   4.282
23908WAT     H171966   4.792   8.276   4.250
23908WAT     H271967   4.753   8.374   4.375
23909WAT      O71968   7.862   9.751   2.422
23909WAT     H171969   7.882   9.778   2.327
23909WAT     H271970   7.934   9.690   2.454
23910WAT      O71971   8.136   9.616   9.700
23910WAT     H171972   8.234   9.613   9.684
23910WAT     H271973   8.113   9.697   9.754
23911WAT      O71974   9.101   2.169   3.594
23911WAT     H171975   9.160   2.095   3.562
23911WAT     H271976   9.043   2.201   3.519
23912WAT      O71977   4.927   8.100   4.966
23912WAT     H171978   4.897   8.195   4.975
23912WAT     H271979   4.967   8.069   5.052
23913WAT      O71980   1.783   7.077   3.202
23913WAT     H171981   1.758   7.079   3.105
23913WAT     H271982   1.739   7.153   3.250
23914WAT      O71983   1.892   5.612   4.924
23914WAT     H171984   1.928   5.529   4.966
23914WAT     H271985   1.967   5.667   4.888
23915WAT      O71986   9.307   8.115   9.559
23915WAT     H171987   9.288   8.155   9.648
23915WAT     H271988   9.402   8.133   9.534
23916WAT      O71989   7.782   5.919   2.170
23916WAT     H171990   7.784   6.006   2.219
23916WAT     H271991   7.687   5.892   2.154
23917WAT      O71992   3.791   3.732   1.958
23917WAT     H171993   3.771   3.823   1.920
23917WAT     H271994   3.884   3.732   1.995
23918WAT      O71995   2.379   4.345   2.358
23918WAT     H171996   2.400   4.248   2.356
23918WAT     H271997   2.403   4.387   2.271
23919WAT      O71998   4.712   6.822   3.060
23919WAT     H171999   4.760   6.748   3.013
23919WAT     H272000   4.654   6.783   3.133
23920WAT      O72001   9.618   8.959   8.140
23920WAT     H172002   9.643   8.914   8.054
23920WAT     H272003   9.553   8.902   8.190
23921WAT      O72004   0.142   8.040   4.386
23921WAT     H172005   0.101   7.951   4.405
23921WAT     H272006   0.236   8.027   4.356
23922WAT      O72007   2.065   2.410   3.073
23922WAT     H172008   2.123   2.362   3.008
23922WAT     H272009   2.007   2.344   3.121
23923WAT      O72010   4.720   2.953   5.144
23923WAT     H172011   4.743   2.945   5.047
23923WAT     H272012   4.655   3.028   5.157
23924WAT      O72013   1.481   9.301   8.747
23924WAT     H172014   1.558   9.348   8.703
23924WAT     H272015   1.399   9.358   8.742
23925WAT      O72016   3.431   0.062   6.544
23925WAT     H172017   3.498   0.021   6.482
23925WAT     H272018   3.396  -0.008   6.606
23926WAT      O72019   5.102   3.732   2.248
23926WAT     H172020   5.123   3.823   2.214
23926WAT     H272021   5.119   3.665   2.175
23927WAT      O72022   4.575   8.437   2.566
23927WAT     H172023   4.656   8.459   2.620
23927WAT     H272024   4.515   8.516   2.563
23928WAT      O72025   9.613   2.717   9.024
23928WAT     H172026   9.569   2.628   9.041
23928WAT     H272027   9.703   2.702   8.983
23929WAT      O72028   3.154   4.776   0.786
23929WAT     H172029   3.192   4.732   0.705
23929WAT     H272030   3.134   4.707   0.855
23930WAT      O72031   1.128   8.380   9.552
23930WAT     H172032   1.196   8.348   9.618
23930WAT     H272033   1.101   8.304   9.493
23931WAT      O72034   7.169   1.772   7.314
23931WAT     H172035   7.090   1.813   7.269
23931WAT     H272036   7.153   1.766   7.412
23932WAT      O72037   5.390   1.139   3.357
23932WAT     H172038   5.367   1.233   3.332
23932WAT     H272039   5.348   1.117   3.445
23933WAT      O72040   8.069   0.019   0.078
23933WAT     H172041   7.975   0.048   0.061
23933WAT     H272042   8.078  -0.010   0.174
23934WAT      O72043   5.947   7.726   7.025
23934WAT     H172044   5.990   7.803   6.978
23934WAT     H272045   5.933   7.750   7.121
23935WAT      O72046   3.378   7.119   6.804
23935WAT     H172047   3.298   7.077   6.849
23935WAT     H272048   3.395   7.073   6.717
23936WAT      O72049   4.997   8.951   1.184
23936WAT     H172050   4.934   8.916   1.252
23936WAT     H272051   4.946   9.000   1.113
23937WAT      O72052   4.552   4.287   4.483
23937WAT     H172053   4.616   4.270   4.408
23937WAT     H272054   4.601   4.318   4.564
23938WAT      O72055   7.179   2.605   6.792
23938WAT     H172056   7.084   2.616   6.764
23938WAT     H272057   7.232   2.565   6.718
23939WAT      O72058   4.355   6.108   6.810
23939WAT     H172059   4.329   6.189   6.862
23939WAT     H272060   4.278   6.045   6.805
23940WAT      O72061   5.521   4.774   8.782
23940WAT     H172062   5.564   4.864   8.786
23940WAT     H272063   5.432   4.781   8.736
23941WAT      O72064   1.035   9.741   3.370
23941WAT     H172065   1.133   9.755   3.382
23941WAT     H272066   1.012   9.753   3.273
23942WAT      O72067   2.121   0.616   6.610
23942WAT     H172068   2.078   0.706   6.620
23942WAT     H272069   2.212   0.618   6.651
23943WAT      O72070   0.610   7.063   6.333
23943WAT     H172071   0.574   6.977   6.296
23943WAT     H272072   0.702   7.047   6.369
23944WAT      O72073   5.929   4.111   7.453
23944WAT     H172074   5.838   4.109   7.411
23944WAT     H272075   5.973   4.199   7.432
23945WAT      O72076   3.621   0.957   5.062
23945WAT     H172077   3.643   0.908   5.146
23945WAT     H272078   3.548   1.022   5.079
23946WAT      O72079   8.220   2.811   2.062
23946WAT     H172080   8.139   2.766   2.099
23946WAT     H272081   8.195   2.865   1.981
23947WAT      O72082   2.480   3.602   9.816
23947WAT     H172083   2.568   3.649   9.813
23947WAT     H272084   2.477   3.532   9.745
23948WAT      O72085   1.384   2.836   6.818
23948WAT     H172086   1.444   2.812   6.742
23948WAT     H272087   1.388   2.934   6.835
23949WAT      O72088   5.720   7.915   0.393
23949WAT     H172089   5.708   8.000   0.343
23949WAT     H272090   5.817   7.890   0.394
23950WAT      O72091   1.501   9.739   9.692
23950WAT     H172092   1.508   9.838   9.681
23950WAT     H272093   1.440   9.703   9.622
23951WAT      O72094   6.747   1.573   6.492
23951WAT     H172095   6.727   1.476   6.475
23951WAT     H272096   6.815   1.604   6.426
23952WAT      O72097   5.421   5.902   4.222
23952WAT     H172098   5.331   5.945   4.226
23952WAT     H272099   5.482   5.957   4.165
23953WAT      O72100   4.974   6.834   9.886
23953WAT     H172101   4.970   6.742   9.847
23953WAT     H272102   4.954   6.901   9.814
23954WAT      O72103   3.193   5.671   4.331
23954WAT     H172104   3.179   5.574   4.313
23954WAT     H272105   3.104   5.715   4.346
23955WAT      O72106   5.430   7.323   5.371
23955WAT     H172107   5.419   7.227   5.394
23955WAT     H272108   5.524   7.340   5.342
23956WAT      O72109   6.956   6.418   1.093
23956WAT     H172110   7.012   6.355   1.147
23956WAT     H272111   6.868   6.375   1.073
23957WAT      O72112   9.756   8.212   8.091
23957WAT     H172113   9.787   8.224   7.997
23957WAT     H272114   9.716   8.120   8.102
23958WAT      O72115   8.271   0.049   2.108
23958WAT     H172116   8.307   0.127   2.056
23958WAT     H272117   8.347  -0.004   2.145
23959WAT      O72118   1.089   8.175   2.854
23959WAT     H172119   1.014   8.125   2.895
23959WAT     H272120   1.164   8.184   2.920
23960WAT      O72121   6.321   3.874   8.486
23960WAT     H172122   6.356   3.850   8.576
23960WAT     H272123   6.356   3.964   8.460
23961WAT      O72124   8.262   5.085   6.620
23961WAT     H172125   8.205   5.167   6.607
23961WAT     H272126   8.255   5.027   6.540
23962WAT      O72127   2.419   9.685   0.497
23962WAT     H172128   2.456   9.607   0.548
23962WAT     H272129   2.320   9.688   0.508
23963WAT      O72130   2.172   7.156   6.201
23963WAT     H172131   2.104   7.151   6.128
23963WAT     H272132   2.144   7.226   6.267
23964WAT      O72133   5.598   1.514   2.544
23964WAT     H172134   5.624   1.427   2.587
23964WAT     H272135   5.643   1.521   2.455
23965WAT      O72136   0.424   5.039   0.084
23965WAT     H172137   0.378   4.969   0.138
23965WAT     H272138   0.467   5.105   0.146
23966WAT      O72139   6.515   4.924   0.371
23966WAT     H172140   6.517   4.933   0.471
23966WAT     H272141   6.569   4.844   0.343
23967WAT      O72142   5.300   2.487   2.570
23967WAT     H172143   5.231   2.438   2.517
23967WAT     H272144   5.257   2.534   2.647
23968WAT      O72145   3.938   2.169   1.557
23968WAT     H172146   4.037   2.164   1.566
23968WAT     H272147   3.914   2.192   1.462
23969WAT      O72148   9.031   2.025   6.833
23969WAT     H172149   9.113   1.969   6.845
23969WAT     H272150   8.974   2.019   6.915
23970WAT      O72151   2.620   4.418   4.575
23970WAT     H172152   2.539   4.413   4.633
23970WAT     H272153   2.656   4.326   4.560
23971WAT      O72154   5.251   4.670   8.396
23971WAT     H172155   5.180   4.613   8.439
23971WAT     H272156   5.259   4.756   8.446
23972WAT      O72157   9.693   7.064   7.526
23972WAT     H172158   9.680   7.016   7.613
23972WAT     H272159   9.606   7.069   7.477
23973WAT      O72160   8.025   7.561   9.294
23973WAT     H172161   7.997   7.468   9.273
23973WAT     H272162   7.950   7.624   9.276
23974WAT      O72163   6.340   3.819   8.760
23974WAT     H172164   6.396   3.748   8.803
23974WAT     H272165   6.244   3.804   8.785
23975WAT      O72166   0.115   1.360   6.554
23975WAT     H172167   0.066   1.320   6.632
23975WAT     H272168   0.139   1.289   6.489
23976WAT      O72169   7.845   4.609   8.536
23976WAT     H172170   7.879   4.516   8.549
23976WAT     H272171   7.774   4.609   8.466
23977WAT      O72172   5.070   5.617   1.966
23977WAT     H172173   5.088   5.660   1.878
23977WAT     H272174   4.971   5.609   1.980
23978WAT      O72175   1.876   9.029   0.818
23978WAT     H172176   1.804   8.994   0.878
23978WAT     H272177   1.959   8.974   0.831
23979WAT      O72178   3.163   3.055   3.518
23979WAT     H172179   3.085   3.116   3.529
23979WAT     H272180   3.206   3.071   3.429
23980WAT      O72181   2.768   4.124   0.325
23980WAT     H172182   2.705   4.102   0.399
23980WAT     H272183   2.862   4.102   0.353
23981WAT      O72184   8.647   7.937   6.123
23981WAT     H172185   8.673   7.982   6.208
23981WAT     H272186   8.684   7.988   6.045
23982WAT      O72187   0.425   1.487   3.935
23982WAT     H172188   0.329   1.464   3.951
23982WAT     H272189   0.473   1.408   3.898
23983WAT      O72190   6.068   5.034   7.961
23983WAT     H172191   6.071   4.940   7.928
23983WAT     H272192   5.981   5.050   8.008
23984WAT      O72193   0.876   8.966   5.206
23984WAT     H172194   0.846   9.020   5.128
23984WAT     H272195   0.975   8.954   5.202
23985WAT      O72196   9.376   8.384   8.477
23985WAT     H172197   9.423   8.468   8.504
23985WAT     H272198   9.411   8.352   8.390
23986WAT      O72199   7.341   5.421   7.838
23986WAT     H172200   7.266   5.468   7.793
23986WAT     H272201   7.422   5.479   7.838
23987WAT      O72202   2.359   0.802   8.000
23987WAT     H172203   2.445   0.771   8.041
23987WAT     H272204   2.307   0.854   8.068
23988WAT      O72205   5.729   6.886   5.500
23988WAT     H172206   5.711   6.984   5.511
23988WAT     H272207   5.643   6.838   5.484
23989WAT      O72208   7.412   1.849   0.476
23989WAT     H172209   7.455   1.773   0.524
23989WAT     H272210   7.482   1.903   0.430
23990WAT      O72211   4.084   8.894   0.641
23990WAT     H172212   4.121   8.919   0.552
23990WAT     H272213   4.157   8.894   0.709
23991WAT      O72214   9.450   4.299   2.630
23991WAT     H172215   9.436   4.397   2.643
23991WAT     H272216   9.542   4.273   2.660
23992WAT      O72217   3.413   9.436   7.489
23992WAT     H172218   3.451   9.426   7.398
23992WAT     H272219   3.485   9.427   7.558
23993WAT      O72220   8.253   3.713   3.568
23993WAT     H172221   8.234   3.752   3.659
23993WAT     H272222   8.168   3.677   3.529
23994WAT      O72223   6.706   7.261   3.987
23994WAT     H172224   6.801   7.269   3.956
23994WAT     H272225   6.673   7.351   4.017
23995WAT      O72226   4.425   5.055   3.091
23995WAT     H172227   4.368   5.079   3.013
23995WAT     H272228   4.384   4.979   3.142
23996WAT      O72229   6.297   1.773   5.172
23996WAT     H172230   6.245   1.821   5.102
23996WAT     H272231   6.376   1.728   5.131
23997WAT      O72232   0.911   6.590   6.504
23997WAT     H172233   0.943   6.518   6.443
23997WAT     H272234   0.844   6.552   6.568
23998WAT      O72235   9.154   8.627   6.875
23998WAT     H172236   9.098   8.545   6.862
23998WAT     H272237   9.121   8.678   6.954
23999WAT      O72238   1.115   7.099   7.302
23999WAT     H172239   1.202   7.144   7.283
23999WAT     H272240   1.046   7.167   7.327
24000WAT      O72241   3.944   1.547   3.449
24000WAT     H172242   3.962   1.524   3.544
24000WAT     H272243   3.870   1.489   3.414
24001WAT      O72244   5.997   5.453   3.975
24001WAT     H172245   5.946   5.486   4.054
24001WAT     H272246   6.077   5.511   3.961
24002WAT      O72247   2.660   4.476   8.400
24002WAT     H172248   2.669   4.378   8.381
24002WAT     H272249   2.627   4.523   8.318
24003WAT      O72250   6.785   6.225   8.741
24003WAT     H172251   6.863   6.287   8.736
24003WAT     H272252   6.739   6.222   8.652
24004WAT      O72253   3.431   2.897   4.184
24004WAT     H172254   3.440   2.840   4.102
24004WAT     H272255   3.342   2.881   4.226
24005WAT      O72256   2.095   8.298   3.192
24005WAT     H172257   2.058   8.385   3.223
24005WAT     H272258   2.194   8.306   3.183
24006WAT      O72259   9.257   3.685   0.212
24006WAT     H172260   9.214   3.621   0.275
24006WAT     H272261   9.228   3.778   0.234
24007WAT      O72262   7.393   1.278   7.767
24007WAT     H172263   7.409   1.352   7.702
24007WAT     H272264   7.391   1.315   7.860
24008WAT      O72265   3.212   4.238   2.156
24008WAT     H172266   3.219   4.337   2.155
24008WAT     H272267   3.177   4.206   2.068
24009WAT      O72268   7.618   5.254   9.680
24009WAT     H172269   7.695   5.317   9.684
24009WAT     H272270   7.645   5.171   9.631
24010WAT      O72271   6.322   6.086   0.368
24010WAT     H172272   6.318   5.990   0.340
24010WAT     H272273   6.417   6.110   0.388
24011WAT      O72274   8.365   0.915   8.765
24011WAT     H172275   8.352   0.922   8.666
24011WAT     H272276   8.437   0.978   8.794
24012WAT      O72277   5.260   3.833   6.910
24012WAT     H172278   5.302   3.838   6.820
24012WAT     H272279   5.251   3.737   6.938
24013WAT      O72280   9.410   4.275   9.523
24013WAT     H172281   9.364   4.298   9.609
24013WAT     H272282   9.352   4.304   9.446
24014WAT      O72283   0.787   7.334   2.554
24014WAT     H172284   0.781   7.249   2.606
24014WAT     H272285   0.768   7.316   2.457
24015WAT      O72286   2.425   9.663   3.065
24015WAT     H172287   2.424   9.588   2.999
24015WAT     H272288   2.343   9.659   3.122
24016WAT      O72289   9.675   1.636   8.667
24016WAT     H172290   9.764   1.626   8.712
24016WAT     H272291   9.684   1.614   8.570
24017WAT      O72292   8.842   4.335   5.101
24017WAT     H172293   8.926   4.377   5.136
24017WAT     H272294   8.775   4.331   5.175
24018WAT      O72295   7.412   2.519   0.134
24018WAT     H172296   7.335   2.455   0.134
24018WAT     H272297   7.454   2.520   0.044
24019WAT      O72298   3.635   7.063   9.234
24019WAT     H172299   3.665   7.038   9.326
24019WAT     H272300   3.537   7.079   9.234
24020WAT      O72301   2.440   5.745   6.288
24020WAT     H172302   2.425   5.659   6.337
24020WAT     H272303   2.537   5.768   6.289
24021WAT      O72304   5.920   6.041   4.907
24021WAT     H172305   5.904   6.139   4.921
24021WAT     H272306   6.016   6.026   4.883
24022WAT      O72307   2.931   6.134   6.365
24022WAT     H172308   2.951   6.212   6.305
24022WAT     H272309   2.939   6.162   6.461
24023WAT      O72310   3.338   9.747   0.680
24023WAT     H172311   3.255   9.769   0.629
24023WAT     H272312   3.372   9.829   0.725
24024WAT      O72313   8.115   6.207   2.101
24024WAT     H172314   8.133   6.193   2.198
24024WAT     H272315   8.033   6.264   2.090
24025WAT      O72316   4.639   2.976   0.563
24025WAT     H172317   4.588   2.937   0.487
24025WAT     H272318   4.722   3.021   0.528
24026WAT      O72319   3.717   0.182   0.185
24026WAT     H172320   3.756   0.154   0.097
24026WAT     H272321   3.624   0.148   0.193
24027WAT      O72322   0.133   8.680   8.187
24027WAT     H172323   0.085   8.679   8.276
24027WAT     H272324   0.107   8.763   8.137
24028WAT      O72325   5.028   0.681   4.903
24028WAT     H172326   5.038   0.582   4.890
24028WAT     H272327   4.936   0.702   4.935
24029WAT      O72328   7.670   3.341   9.849
24029WAT     H172329   7.694   3.343   9.752
24029WAT     H272330   7.722   3.268   9.894
24030WAT      O72331   4.875   6.047   4.071
24030WAT     H172332   4.884   6.096   3.985
24030WAT     H272333   4.801   6.087   4.125
24031WAT      O72334   5.889   3.987   7.943
24031WAT     H172335   5.819   4.041   7.989
24031WAT     H272336   5.904   4.024   7.851
24032WAT      O72337   7.800   8.932   0.986
24032WAT     H172338   7.763   8.839   0.981
24032WAT     H272339   7.897   8.929   1.009
24033WAT      O72340   7.174   9.288   7.691
24033WAT     H172341   7.146   9.382   7.674
24033WAT     H272342   7.109   9.225   7.647
24034WAT      O72343   4.758   5.072   8.563
24034WAT     H172344   4.688   5.089   8.633
24034WAT     H272345   4.749   5.139   8.489
24035WAT      O72346   4.333   0.287   9.071
24035WAT     H172347   4.342   0.291   8.971
24035WAT     H272348   4.424   0.282   9.113
24036WAT      O72349   5.315   0.234   1.527
24036WAT     H172350   5.353   0.242   1.619
24036WAT     H272351   5.359   0.158   1.478
24037WAT      O72352   9.402   1.473   1.104
24037WAT     H172353   9.461   1.531   1.047
24037WAT     H272354   9.456   1.430   1.176
24038WAT      O72355   3.914   6.841   1.601
24038WAT     H172356   3.833   6.789   1.627
24038WAT     H272357   3.993   6.779   1.597
24039WAT      O72358   9.789   7.803   7.270
24039WAT     H172359   9.875   7.772   7.229
24039WAT     H272360   9.799   7.807   7.369
24040WAT      O72361   1.436   1.021   8.210
24040WAT     H172362   1.388   1.074   8.279
24040WAT     H272363   1.370   0.977   8.149
24041WAT      O72364   0.576   3.770   6.153
24041WAT     H172365   0.645   3.780   6.224
24041WAT     H272366   0.510   3.845   6.160
24042WAT      O72367   5.918   4.414   0.662
24042WAT     H172368   5.861   4.487   0.697
24042WAT     H272369   5.861   4.339   0.630
24043WAT      O72370   4.528   8.627   7.405
24043WAT     H172371   4.461   8.636   7.478
24043WAT     H272372   4.482   8.624   7.317
24044WAT      O72373   7.514   7.244   3.144
24044WAT     H172374   7.525   7.159   3.196
24044WAT     H272375   7.569   7.316   3.186
24045WAT      O72376   2.357   4.022   0.454
24045WAT     H172377   2.297   4.076   0.395
24045WAT     H272378   2.385   3.939   0.405
24046WAT      O72379   1.392   3.179   8.660
24046WAT     H172380   1.464   3.230   8.706
24046WAT     H272381   1.314   3.167   8.722
24047WAT      O72382   4.313   2.333   8.527
24047WAT     H172383   4.248   2.337   8.604
24047WAT     H272384   4.325   2.425   8.490
24048WAT      O72385   3.840   9.818   7.453
24048WAT     H172386   3.842   9.896   7.517
24048WAT     H272387   3.837   9.852   7.359
24049WAT      O72388   8.747   2.907   4.674
24049WAT     H172389   8.736   2.999   4.710
24049WAT     H272390   8.783   2.847   4.745
24050WAT      O72391   1.804   8.127   2.495
24050WAT     H172392   1.901   8.106   2.484
24050WAT     H272393   1.769   8.079   2.575
24051WAT      O72394   8.348   8.846   8.823
24051WAT     H172395   8.391   8.758   8.802
24051WAT     H272396   8.258   8.850   8.779
24052WAT      O72397   3.314   4.435   7.616
24052WAT     H172398   3.386   4.479   7.562
24052WAT     H272399   3.264   4.371   7.558
24053WAT      O72400   6.550   7.696   1.745
24053WAT     H172401   6.530   7.743   1.659
24053WAT     H272402   6.584   7.762   1.812
24054WAT      O72403   4.724   7.600   9.340
24054WAT     H172404   4.672   7.632   9.261
24054WAT     H272405   4.817   7.578   9.311
24055WAT      O72406   8.100   7.888   2.218
24055WAT     H172407   8.149   7.801   2.224
24055WAT     H272408   8.129   7.948   2.293
24056WAT      O72409   9.825   7.889   4.119
24056WAT     H172410   9.770   7.835   4.055
24056WAT     H272411   9.860   7.970   4.073
24057WAT      O72412   6.212   1.684   8.347
24057WAT     H172413   6.268   1.604   8.371
24057WAT     H272414   6.139   1.695   8.415
24058WAT      O72415   7.913   3.124   4.720
24058WAT     H172416   7.861   3.210   4.723
24058WAT     H272417   7.893   3.076   4.635
24059WAT      O72418   3.831   7.865   3.123
24059WAT     H172419   3.910   7.889   3.066
24059WAT     H272420   3.827   7.766   3.136
24060WAT      O72421   6.924   9.298   3.040
24060WAT     H172422   6.956   9.326   3.131
24060WAT     H272423   6.981   9.224   3.006
24061WAT      O72424   9.403   3.209   1.862
24061WAT     H172425   9.317   3.162   1.880
24061WAT     H272426   9.479   3.144   1.871
24062WAT      O72427   3.970   2.508   7.594
24062WAT     H172428   3.889   2.518   7.652
24062WAT     H272429   4.029   2.587   7.605
24063WAT      O72430   1.338   8.032   7.665
24063WAT     H172431   1.429   8.033   7.621
24063WAT     H272432   1.348   8.048   7.763
24064WAT      O72433   2.255   7.374   6.848
24064WAT     H172434   2.202   7.445   6.802
24064WAT     H272435   2.267   7.400   6.944
24065WAT      O72436   6.177   2.309   7.596
24065WAT     H172437   6.119   2.358   7.532
24065WAT     H272438   6.191   2.215   7.564
24066WAT      O72439   3.468   7.599   0.657
24066WAT     H172440   3.388   7.624   0.711
24066WAT     H272441   3.449   7.614   0.560
24067WAT      O72442   9.801   0.712   7.183
24067WAT     H172443   9.741   0.665   7.248
24067WAT     H272444   9.856   0.644   7.134
24068WAT      O72445   9.032   4.198   9.414
24068WAT     H172446   8.937   4.224   9.398
24068WAT     H272447   9.039   4.145   9.498
24069WAT      O72448   0.566   2.053   8.946
24069WAT     H172449   0.591   1.986   9.016
24069WAT     H272450   0.552   2.006   8.859
24070WAT      O72451   7.347   8.954   9.151
24070WAT     H172452   7.257   8.962   9.108
24070WAT     H272453   7.396   8.877   9.111
24071WAT      O72454   8.952   9.442   0.349
24071WAT     H172455   8.876   9.395   0.305
24071WAT     H272456   9.038   9.403   0.317
24072WAT      O72457   5.416   0.773   5.810
24072WAT     H172458   5.347   0.713   5.850
24072WAT     H272459   5.506   0.750   5.849
24073WAT      O72460   3.005   2.055   5.930
24073WAT     H172461   2.999   2.132   5.994
24073WAT     H272462   2.966   2.082   5.842
24074WAT      O72463   3.010   3.487   2.993
24074WAT     H172464   3.059   3.575   2.991
24074WAT     H272465   2.914   3.502   3.017
24075WAT      O72466   2.866   0.612   1.680
24075WAT     H172467   2.939   0.557   1.720
24075WAT     H272468   2.795   0.629   1.749
24076WAT      O72469   8.610   0.634   6.781
24076WAT     H172470   8.625   0.577   6.700
24076WAT     H272471   8.640   0.727   6.763
24077WAT      O72472   8.789   7.350   7.271
24077WAT     H172473   8.716   7.417   7.284
24077WAT     H272474   8.848   7.379   7.195
24078WAT      O72475   5.003   3.190   9.524
24078WAT     H172476   4.943   3.172   9.603
24078WAT     H272477   4.978   3.277   9.482
24079WAT      O72478   4.979   3.846   6.919
24079WAT     H172479   4.961   3.748   6.920
24079WAT     H272480   5.078   3.862   6.921
24080WAT      O72481   2.553   7.165   3.490
24080WAT     H172482   2.509   7.090   3.439
24080WAT     H272483   2.548   7.249   3.436
24081WAT      O72484   6.014   2.209   3.466
24081WAT     H172485   5.920   2.181   3.486
24081WAT     H272486   6.026   2.305   3.492
24082WAT      O72487   2.840   8.188   8.533
24082WAT     H172488   2.869   8.211   8.440
24082WAT     H272489   2.774   8.113   8.529
24083WAT      O72490   8.045   0.850   0.670
24083WAT     H172491   8.045   0.944   0.635
24083WAT     H272492   7.980   0.843   0.746
24084WAT      O72493   5.597   2.158   3.812
24084WAT     H172494   5.577   2.254   3.826
24084WAT     H272495   5.515   2.111   3.778
24085WAT      O72496   9.271   4.292   6.877
24085WAT     H172497   9.359   4.318   6.836
24085WAT     H272498   9.282   4.207   6.929
24086WAT      O72499   0.457   8.418   1.543
24086WAT     H172500   0.504   8.336   1.509
24086WAT     H272501   0.383   8.391   1.605
24087WAT      O72502   9.417   6.256   7.638
24087WAT     H172503   9.340   6.202   7.670
24087WAT     H272504   9.501   6.224   7.681
24088WAT      O72505   9.047   1.496   5.436
24088WAT     H172506   9.087   1.405   5.427
24088WAT     H272507   9.089   1.558   5.370
24089WAT      O72508   0.308   2.593   6.058
24089WAT     H172509   0.243   2.657   6.100
24089WAT     H272510   0.269   2.501   6.059
24090WAT      O72511   0.362   1.458   7.307
24090WAT     H172512   0.281   1.488   7.255
24090WAT     H272513   0.393   1.533   7.365
24091WAT      O72514   2.019   6.862   1.281
24091WAT     H172515   2.103   6.869   1.227
24091WAT     H272516   2.018   6.776   1.332
24092WAT      O72517   0.614   0.014   3.920
24092WAT     H172518   0.559   0.025   3.837
24092WAT     H272519   0.603  -0.079   3.955
24093WAT      O72520   5.514   3.317   4.099
24093WAT     H172521   5.555   3.382   4.035
24093WAT     H272522   5.571   3.236   4.106
24094WAT      O72523   8.905   6.034   9.198
24094WAT     H172524   8.876   5.994   9.285
24094WAT     H272525   8.825   6.073   9.152
24095WAT      O72526   6.128   1.284   1.437
24095WAT     H172527   6.196   1.324   1.375
24095WAT     H272528   6.056   1.240   1.383
24096WAT      O72529   0.721   1.315   8.629
24096WAT     H172530   0.673   1.243   8.679
24096WAT     H272531   0.657   1.361   8.568
24097WAT      O72532   6.768   8.733   4.457
24097WAT     H172533   6.793   8.828   4.437
24097WAT     H272534   6.683   8.709   4.410
24098WAT      O72535   2.067   3.502   6.706
24098WAT     H172536   2.131   3.578   6.698
24098WAT     H272537   2.034   3.476   6.615
24099WAT      O72538   9.842   7.468   5.477
24099WAT     H172539   9.794   7.494   5.560
24099WAT     H272540   9.890   7.382   5.491
24100WAT      O72541   8.476   6.378   4.862
24100WAT     H172542   8.489   6.339   4.770
24100WAT     H272543   8.423   6.463   4.854
24101WAT      O72544   7.281   2.767   7.212
24101WAT     H172545   7.310   2.803   7.301
24101WAT     H272546   7.357   2.774   7.147
24102WAT      O72547   0.696   9.342   1.522
24102WAT     H172548   0.785   9.303   1.546
24102WAT     H272549   0.658   9.292   1.444
24103WAT      O72550   3.075   1.190   3.240
24103WAT     H172551   3.104   1.095   3.247
24103WAT     H272552   3.056   1.213   3.144
24104WAT      O72553   0.154   7.227   2.043
24104WAT     H172554   0.067   7.226   1.993
24104WAT     H272555   0.141   7.185   2.133
24105WAT      O72556   8.976   6.252   5.659
24105WAT     H172557   8.926   6.270   5.744
24105WAT     H272558   8.952   6.161   5.625
24106WAT      O72559   0.752   3.499   7.296
24106WAT     H172560   0.665   3.496   7.345
24106WAT     H272561   0.773   3.593   7.271
24107WAT      O72562   1.719   6.660   8.044
24107WAT     H172563   1.667   6.708   8.115
24107WAT     H272564   1.762   6.579   8.083
24108WAT      O72565   1.747   6.891   1.742
24108WAT     H172566   1.820   6.960   1.748
24108WAT     H272567   1.740   6.859   1.647
24109WAT      O72568   6.872   5.490   6.169
24109WAT     H172569   6.939   5.416   6.167
24109WAT     H272570   6.799   5.467   6.235
24110WAT      O72571   8.194   3.538   9.412
24110WAT     H172572   8.244   3.503   9.333
24110WAT     H272573   8.251   3.532   9.494
24111WAT      O72574   0.333   0.540   2.749
24111WAT     H172575   0.374   0.517   2.837
24111WAT     H272576   0.237   0.513   2.749
24112WAT      O72577   6.132   0.370   0.952
24112WAT     H172578   6.218   0.336   0.914
24112WAT     H272579   6.114   0.462   0.917
24113WAT      O72580   3.411   3.670   8.607
24113WAT     H172581   3.428   3.593   8.669
24113WAT     H272582   3.469   3.661   8.526
24114WAT      O72583   8.959   6.906   5.369
24114WAT     H172584   8.969   6.876   5.464
24114WAT     H272585   8.995   6.835   5.308
24115WAT      O72586   7.900   6.779   3.330
24115WAT     H172587   7.887   6.844   3.255
24115WAT     H272588   7.993   6.785   3.364
24116WAT      O72589   5.535   3.649   1.794
24116WAT     H172590   5.483   3.567   1.818
24116WAT     H272591   5.630   3.623   1.774
24117WAT      O72592   4.322   4.805   1.196
24117WAT     H172593   4.256   4.736   1.226
24117WAT     H272594   4.282   4.859   1.121
24118WAT      O72595   7.509   9.469   6.313
24118WAT     H172596   7.565   9.549   6.295
24118WAT     H272597   7.567   9.395   6.347
24119WAT      O72598   3.173   3.316   0.246
24119WAT     H172599   3.125   3.327   0.158
24119WAT     H272600   3.118   3.257   0.306
24120WAT      O72601   9.652   0.649   5.221
24120WAT     H172602   9.660   0.549   5.223
24120WAT     H272603   9.744   0.689   5.217
24121WAT      O72604   2.476   2.239   2.845
24121WAT     H172605   2.517   2.316   2.797
24121WAT     H272606   2.510   2.153   2.807
24122WAT      O72607   1.269   0.472   9.224
24122WAT     H172608   1.256   0.373   9.226
24122WAT     H272609   1.355   0.495   9.270
24123WAT      O72610   4.625   7.795   8.925
24123WAT     H172611   4.636   7.889   8.957
24123WAT     H272612   4.572   7.743   8.992
24124WAT      O72613   1.076   2.185   2.121
24124WAT     H172614   0.998   2.203   2.061
24124WAT     H272615   1.105   2.270   2.164
24125WAT      O72616   6.756   3.175   1.743
24125WAT     H172617   6.784   3.265   1.707
24125WAT     H272618   6.663   3.181   1.778
24126WAT      O72619   5.452   7.554   0.949
24126WAT     H172620   5.446   7.652   0.968
24126WAT     H272621   5.411   7.503   1.025
24127WAT      O72622   0.520   0.192   1.824
24127WAT     H172623   0.473   0.104   1.822
24127WAT     H272624   0.567   0.207   1.737
24128WAT      O72625   2.507   8.851   4.874
24128WAT     H172626   2.514   8.830   4.972
24128WAT     H272627   2.532   8.770   4.821
24129WAT      O72628   8.798   2.367   6.378
24129WAT     H172629   8.864   2.304   6.338
24129WAT     H272630   8.786   2.346   6.475
24130WAT      O72631   9.167   5.137   7.749
24130WAT     H172632   9.074   5.138   7.784
24130WAT     H272633   9.166   5.114   7.652
24131WAT      O72634   6.807   6.443   5.699
24131WAT     H172635   6.820   6.354   5.654
24131WAT     H272636   6.798   6.429   5.797
24132WAT      O72637   8.047   5.539   3.665
24132WAT     H172638   8.023   5.498   3.577
24132WAT     H272639   8.050   5.638   3.655
24133WAT      O72640   1.190   0.708   7.830
24133WAT     H172641   1.211   0.666   7.742
24133WAT     H272642   1.204   0.642   7.903
24134WAT      O72643   1.161   2.386   9.824
24134WAT     H172644   1.239   2.432   9.867
24134WAT     H272645   1.186   2.357   9.731
24135WAT      O72646   2.084   9.119   6.888
24135WAT     H172647   2.033   9.133   6.973
24135WAT     H272648   2.115   9.207   6.852
24136WAT      O72649   8.092   1.804   1.072
24136WAT     H172650   8.000   1.771   1.094
24136WAT     H272651   8.099   1.901   1.092
24137WAT      O72652   7.911   0.981   6.645
24137WAT     H172653   7.877   0.925   6.721
24137WAT     H272654   7.996   0.942   6.611
24138WAT      O72655   0.398   3.984   9.165
24138WAT     H172656   0.419   3.952   9.072
24138WAT     H272657   0.481   3.982   9.220
24139WAT      O72658   8.559   4.859   3.045
24139WAT     H172659   8.539   4.761   3.043
24139WAT     H272660   8.590   4.885   3.136
24140WAT      O72661   3.648   4.833   6.063
24140WAT     H172662   3.652   4.778   6.146
24140WAT     H272663   3.575   4.800   6.004
24141WAT      O72664   8.237   9.481   5.643
24141WAT     H172665   8.200   9.572   5.626
24141WAT     H272666   8.282   9.448   5.560
24142WAT      O72667   7.508   1.130   8.166
24142WAT     H172668   7.608   1.134   8.161
24142WAT     H272669   7.476   1.044   8.126
24143WAT      O72670   4.458   4.012   1.104
24143WAT     H172671   4.411   4.007   1.016
24143WAT     H272672   4.518   4.092   1.105
24144WAT      O72673   8.141   6.978   0.914
24144WAT     H172674   8.044   6.963   0.893
24144WAT     H272675   8.170   7.066   0.875
24145WAT      O72676   4.631   6.005   8.707
24145WAT     H172677   4.673   5.996   8.617
24145WAT     H272678   4.690   5.961   8.776
24146WAT      O72679   3.835   2.167   6.981
24146WAT     H172680   3.886   2.198   6.900
24146WAT     H272681   3.841   2.067   6.987
24147WAT      O72682   4.466   5.594   7.880
24147WAT     H172683   4.496   5.688   7.892
24147WAT     H272684   4.509   5.554   7.799
24148WAT      O72685   2.932   4.528   8.436
24148WAT     H172686   2.833   4.538   8.425
24148WAT     H272687   2.959   4.564   8.525
24149WAT      O72688   6.194   6.802   3.399
24149WAT     H172689   6.169   6.862   3.474
24149WAT     H272690   6.220   6.712   3.435
24150WAT      O72691   2.695   9.069   4.775
24150WAT     H172692   2.634   8.998   4.810
24150WAT     H272693   2.713   9.053   4.678
24151WAT      O72694   9.109   0.372   8.970
24151WAT     H172695   9.151   0.283   8.985
24151WAT     H272696   9.138   0.409   8.882
24152WAT      O72697   2.757   9.805   3.671
24152WAT     H172698   2.788   9.823   3.578
24152WAT     H272699   2.709   9.885   3.707
24153WAT      O72700   1.553   9.733   1.308
24153WAT     H172701   1.455   9.721   1.323
24153WAT     H272702   1.593   9.778   1.388
24154WAT      O72703   0.467   7.793   1.919
24154WAT     H172704   0.549   7.840   1.953
24154WAT     H272705   0.440   7.832   1.831
24155WAT      O72706   5.037   2.145   5.270
24155WAT     H172707   4.940   2.127   5.254
24155WAT     H272708   5.086   2.147   5.183
24156WAT      O72709   6.153   6.504   9.018
24156WAT     H172710   6.212   6.442   9.071
24156WAT     H272711   6.168   6.598   9.047
24157WAT      O72712   5.354   9.487   0.916
24157WAT     H172713   5.313   9.573   0.885
24157WAT     H272714   5.283   9.428   0.954
24158WAT      O72715   3.568   1.501   8.241
24158WAT     H172716   3.528   1.483   8.151
24158WAT     H272717   3.668   1.492   8.234
24159WAT      O72718   7.362   4.614   7.983
24159WAT     H172719   7.452   4.648   7.956
24159WAT     H272720   7.322   4.561   7.908
24160WAT      O72721   6.469   0.399   9.735
24160WAT     H172722   6.543   0.352   9.686
24160WAT     H272723   6.504   0.484   9.775
24161WAT      O72724   6.781   4.866   3.400
24161WAT     H172725   6.681   4.862   3.412
24161WAT     H272726   6.802   4.921   3.320
24162WAT      O72727   2.229   7.494   4.093
24162WAT     H172728   2.145   7.523   4.046
24162WAT     H272729   2.302   7.482   4.027
24163WAT      O72730   5.797   7.217   3.773
24163WAT     H172731   5.897   7.208   3.778
24163WAT     H272732   5.771   7.310   3.800
24164WAT      O72733   3.992   4.084   9.323
24164WAT     H172734   3.976   4.080   9.421
24164WAT     H272735   3.929   4.151   9.282
24165WAT      O72736   1.946   6.525   3.649
24165WAT     H172737   1.995   6.470   3.717
24165WAT     H272738   1.890   6.464   3.592
24166WAT      O72739   4.503   5.528   2.221
24166WAT     H172740   4.527   5.533   2.124
24166WAT     H272741   4.584   5.500   2.274
24167WAT      O72742   8.597   5.651   1.292
24167WAT     H172743   8.582   5.740   1.334
24167WAT     H272744   8.534   5.639   1.215
24168WAT      O72745   5.868   0.415   8.280
24168WAT     H172746   5.910   0.494   8.324
24168WAT     H272747   5.790   0.384   8.333
24169WAT      O72748   7.308   6.035   8.685
24169WAT     H172749   7.309   6.097   8.606
24169WAT     H272750   7.377   5.964   8.673
24170WAT      O72751   0.066   1.222   3.731
24170WAT     H172752   0.150   1.206   3.782
24170WAT     H272753   0.065   1.316   3.697
24171WAT      O72754   6.023   6.277   1.874
24171WAT     H172755   6.063   6.357   1.918
24171WAT     H272756   6.032   6.197   1.934
24172WAT      O72757   6.784   0.725   2.436
24172WAT     H172758   6.785   0.821   2.410
24172WAT     H272759   6.822   0.669   2.362
24173WAT      O72760   7.991   6.708   0.279
24173WAT     H172761   8.076   6.746   0.244
24173WAT     H272762   7.997   6.697   0.379
24174WAT      O72763   7.946   7.514   2.811
24174WAT     H172764   8.024   7.504   2.873
24174WAT     H272765   7.906   7.425   2.793
24175WAT      O72766   5.622   2.802   5.009
24175WAT     H172767   5.633   2.785   5.107
24175WAT     H272768   5.528   2.784   4.983
24176WAT      O72769   4.175   4.010   2.811
24176WAT     H172770   4.219   4.086   2.857
24176WAT     H272771   4.169   4.029   2.713
24177WAT      O72772   8.726   6.502   1.365
24177WAT     H172773   8.695   6.564   1.294
24177WAT     H272774   8.820   6.526   1.392
24178WAT      O72775   7.192   2.758   6.060
24178WAT     H172776   7.177   2.687   5.991
24178WAT     H272777   7.289   2.760   6.084
24179WAT      O72778   2.588   2.576   2.287
24179WAT     H172779   2.554   2.518   2.212
24179WAT     H272780   2.564   2.671   2.269
24180WAT      O72781   1.860   9.117   7.943
24180WAT     H172782   1.823   9.046   8.002
24180WAT     H272783   1.909   9.075   7.867
24181WAT      O72784   0.293   3.648   1.013
24181WAT     H172785   0.194   3.657   1.007
24181WAT     H272786   0.322   3.654   1.109
24182WAT      O72787   8.235   1.072   5.001
24182WAT     H172788   8.302   1.144   4.982
24182WAT     H272789   8.247   0.998   4.935
24183WAT      O72790   1.662   4.538   7.094
24183WAT     H172791   1.748   4.487   7.105
24183WAT     H272792   1.680   4.623   7.046
24184WAT      O72793   5.758   5.567   5.222
24184WAT     H172794   5.787   5.655   5.260
24184WAT     H272795   5.692   5.583   5.149
24185WAT      O72796   0.318   0.362   3.178
24185WAT     H172797   0.287   0.283   3.125
24185WAT     H272798   0.397   0.336   3.233
24186WAT      O72799   2.828   7.955   0.419
24186WAT     H172800   2.743   7.944   0.368
24186WAT     H272801   2.905   7.960   0.355
24187WAT      O72802   0.019   9.047   2.343
24187WAT     H172803   0.027   9.145   2.325
24187WAT     H272804  -0.019   9.033   2.434
24188WAT      O72805   7.782   8.449   2.905
24188WAT     H172806   7.788   8.545   2.931
24188WAT     H272807   7.691   8.414   2.929
24189WAT      O72808   2.027   1.593   4.255
24189WAT     H172809   1.931   1.618   4.242
24189WAT     H272810   2.037   1.538   4.338
24190WAT      O72811   0.449   2.626   1.490
24190WAT     H172812   0.428   2.530   1.510
24190WAT     H272813   0.414   2.649   1.399
24191WAT      O72814   0.913   6.103   8.225
24191WAT     H172815   0.898   6.098   8.324
24191WAT     H272816   0.834   6.064   8.177
24192WAT      O72817   2.096   8.118   3.978
24192WAT     H172818   2.138   8.106   3.888
24192WAT     H272819   2.063   8.212   3.987
24193WAT      O72820   2.710   0.428   3.373
24193WAT     H172821   2.643   0.490   3.333
24193WAT     H272822   2.697   0.336   3.337
24194WAT      O72823   0.058   7.640   9.345
24194WAT     H172824   0.140   7.649   9.289
24194WAT     H272825  -0.003   7.717   9.328
24195WAT      O72826   9.018   6.343   0.271
24195WAT     H172827   8.926   6.354   0.309
24195WAT     H272828   9.022   6.384   0.180
24196WAT      O72829   7.106   0.816   3.123
24196WAT     H172830   7.064   0.893   3.076
24196WAT     H272831   7.075   0.814   3.218
24197WAT      O72832   6.367   2.585   1.098
24197WAT     H172833   6.380   2.507   1.160
24197WAT     H272834   6.288   2.568   1.039
24198WAT      O72835   2.604   6.661   9.710
24198WAT     H172836   2.655   6.677   9.795
24198WAT     H272837   2.614   6.566   9.682
24199WAT      O72838   2.367   7.394   5.174
24199WAT     H172839   2.430   7.330   5.218
24199WAT     H272840   2.400   7.487   5.185
24200WAT      O72841   0.618   2.089   0.695
24200WAT     H172842   0.534   2.143   0.701
24200WAT     H272843   0.595   1.993   0.681
24201WAT      O72844   8.919   9.716   0.404
24201WAT     H172845   8.880   9.748   0.490
24201WAT     H272846   8.899   9.619   0.391
24202WAT      O72847   5.021   0.151   6.303
24202WAT     H172848   4.930   0.186   6.281
24202WAT     H272849   5.087   0.226   6.301
24203WAT      O72850   8.830   1.904   9.004
24203WAT     H172851   8.912   1.877   8.953
24203WAT     H272852   8.790   1.985   8.961
24204WAT      O72853   4.738   4.242   3.782
24204WAT     H172854   4.709   4.309   3.850
24204WAT     H272855   4.779   4.164   3.829
24205WAT      O72856   8.417   3.679   4.219
24205WAT     H172857   8.490   3.615   4.243
24205WAT     H272858   8.456   3.766   4.189
24206WAT      O72859   4.409   5.306   6.167
24206WAT     H172860   4.345   5.304   6.090
24206WAT     H272861   4.382   5.237   6.234
24207WAT      O72862   2.167   9.297   4.456
24207WAT     H172863   2.126   9.252   4.535
24207WAT     H272864   2.220   9.230   4.403
24208WAT      O72865   8.398   9.581   7.962
24208WAT     H172866   8.412   9.483   7.980
24208WAT     H272867   8.400   9.596   7.863
24209WAT      O72868   7.413   5.485   8.486
24209WAT     H172869   7.444   5.391   8.501
24209WAT     H272870   7.316   5.492   8.510
24210WAT      O72871   7.000   7.258   7.903
24210WAT     H172872   7.057   7.212   7.972
24210WAT     H272873   7.022   7.355   7.903
24211WAT      O72874   9.752   9.398   6.054
24211WAT     H172875   9.756   9.332   5.978
24211WAT     H272876   9.754   9.348   6.141
24212WAT      O72877   8.451   1.631   5.551
24212WAT     H172878   8.352   1.616   5.561
24212WAT     H272879   8.468   1.688   5.471
24213WAT      O72880   0.495   0.840   6.669
24213WAT     H172881   0.466   0.777   6.598
24213WAT     H272882   0.458   0.931   6.651
24214WAT      O72883   7.081   9.674   7.281
24214WAT     H172884   7.051   9.580   7.297
24214WAT     H272885   7.171   9.674   7.238
24215WAT      O72886   5.078   9.253   2.715
24215WAT     H172887   5.045   9.295   2.799
24215WAT     H272888   5.128   9.322   2.662
24216WAT      O72889   1.407   2.737   2.900
24216WAT     H172890   1.318   2.753   2.859
24216WAT     H272891   1.417   2.794   2.982
24217WAT      O72892   9.777   7.733   1.361
24217WAT     H172893   9.874   7.748   1.341
24217WAT     H272894   9.768   7.659   1.428
24218WAT      O72895   4.414   3.021   7.889
24218WAT     H172896   4.429   3.084   7.965
24218WAT     H272897   4.444   3.065   7.804
24219WAT      O72898   6.237   5.398   7.401
24219WAT     H172899   6.250   5.306   7.437
24219WAT     H272900   6.223   5.393   7.302
24220WAT      O72901   5.106   4.941   3.754
24220WAT     H172902   5.032   5.008   3.743
24220WAT     H272903   5.191   4.979   3.718
24221WAT      O72904   4.431   0.631   0.629
24221WAT     H172905   4.378   0.574   0.693
24221WAT     H272906   4.458   0.715   0.675
24222WAT      O72907   0.927   4.056   1.911
24222WAT     H172908   0.920   4.046   1.811
24222WAT     H272909   0.851   4.113   1.944
24223WAT      O72910   2.331   3.394   7.002
24223WAT     H172911   2.417   3.350   6.973
24223WAT     H272912   2.350   3.488   7.028
24224WAT      O72913   7.529   1.449   1.877
24224WAT     H172914   7.598   1.452   1.804
24224WAT     H272915   7.469   1.370   1.863
24225WAT      O72916   8.956   6.703   0.226
24225WAT     H172917   8.922   6.646   0.151
24225WAT     H272918   9.025   6.766   0.191
24226WAT      O72919   4.885   3.383   5.970
24226WAT     H172920   4.895   3.481   5.990
24226WAT     H272921   4.837   3.338   6.046
24227WAT      O72922   1.571   9.843   4.066
24227WAT     H172923   1.538   9.757   4.105
24227WAT     H272924   1.624   9.824   3.983
24228WAT      O72925   9.413   3.114   9.081
24228WAT     H172926   9.510   3.126   9.100
24228WAT     H272927   9.390   3.017   9.089
24229WAT      O72928   0.354   7.623   8.201
24229WAT     H172929   0.438   7.657   8.244
24229WAT     H272930   0.286   7.602   8.271
24230WAT      O72931   7.275   6.713   5.931
24230WAT     H172932   7.251   6.649   5.858
24230WAT     H272933   7.243   6.805   5.907
24231WAT      O72934   7.059   7.720   5.321
24231WAT     H172935   7.036   7.661   5.398
24231WAT     H272936   7.151   7.698   5.288
24232WAT      O72937   5.887   6.358   1.422
24232WAT     H172938   5.818   6.295   1.389
24232WAT     H272939   5.973   6.309   1.436
24233WAT      O72940   0.719   2.368   4.087
24233WAT     H172941   0.743   2.280   4.128
24233WAT     H272942   0.783   2.438   4.118
24234WAT      O72943   2.745   8.132   7.677
24234WAT     H172944   2.703   8.042   7.662
24234WAT     H272945   2.761   8.176   7.588
24235WAT      O72946   5.516   4.880   6.571
24235WAT     H172947   5.530   4.977   6.553
24235WAT     H272948   5.418   4.860   6.567
24236WAT      O72949   2.819   0.437   1.178
24236WAT     H172950   2.750   0.373   1.213
24236WAT     H272951   2.786   0.530   1.189
24237WAT      O72952   8.526   2.377   0.926
24237WAT     H172953   8.487   2.285   0.919
24237WAT     H272954   8.580   2.384   1.010
24238WAT      O72955   4.045   8.953   8.778
24238WAT     H172956   4.122   9.009   8.749
24238WAT     H272957   4.002   8.994   8.858
24239WAT      O72958   2.565   7.912   0.371
24239WAT     H172959   2.480   7.867   0.343
24239WAT     H272960   2.543   7.993   0.424
24240WAT      O72961   4.657   1.146   7.248
24240WAT     H172962   4.622   1.054   7.231
24240WAT     H272963   4.585   1.213   7.230
24241WAT      O72964   0.024   2.368   6.789
24241WAT     H172965   0.006   2.285   6.842
24241WAT     H272966   0.089   2.347   6.716
24242WAT      O72967   9.381   8.578   9.774
24242WAT     H172968   9.324   8.542   9.848
24242WAT     H272969   9.416   8.503   9.719
24243WAT      O72970   7.796   2.333   6.023
24243WAT     H172971   7.708   2.286   6.035
24243WAT     H272972   7.779   2.428   5.998
24244WAT      O72973   0.997   2.468   5.914
24244WAT     H172974   1.016   2.515   5.827
24244WAT     H272975   0.900   2.445   5.918
24245WAT      O72976   9.320   2.802   1.403
24245WAT     H172977   9.414   2.810   1.434
24245WAT     H272978   9.293   2.706   1.401
24246WAT      O72979   2.903   4.960   0.075
24246WAT     H172980   2.920   4.962   0.173
24246WAT     H272981   2.985   4.988   0.026
24247WAT      O72982   6.429   5.202   6.279
24247WAT     H172983   6.365   5.141   6.325
24247WAT     H272984   6.383   5.249   6.204
24248WAT      O72985   5.719   3.248   9.555
24248WAT     H172986   5.710   3.272   9.458
24248WAT     H272987   5.802   3.291   9.592
24249WAT      O72988   3.692   3.979   9.670
24249WAT     H172989   3.636   4.020   9.598
24249WAT     H272990   3.716   3.885   9.645
24250WAT      O72991   5.755   0.160   2.257
24250WAT     H172992   5.697   0.123   2.330
24250WAT     H272993   5.766   0.091   2.185
24251WAT      O72994   1.188   5.192   6.381
24251WAT     H172995   1.257   5.228   6.319
24251WAT     H272996   1.130   5.267   6.414
24252WAT      O72997   5.528   0.953   4.611
24252WAT     H172998   5.552   0.962   4.514
24252WAT     H272999   5.590   1.009   4.666
24253WAT      O73000   0.755   1.932   5.750
24253WAT     H173001   0.697   1.945   5.670
24253WAT     H273002   0.828   2.001   5.750
24254WAT      O73003   9.582   6.824   1.017
24254WAT     H173004   9.484   6.842   1.024
24254WAT     H273005   9.631   6.888   1.076
24255WAT      O73006   3.823   7.518   7.382
24255WAT     H173007   3.808   7.457   7.304
24255WAT     H273008   3.921   7.529   7.397
24256WAT      O73009   4.976   6.172   1.523
24256WAT     H173010   4.895   6.226   1.543
24256WAT     H273011   5.004   6.188   1.428
24257WAT      O73012   2.894   7.358   7.917
24257WAT     H173013   2.876   7.391   7.825
24257WAT     H273014   2.924   7.262   7.913
24258WAT      O73015   2.295   2.916   6.582
24258WAT     H173016   2.304   2.902   6.483
24258WAT     H273017   2.359   2.857   6.630
24259WAT      O73018   3.566   7.252   4.194
24259WAT     H173019   3.650   7.205   4.167
24259WAT     H273020   3.495   7.235   4.127
24260WAT      O73021   6.518   3.512   0.218
24260WAT     H173022   6.427   3.483   0.249
24260WAT     H273023   6.582   3.436   0.228
24261WAT      O73024   0.738   1.519   9.460
24261WAT     H173025   0.714   1.471   9.376
24261WAT     H273026   0.671   1.591   9.478
24262WAT      O73027   3.570   8.032   8.834
24262WAT     H173028   3.491   8.094   8.832
24262WAT     H273029   3.579   7.993   8.925
24263WAT      O73030   7.131   4.210   9.690
24263WAT     H173031   7.039   4.175   9.710
24263WAT     H273032   7.131   4.254   9.600
24264WAT      O73033   3.815   7.138   5.685
24264WAT     H173034   3.904   7.123   5.643
24264WAT     H273035   3.822   7.210   5.754
24265WAT      O73036   7.992   1.143   2.848
24265WAT     H173037   7.918   1.177   2.905
24265WAT     H273038   7.985   1.182   2.756
24266WAT      O73039   2.847   3.705   7.218
24266WAT     H173040   2.805   3.666   7.136
24266WAT     H273041   2.940   3.736   7.196
24267WAT      O73042   4.710   1.728   2.438
24267WAT     H173043   4.753   1.783   2.510
24267WAT     H273044   4.651   1.659   2.480
24268WAT      O73045   0.335   5.907   8.291
24268WAT     H173046   0.356   5.988   8.346
24268WAT     H273047   0.306   5.936   8.200
24269WAT      O73048   8.582   6.092   2.258
24269WAT     H173049   8.655   6.027   2.279
24269WAT     H273050   8.599   6.132   2.167
24270WAT      O73051   6.535   6.559   3.652
24270WAT     H173052   6.611   6.494   3.652
24270WAT     H273053   6.477   6.543   3.732
24271WAT      O73054   2.295   4.393   4.421
24271WAT     H173055   2.335   4.399   4.512
24271WAT     H273056   2.341   4.321   4.369
24272WAT      O73057   5.310   1.097   1.687
24272WAT     H173058   5.340   1.060   1.775
24272WAT     H273059   5.237   1.040   1.649
24273WAT      O73060   3.841   7.044   2.977
24273WAT     H173061   3.837   7.030   2.879
24273WAT     H273062   3.849   6.956   3.024
24274WAT      O73063   4.729   4.173   9.631
24274WAT     H173064   4.712   4.213   9.721
24274WAT     H273065   4.775   4.241   9.574
24275WAT      O73066   2.305   5.961   6.385
24275WAT     H173067   2.211   5.938   6.410
24275WAT     H273068   2.345   5.885   6.333
24276WAT      O73069   0.133   5.751   1.106
24276WAT     H173070   0.059   5.683   1.112
24276WAT     H273071   0.219   5.709   1.137
24277WAT      O73072   1.141   0.913   3.846
24277WAT     H173073   1.075   0.901   3.920
24277WAT     H273074   1.150   0.827   3.795
24278WAT      O73075   9.014   7.482   2.512
24278WAT     H173076   9.108   7.511   2.498
24278WAT     H273077   9.012   7.404   2.573
24279WAT      O73078   8.420   0.708   8.934
24279WAT     H173079   8.420   0.787   8.873
24279WAT     H273080   8.412   0.624   8.881
24280WAT      O73081   2.386   5.547   6.458
24280WAT     H173082   2.363   5.566   6.554
24280WAT     H273083   2.328   5.474   6.424
24281WAT      O73084   0.620   3.830   0.221
24281WAT     H173085   0.690   3.764   0.251
24281WAT     H273086   0.606   3.898   0.293
24282WAT      O73087   0.164   8.691   6.174
24282WAT     H173088   0.262   8.683   6.159
24282WAT     H273089   0.118   8.607   6.144
24283WAT      O73090   8.106   4.413   5.236
24283WAT     H173091   8.064   4.392   5.148
24283WAT     H273092   8.101   4.334   5.296
24284WAT      O73093   8.634   3.911   5.235
24284WAT     H173094   8.722   3.896   5.279
24284WAT     H273095   8.648   3.959   5.148
24285WAT      O73096   8.201   8.832   6.093
24285WAT     H173097   8.222   8.736   6.073
24285WAT     H273098   8.259   8.863   6.169
24286WAT      O73099   3.257   8.883   6.866
24286WAT     H173100   3.160   8.885   6.891
24286WAT     H273101   3.312   8.888   6.949
24287WAT      O73102   1.031   2.626   2.181
24287WAT     H173103   0.960   2.556   2.178
24287WAT     H273104   1.092   2.608   2.258
24288WAT      O73105   3.019   7.163   2.935
24288WAT     H173106   2.947   7.204   2.991
24288WAT     H273107   3.069   7.095   2.989
24289WAT      O73108   8.685   1.314   9.859
24289WAT     H173109   8.641   1.285   9.944
24289WAT     H273110   8.632   1.281   9.781
24290WAT      O73111   7.017   3.486   3.352
24290WAT     H173112   7.095   3.541   3.319
24290WAT     H273113   6.935   3.511   3.300
24291WAT      O73114   4.671   7.616   0.050
24291WAT     H173115   4.737   7.624   0.125
24291WAT     H273116   4.719   7.618  -0.038
24292WAT      O73117   7.852   9.720   6.483
24292WAT     H173118   7.946   9.750   6.496
24292WAT     H273119   7.839   9.631   6.528
24293WAT      O73120   1.731   7.060   1.428
24293WAT     H173121   1.752   6.964   1.412
24293WAT     H273122   1.790   7.096   1.500
24294WAT      O73123   1.492   3.088   9.890
24294WAT     H173124   1.532   2.999   9.910
24294WAT     H273125   1.540   3.131   9.813
24295WAT      O73126   5.515   9.791   4.598
24295WAT     H173127   5.590   9.803   4.663
24295WAT     H273128   5.506   9.695   4.575
24296WAT      O73129   3.696   0.244   9.653
24296WAT     H173130   3.772   0.203   9.704
24296WAT     H273131   3.622   0.178   9.644
24297WAT      O73132   6.887   9.259   3.403
24297WAT     H173133   6.979   9.221   3.405
24297WAT     H273134   6.835   9.228   3.482
24298WAT      O73135   4.238   1.569   8.722
24298WAT     H173136   4.317   1.588   8.781
24298WAT     H273137   4.267   1.575   8.626
24299WAT      O73138   1.039   2.814   9.847
24299WAT     H173139   0.997   2.727   9.823
24299WAT     H273140   1.139   2.806   9.838
24300WAT      O73141   9.732   7.026   1.180
24300WAT     H173142   9.744   7.017   1.279
24300WAT     H273143   9.726   7.123   1.156
24301WAT      O73144   1.275   4.830   1.962
24301WAT     H173145   1.272   4.730   1.971
24301WAT     H273146   1.239   4.872   2.045
24302WAT      O73147   6.824   8.631   9.003
24302WAT     H173148   6.833   8.538   9.037
24302WAT     H273149   6.914   8.675   9.000
24303WAT      O73150   2.830   9.811   3.414
24303WAT     H173151   2.785   9.751   3.349
24303WAT     H273152   2.929   9.797   3.410
24304WAT      O73153   6.916   1.943   0.311
24304WAT     H173154   6.990   1.889   0.350
24304WAT     H273155   6.936   1.961   0.214
24305WAT      O73156   6.214   2.968   0.362
24305WAT     H173157   6.116   2.946   0.362
24305WAT     H273158   6.265   2.894   0.317
24306WAT      O73159   0.596   0.468   7.487
24306WAT     H173160   0.526   0.443   7.554
24306WAT     H273161   0.574   0.557   7.447
24307WAT      O73162   4.805   7.904   5.274
24307WAT     H173163   4.766   7.970   5.209
24307WAT     H273164   4.812   7.947   5.364
24308WAT      O73165   0.462   2.330   5.668
24308WAT     H173166   0.475   2.415   5.719
24308WAT     H273167   0.364   2.314   5.654
24309WAT      O73168   2.761   9.527   3.638
24309WAT     H173169   2.821   9.467   3.691
24309WAT     H273170   2.767   9.620   3.673
24310WAT      O73171   9.711   7.621   0.464
24310WAT     H173172   9.692   7.641   0.368
24310WAT     H273173   9.777   7.688   0.500
24311WAT      O73174   9.462   7.672   0.538
24311WAT     H173175   9.551   7.641   0.505
24311WAT     H273176   9.459   7.772   0.535
24312WAT      O73177   5.763   2.707   0.222
24312WAT     H173178   5.704   2.788   0.226
24312WAT     H273179   5.751   2.661   0.134
24313WAT      O73180   4.845   5.589   6.582
24313WAT     H173181   4.915   5.618   6.516
24313WAT     H273182   4.755   5.622   6.552
24314WAT      O73183   5.053   9.235   0.477
24314WAT     H173184   5.046   9.161   0.410
24314WAT     H273185   4.963   9.256   0.514
24315WAT      O73186   4.962   1.680   5.656
24315WAT     H173187   4.887   1.668   5.591
24315WAT     H273188   5.047   1.697   5.606
24316WAT      O73189   0.892   5.785   8.497
24316WAT     H173190   0.937   5.733   8.569
24316WAT     H273191   0.912   5.882   8.508
24317WAT      O73192   3.276   5.124   6.821
24317WAT     H173193   3.362   5.174   6.813
24317WAT     H273194   3.292   5.026   6.805
24318WAT      O73195   8.351   8.776   2.820
24318WAT     H173196   8.341   8.680   2.843
24318WAT     H273197   8.265   8.824   2.835
24319WAT      O73198   4.408   2.843   3.265
24319WAT     H173199   4.491   2.791   3.286
24319WAT     H273200   4.419   2.889   3.177
24320WAT      O73201   3.160   7.152   4.030
24320WAT     H173202   3.077   7.192   4.069
24320WAT     H273203   3.175   7.061   4.068
24321WAT      O73204   3.097   5.964   3.690
24321WAT     H173205   3.046   5.970   3.604
24321WAT     H273206   3.172   5.899   3.680
24322WAT      O73207   7.515   7.726   6.564
24322WAT     H173208   7.551   7.786   6.636
24322WAT     H273209   7.415   7.731   6.563
24323WAT      O73210   8.960   2.934   2.395
24323WAT     H173211   9.028   3.003   2.420
24323WAT     H273212   8.941   2.875   2.474
24324WAT      O73213   6.255   4.396   7.363
24324WAT     H173214   6.169   4.413   7.410
24324WAT     H273215   6.237   4.367   7.269
24325WAT      O73216   1.646   2.356   1.033
24325WAT     H173217   1.594   2.303   1.100
24325WAT     H273218   1.586   2.422   0.989
24326WAT      O73219   4.556   4.672   6.355
24326WAT     H173220   4.637   4.657   6.412
24326WAT     H273221   4.554   4.606   6.280
24327WAT      O73222   8.730   8.000   6.578
24327WAT     H173223   8.682   7.957   6.501
24327WAT     H273224   8.806   7.942   6.606
24328WAT      O73225   7.167   0.999   6.027
24328WAT     H173226   7.186   0.905   6.000
24328WAT     H273227   7.193   1.012   6.123
24329WAT      O73228   3.264   3.629   8.206
24329WAT     H173229   3.262   3.529   8.212
24329WAT     H273230   3.350   3.663   8.244
24330WAT      O73231   7.149   5.313   3.137
24330WAT     H173232   7.121   5.377   3.209
24330WAT     H273233   7.073   5.299   3.073
24331WAT      O73234   0.563   8.805   4.482
24331WAT     H173235   0.550   8.801   4.581
24331WAT     H273236   0.478   8.780   4.436
24332WAT      O73237   7.505   9.403   6.905
24332WAT     H173238   7.518   9.478   6.841
24332WAT     H273239   7.590   9.353   6.916
24333WAT      O73240   9.594   6.609   0.740
24333WAT     H173241   9.646   6.544   0.684
24333WAT     H273242   9.657   6.657   0.801
24334WAT      O73243   5.920   5.042   0.206
24334WAT     H173244   5.880   5.003   0.289
24334WAT     H273245   5.994   4.983   0.174
24335WAT      O73246   2.208   7.529   6.329
24335WAT     H173247   2.154   7.458   6.375
24335WAT     H273248   2.278   7.486   6.272
24336WAT      O73249   9.665   7.117   5.087
24336WAT     H173250   9.636   7.213   5.087
24336WAT     H273251   9.764   7.112   5.094
24337WAT      O73252   7.144   6.749   2.855
24337WAT     H173253   7.205   6.791   2.923
24337WAT     H273254   7.187   6.751   2.765
24338WAT      O73255   5.769   0.752   0.174
24338WAT     H173256   5.835   0.805   0.226
24338WAT     H273257   5.788   0.761   0.076
24339WAT      O73258   3.427   2.360   6.176
24339WAT     H173259   3.443   2.436   6.239
24339WAT     H273260   3.364   2.295   6.218
24340WAT      O73261   2.461   6.871   7.752
24340WAT     H173262   2.452   6.854   7.653
24340WAT     H273263   2.512   6.955   7.767
24341WAT      O73264   8.777   2.366   3.446
24341WAT     H173265   8.706   2.299   3.469
24341WAT     H273266   8.808   2.351   3.352
24342WAT      O73267   7.953   4.356   5.024
24342WAT     H173268   7.897   4.424   4.977
24342WAT     H273269   7.906   4.268   5.026
24343WAT      O73270   6.261   9.249   3.838
24343WAT     H173271   6.299   9.160   3.863
24343WAT     H273272   6.334   9.308   3.804
24344WAT      O73273   6.964   3.339   8.279
24344WAT     H173274   6.945   3.284   8.198
24344WAT     H273275   6.934   3.433   8.263
24345WAT      O73276   1.532   4.420   5.979
24345WAT     H173277   1.629   4.395   5.977
24345WAT     H273278   1.489   4.383   6.062
24346WAT      O73279   5.412   9.330   1.321
24346WAT     H173280   5.332   9.389   1.329
24346WAT     H273281   5.401   9.250   1.379
24347WAT      O73282   3.109   8.885   6.290
24347WAT     H173283   3.164   8.814   6.333
24347WAT     H273284   3.019   8.888   6.333
24348WAT      O73285   0.030   2.341   8.033
24348WAT     H173286   0.125   2.311   8.030
24348WAT     H273287  -0.017   2.295   8.108
24349WAT      O73288   2.147   0.822   8.513
24349WAT     H173289   2.152   0.737   8.460
24349WAT     H273290   2.119   0.801   8.607
24350WAT      O73291   1.287   6.093   3.788
24350WAT     H173292   1.373   6.088   3.839
24350WAT     H273293   1.210   6.086   3.852
24351WAT      O73294   5.289   9.228   5.769
24351WAT     H173295   5.256   9.183   5.686
24351WAT     H273296   5.350   9.166   5.819
24352WAT      O73297   9.109   2.514   7.248
24352WAT     H173298   9.073   2.428   7.211
24352WAT     H273299   9.170   2.556   7.182
24353WAT      O73300   0.582   3.123   6.449
24353WAT     H173301   0.624   3.187   6.513
24353WAT     H273302   0.654   3.067   6.406
24354WAT      O73303   0.976   5.197   1.829
24354WAT     H173304   1.009   5.121   1.884
24354WAT     H273305   0.926   5.261   1.888
24355WAT      O73306   6.462   9.016   0.163
24355WAT     H173307   6.410   9.042   0.082
24355WAT     H273308   6.472   9.095   0.223
24356WAT      O73309   8.754   9.318   0.198
24356WAT     H173310   8.655   9.305   0.205
24356WAT     H273311   8.788   9.271   0.116
24357WAT      O73312   0.463   9.533   3.731
24357WAT     H173313   0.507   9.611   3.685
24357WAT     H273314   0.478   9.450   3.678
24358WAT      O73315   1.791   1.720   5.123
24358WAT     H173316   1.776   1.767   5.209
24358WAT     H273317   1.710   1.665   5.100
24359WAT      O73318   1.201   5.088   5.842
24359WAT     H173319   1.270   5.029   5.799
24359WAT     H273320   1.118   5.035   5.859
24360WAT      O73321   1.446   7.384   3.522
24360WAT     H173322   1.359   7.432   3.525
24360WAT     H273323   1.495   7.396   3.608
24361WAT      O73324   4.787   9.359   3.743
24361WAT     H173325   4.804   9.380   3.839
24361WAT     H273326   4.695   9.322   3.732
24362WAT      O73327   7.569   3.222   4.989
24362WAT     H173328   7.535   3.237   4.896
24362WAT     H273329   7.638   3.150   4.988
24363WAT      O73330   2.230   7.243   5.771
24363WAT     H173331   2.207   7.271   5.678
24363WAT     H273332   2.174   7.165   5.797
24364WAT      O73333   0.690   3.001   9.502
24364WAT     H173334   0.601   2.964   9.526
24364WAT     H273335   0.726   3.056   9.578
24365WAT      O73336   0.433   7.329   2.214
24365WAT     H173337   0.405   7.351   2.308
24365WAT     H273338   0.460   7.413   2.167
24366WAT      O73339   2.173   6.433   3.484
24366WAT     H173340   2.087   6.412   3.438
24366WAT     H273341   2.162   6.423   3.583
24367WAT      O73342   1.993   2.443   5.825
24367WAT     H173343   2.081   2.490   5.819
24367WAT     H273344   1.983   2.402   5.916
24368WAT      O73345   6.689   6.024   4.941
24368WAT     H173346   6.674   6.121   4.923
24368WAT     H273347   6.725   5.980   4.858
24369WAT      O73348   5.868   1.302   3.057
24369WAT     H173349   5.870   1.401   3.046
24369WAT     H273350   5.789   1.276   3.112
24370WAT      O73351   2.784   1.571   5.133
24370WAT     H173352   2.703   1.513   5.134
24370WAT     H273353   2.793   1.614   5.043
24371WAT      O73354   4.052   1.202   0.941
24371WAT     H173355   4.114   1.253   0.882
24371WAT     H273356   4.044   1.108   0.907
24372WAT      O73357   7.635   8.502   1.180
24372WAT     H173358   7.646   8.403   1.168
24372WAT     H273359   7.618   8.523   1.276
24373WAT      O73360   7.635   8.243   2.112
24373WAT     H173361   7.679   8.183   2.046
24373WAT     H273362   7.550   8.279   2.074
24374WAT      O73363   3.514   2.778   3.593
24374WAT     H173364   3.560   2.789   3.506
24374WAT     H273365   3.539   2.854   3.654
24375WAT      O73366   4.730   8.473   7.581
24375WAT     H173367   4.669   8.394   7.574
24375WAT     H273368   4.681   8.557   7.558
24376WAT      O73369   0.657   6.014   3.761
24376WAT     H173370   0.668   6.113   3.747
24376WAT     H273371   0.720   5.966   3.700
24377WAT      O73372   1.480   3.362   9.192
24377WAT     H173373   1.569   3.399   9.217
24377WAT     H273374   1.446   3.408   9.110
24378WAT      O73375   8.320   0.790   3.101
24378WAT     H173376   8.310   0.882   3.138
24378WAT     H273377   8.358   0.795   3.009
24379WAT      O73378   3.031   4.810   9.642
24379WAT     H173379   3.005   4.906   9.630
24379WAT     H273380   3.074   4.777   9.558
24380WAT      O73381   0.863   6.741   8.472
24380WAT     H173382   0.892   6.747   8.377
24380WAT     H273383   0.908   6.663   8.516
24381WAT      O73384   8.835   8.445   7.111
24381WAT     H173385   8.773   8.383   7.063
24381WAT     H273386   8.797   8.468   7.200
24382WAT      O73387   4.228   6.333   0.153
24382WAT     H173388   4.189   6.389   0.080
24382WAT     H273389   4.270   6.392   0.222
24383WAT      O73390   8.164   6.817   3.384
24383WAT     H173391   8.198   6.830   3.477
24383WAT     H273392   8.174   6.903   3.333
24384WAT      O73393   0.589   3.194   1.587
24384WAT     H173394   0.546   3.282   1.568
24384WAT     H273395   0.522   3.131   1.625
24385WAT      O73396   6.995   8.898   5.426
24385WAT     H173397   6.998   8.810   5.473
24385WAT     H273398   7.058   8.896   5.348
24386WAT      O73399   0.888   6.923   7.026
24386WAT     H173400   0.855   6.952   6.936
24386WAT     H273401   0.988   6.930   7.028
24387WAT      O73402   4.102   4.419   4.075
24387WAT     H173403   4.116   4.321   4.088
24387WAT     H273404   4.051   4.456   4.152
24388WAT      O73405   3.697   9.819   3.018
24388WAT     H173406   3.792   9.842   3.039
24388WAT     H273407   3.636   9.865   3.082
24389WAT      O73408   0.764   4.078   4.788
24389WAT     H173409   0.729   4.060   4.696
24389WAT     H273410   0.764   3.993   4.841
24390WAT      O73411   3.577   4.434   6.215
24390WAT     H173412   3.484   4.462   6.191
24390WAT     H273413   3.573   4.365   6.288
24391WAT      O73414   3.501   5.260   4.325
24391WAT     H173415   3.433   5.271   4.398
24391WAT     H273416   3.569   5.192   4.353
24392WAT      O73417   1.980   3.605   4.608
24392WAT     H173418   1.941   3.697   4.617
24392WAT     H273419   1.907   3.539   4.593
24393WAT      O73420   3.599   1.561   3.640
24393WAT     H173421   3.564   1.468   3.650
24393WAT     H273422   3.593   1.608   3.728
24394WAT      O73423   7.213   7.702   7.164
24394WAT     H173424   7.292   7.730   7.108
24394WAT     H273425   7.143   7.661   7.105
24395WAT      O73426   6.392   9.574   5.969
24395WAT     H173427   6.322   9.506   5.948
24395WAT     H273428   6.349   9.658   6.003
24396WAT      O73429   0.288   2.444   5.005
24396WAT     H173430   0.228   2.491   5.069
24396WAT     H273431   0.302   2.350   5.035
24397WAT      O73432   5.939   7.938   6.102
24397WAT     H173433   5.959   7.901   6.011
24397WAT     H273434   5.876   7.876   6.149
24398WAT      O73435   2.396   1.896   9.866
24398WAT     H173436   2.410   1.970   9.931
24398WAT     H273437   2.466   1.900   9.795
24399WAT      O73438   2.989   0.718   6.465
24399WAT     H173439   3.058   0.742   6.397
24399WAT     H273440   3.004   0.623   6.494
24400WAT      O73441   2.007   6.527   5.762
24400WAT     H173442   2.060   6.472   5.698
24400WAT     H273443   1.989   6.473   5.845
24401WAT      O73444   2.817   9.426   9.726
24401WAT     H173445   2.888   9.356   9.737
24401WAT     H273446   2.779   9.448   9.816
24402WAT      O73447   3.475   8.008   2.383
24402WAT     H173448   3.505   8.008   2.287
24402WAT     H273449   3.403   7.940   2.395
24403WAT      O73450   7.950   6.918   9.610
24403WAT     H173451   7.982   6.993   9.668
24403WAT     H273452   7.882   6.865   9.659
24404WAT      O73453   1.368   4.125   7.502
24404WAT     H173454   1.429   4.082   7.569
24404WAT     H273455   1.338   4.214   7.538
24405WAT      O73456   9.445   1.479   8.331
24405WAT     H173457   9.366   1.467   8.272
24405WAT     H273458   9.468   1.391   8.373
24406WAT      O73459   3.779   8.729   3.591
24406WAT     H173460   3.686   8.714   3.623
24406WAT     H273461   3.826   8.791   3.653
24407WAT      O73462   4.333   1.140   5.910
24407WAT     H173463   4.237   1.158   5.887
24407WAT     H273464   4.379   1.103   5.830
24408WAT      O73465   3.355   8.300   7.987
24408WAT     H173466   3.430   8.356   8.022
24408WAT     H273467   3.385   8.252   7.905
24409WAT      O73468   9.428   9.145   5.302
24409WAT     H173469   9.508   9.109   5.253
24409WAT     H273470   9.346   9.131   5.247
24410WAT      O73471   5.226   5.900   6.396
24410WAT     H173472   5.290   5.963   6.439
24410WAT     H273473   5.134   5.941   6.397
24411WAT      O73474   7.632   5.633   8.509
24411WAT     H173475   7.717   5.583   8.494
24411WAT     H273476   7.554   5.574   8.489
24412WAT      O73477   7.537   3.016   8.847
24412WAT     H173478   7.590   3.076   8.787
24412WAT     H273479   7.596   2.942   8.881
24413WAT      O73480   8.302   4.573   2.111
24413WAT     H173481   8.323   4.507   2.038
24413WAT     H273482   8.207   4.563   2.138
24414WAT      O73483   7.391   2.753   4.007
24414WAT     H173484   7.316   2.712   4.059
24414WAT     H273485   7.462   2.684   3.992
24415WAT      O73486   7.788   6.741   9.756
24415WAT     H173487   7.710   6.711   9.701
24415WAT     H273488   7.843   6.663   9.781
24416WAT      O73489   6.831   9.393   0.107
24416WAT     H173490   6.828   9.361   0.012
24416WAT     H273491   6.924   9.389   0.141
24417WAT      O73492   1.633   0.867   3.820
24417WAT     H173493   1.712   0.834   3.871
24417WAT     H273494   1.590   0.791   3.771
24418WAT      O73495   2.495   4.693   0.440
24418WAT     H173496   2.479   4.659   0.347
24418WAT     H273497   2.414   4.676   0.496
24419WAT      O73498   1.151   9.213   8.408
24419WAT     H173499   1.122   9.305   8.433
24419WAT     H273500   1.177   9.163   8.490
24420WAT      O73501   4.308   1.270   5.643
24420WAT     H173502   4.366   1.280   5.723
24420WAT     H273503   4.229   1.332   5.651
24421WAT      O73504   6.580   8.152   1.862
24421WAT     H173505   6.569   8.054   1.875
24421WAT     H273506   6.675   8.178   1.881
24422WAT      O73507   0.591   4.829   3.999
24422WAT     H173508   0.679   4.783   4.014
24422WAT     H273509   0.523   4.762   3.970
24423WAT      O73510   5.788   9.000   4.826
24423WAT     H173511   5.792   8.904   4.796
24423WAT     H273512   5.879   9.040   4.819
24424WAT      O73513   5.430   6.928   4.529
24424WAT     H173514   5.370   6.901   4.605
24424WAT     H273515   5.396   7.012   4.488
24425WAT      O73516   2.369   7.906   1.015
24425WAT     H173517   2.319   7.920   1.101
24425WAT     H273518   2.362   7.810   0.988
24426WAT      O73519   4.909   3.229   5.623
24426WAT     H173520   4.917   3.230   5.524
24426WAT     H273521   4.831   3.286   5.651
24427WAT      O73522   7.871   6.291   2.745
24427WAT     H173523   7.961   6.327   2.770
24427WAT     H273524   7.834   6.344   2.669
24428WAT      O73525   3.184   8.755   1.600
24428WAT     H173526   3.282   8.771   1.611
24428WAT     H273527   3.144   8.732   1.689
24429WAT      O73528   4.643   4.219   1.901
24429WAT     H173529   4.550   4.210   1.936
24429WAT     H273530   4.641   4.255   1.808
24430WAT      O73531   2.083   7.802   1.986
24430WAT     H173532   2.067   7.740   2.062
24430WAT     H273533   1.999   7.809   1.931
24431WAT      O73534   2.164   8.201   0.692
24431WAT     H173535   2.201   8.288   0.659
24431WAT     H273536   2.099   8.165   0.625
24432WAT      O73537   5.121   0.371   8.092
24432WAT     H173538   5.100   0.428   8.171
24432WAT     H273539   5.213   0.333   8.101
24433WAT      O73540   2.257   7.280   2.165
24433WAT     H173541   2.301   7.199   2.201
24433WAT     H273542   2.160   7.280   2.192
24434WAT      O73543   7.201   5.385   3.724
24434WAT     H173544   7.161   5.315   3.783
24434WAT     H273545   7.146   5.392   3.640
24435WAT      O73546   0.234   5.680   8.830
24435WAT     H173547   0.307   5.663   8.764
24435WAT     H273548   0.208   5.776   8.828
24436WAT      O73549   8.616   9.746   5.839
24436WAT     H173550   8.688   9.685   5.805
24436WAT     H273551   8.534   9.736   5.782
24437WAT      O73552   6.451   1.457   0.906
24437WAT     H173553   6.477   1.361   0.899
24437WAT     H273554   6.477   1.505   0.822
24438WAT      O73555   3.331   1.511   6.380
24438WAT     H173556   3.249   1.455   6.395
24438WAT     H273557   3.306   1.607   6.386
24439WAT      O73558   8.564   9.615   5.186
24439WAT     H173559   8.583   9.688   5.120
24439WAT     H273560   8.637   9.546   5.181
24440WAT      O73561   8.584   8.477   6.210
24440WAT     H173562   8.560   8.573   6.226
24440WAT     H273563   8.592   8.430   6.298
24441WAT      O73564   1.906   4.282   7.794
24441WAT     H173565   1.900   4.378   7.820
24441WAT     H273566   1.997   4.262   7.758
24442WAT      O73567   0.311   9.764   4.130
24442WAT     H173568   0.305   9.726   4.037
24442WAT     H273569   0.375   9.840   4.131
24443WAT      O73570   9.783   5.901   9.745
24443WAT     H173571   9.825   5.950   9.668
24443WAT     H273572   9.783   5.803   9.726
24444WAT      O73573   3.724   1.380   3.385
24444WAT     H173574   3.640   1.374   3.332
24444WAT     H273575   3.731   1.300   3.446
24445WAT      O73576   9.150   7.128   4.993
24445WAT     H173577   9.199   7.075   5.062
24445WAT     H273578   9.190   7.219   4.986
24446WAT      O73579   1.190   0.655   5.133
24446WAT     H173580   1.102   0.610   5.119
24446WAT     H273581   1.240   0.660   5.046
24447WAT      O73582   2.484   7.041   5.157
24447WAT     H173583   2.459   7.121   5.212
24447WAT     H273584   2.531   6.974   5.214
24448WAT      O73585   6.397   3.686   9.009
24448WAT     H173586   6.496   3.693   9.004
24448WAT     H273587   6.362   3.756   9.072
24449WAT      O73588   3.631   6.346   3.145
24449WAT     H173589   3.701   6.293   3.193
24449WAT     H273590   3.664   6.371   3.054
24450WAT      O73591   2.645   0.740   1.811
24450WAT     H173592   2.618   0.793   1.731
24450WAT     H273593   2.618   0.644   1.798
24451WAT      O73594   4.260   4.255   6.541
24451WAT     H173595   4.214   4.344   6.536
24451WAT     H273596   4.342   4.263   6.597
24452WAT      O73597   8.285   1.466   9.485
24452WAT     H173598   8.255   1.425   9.399
24452WAT     H273599   8.279   1.398   9.558
24453WAT      O73600   5.676   5.458   8.446
24453WAT     H173601   5.642   5.475   8.354
24453WAT     H273602   5.715   5.542   8.483
24454WAT      O73603   2.291   3.649   8.433
24454WAT     H173604   2.309   3.550   8.430
24454WAT     H273605   2.340   3.694   8.359
24455WAT      O73606   6.492   3.472   6.716
24455WAT     H173607   6.487   3.384   6.764
24455WAT     H273608   6.400   3.501   6.690
24456WAT      O73609   4.154   7.977   5.671
24456WAT     H173610   4.196   7.890   5.645
24456WAT     H273611   4.073   7.959   5.727
24457WAT      O73612   5.086   5.881   8.808
24457WAT     H173613   4.994   5.888   8.847
24457WAT     H273614   5.145   5.831   8.871
24458WAT      O73615   5.906   1.385   1.837
24458WAT     H173616   5.996   1.367   1.877
24458WAT     H273617   5.916   1.403   1.739
24459WAT      O73618   2.467   2.009   9.009
24459WAT     H173619   2.536   1.991   8.939
24459WAT     H273620   2.454   2.107   9.020
24460WAT      O73621   3.440   8.819   1.678
24460WAT     H173622   3.473   8.753   1.745
24460WAT     H273623   3.516   8.873   1.644
24461WAT      O73624   9.009   2.913   8.462
24461WAT     H173625   9.041   2.982   8.396
24461WAT     H273626   8.975   2.833   8.413
24462WAT      O73627   7.654   9.788   8.848
24462WAT     H173628   7.742   9.753   8.816
24462WAT     H273629   7.612   9.723   8.911
24463WAT      O73630   8.710   1.014   0.616
24463WAT     H173631   8.746   0.954   0.545
24463WAT     H273632   8.718   1.109   0.588
24464WAT      O73633   5.522   6.372   8.346
24464WAT     H173634   5.468   6.420   8.415
24464WAT     H273635   5.532   6.276   8.372
24465WAT      O73636   3.330   5.000   1.221
24465WAT     H173637   3.361   5.054   1.143
24465WAT     H273638   3.254   4.942   1.193
24466WAT      O73639   3.255   6.585   1.613
24466WAT     H173640   3.158   6.589   1.590
24466WAT     H273641   3.307   6.642   1.550
24467WAT      O73642   5.846   3.982   0.616
24467WAT     H173643   5.945   3.992   0.605
24467WAT     H273644   5.827   3.910   0.684
24468WAT      O73645   4.417   0.740   6.327
24468WAT     H173646   4.393   0.688   6.409
24468WAT     H273647   4.451   0.830   6.353
24469WAT      O73648   0.021   2.628   8.565
24469WAT     H173649  -0.000   2.657   8.471
24469WAT     H273650  -0.064   2.615   8.616
24470WAT      O73651   7.051   7.752   3.991
24470WAT     H173652   7.093   7.667   3.960
24470WAT     H273653   6.960   7.760   3.952
24471WAT      O73654   7.927   8.061   2.769
24471WAT     H173655   7.957   8.101   2.856
24471WAT     H273656   7.956   7.966   2.764
24472WAT      O73657   1.761   3.459   0.373
24472WAT     H173658   1.828   3.446   0.445
24472WAT     H273659   1.769   3.386   0.305
24473WAT      O73660   6.962   3.693   8.900
24473WAT     H173661   6.963   3.793   8.889
24473WAT     H273662   7.047   3.664   8.943
24474WAT      O73663   5.086   8.204   3.156
24474WAT     H173664   5.052   8.297   3.169
24474WAT     H273665   5.169   8.206   3.101
24475WAT      O73666   8.995   9.519   8.022
24475WAT     H173667   8.922   9.545   8.087
24475WAT     H273668   9.067   9.470   8.071
24476WAT      O73669   0.011   1.933   0.048
24476WAT     H173670   0.005   1.918  -0.051
24476WAT     H273671   0.089   1.992   0.068
24477WAT      O73672   9.411   4.643   9.274
24477WAT     H173673   9.411   4.597   9.185
24477WAT     H273674   9.325   4.690   9.288
24478WAT      O73675   2.830   9.108   6.014
24478WAT     H173676   2.823   9.206   5.997
24478WAT     H273677   2.870   9.062   5.934
24479WAT      O73678   5.703   0.571   4.832
24479WAT     H173679   5.656   0.520   4.760
24479WAT     H273680   5.745   0.507   4.896
24480WAT      O73681   0.118   1.892   7.962
24480WAT     H173682   0.060   1.868   7.884
24480WAT     H273683   0.132   1.992   7.963
24481WAT      O73684   8.687   3.593   9.564
24481WAT     H173685   8.642   3.591   9.475
24481WAT     H273686   8.784   3.613   9.552
24482WAT      O73687   3.825   5.181   7.289
24482WAT     H173688   3.756   5.124   7.246
24482WAT     H273689   3.874   5.233   7.219
24483WAT      O73690   0.718   2.351   5.560
24483WAT     H173691   0.634   2.347   5.614
24483WAT     H273692   0.710   2.287   5.483
24484WAT      O73693   6.878   2.224   4.033
24484WAT     H173694   6.804   2.279   3.995
24484WAT     H273695   6.842   2.136   4.063
24485WAT      O73696   8.595   9.441   3.008
24485WAT     H173697   8.522   9.492   2.962
24485WAT     H273698   8.683   9.467   2.969
24486WAT      O73699   1.193   0.439   4.207
24486WAT     H173700   1.134   0.358   4.203
24486WAT     H273701   1.275   0.419   4.261
24487WAT      O73702   9.106   2.768   9.325
24487WAT     H173703   9.049   2.712   9.384
24487WAT     H273704   9.171   2.710   9.277
24488WAT      O73705   3.349   5.602   4.585
24488WAT     H173706   3.330   5.626   4.680
24488WAT     H273707   3.409   5.671   4.544
24489WAT      O73708   5.049   8.066   3.741
24489WAT     H173709   4.964   8.018   3.764
24489WAT     H273710   5.080   8.036   3.651
24490WAT      O73711   6.285   1.136   0.798
24490WAT     H173712   6.364   1.115   0.856
24490WAT     H273713   6.310   1.205   0.730
24491WAT      O73714   9.254   7.848   4.935
24491WAT     H173715   9.285   7.943   4.936
24491WAT     H273716   9.321   7.790   4.980
24492WAT      O73717   1.413   2.863   3.154
24492WAT     H173718   1.512   2.866   3.167
24492WAT     H273719   1.381   2.952   3.122
24493WAT      O73720   8.895   5.398   4.303
24493WAT     H173721   8.905   5.327   4.234
24493WAT     H273722   8.818   5.375   4.362
24494WAT      O73723   4.862   6.856   6.615
24494WAT     H173724   4.822   6.788   6.554
24494WAT     H273725   4.856   6.946   6.572
24495WAT      O73726   0.012   8.521   7.881
24495WAT     H173727   0.050   8.483   7.965
24495WAT     H273728   0.062   8.604   7.856
24496WAT      O73729   1.884   0.745   3.320
24496WAT     H173730   1.982   0.733   3.338
24496WAT     H273731   1.867   0.743   3.222
24497WAT      O73732   9.310   5.596   3.588
24497WAT     H173733   9.235   5.578   3.525
24497WAT     H273734   9.397   5.572   3.545
24498WAT      O73735   4.440   2.811   7.177
24498WAT     H173736   4.535   2.783   7.184
24498WAT     H273737   4.430   2.905   7.211
24499WAT      O73738   0.898   4.124   5.182
24499WAT     H173739   0.921   4.172   5.267
24499WAT     H273740   0.822   4.060   5.200
24500WAT      O73741   3.440   8.021   3.378
24500WAT     H173742   3.508   8.010   3.306
24500WAT     H273743   3.363   7.961   3.360
24501WAT      O73744   4.150   6.378   7.593
24501WAT     H173745   4.203   6.318   7.533
24501WAT     H273746   4.145   6.469   7.553
24502WAT      O73747   3.975   0.180   9.448
24502WAT     H173748   3.955   0.255   9.511
24502WAT     H273749   3.901   0.171   9.382
24503WAT      O73750   2.938   1.688   3.468
24503WAT     H173751   2.882   1.742   3.405
24503WAT     H273752   2.884   1.664   3.548
24504WAT      O73753   4.623   1.299   1.246
24504WAT     H173754   4.588   1.353   1.170
24504WAT     H273755   4.651   1.359   1.321
24505WAT      O73756   1.321   9.751   3.723
24505WAT     H173757   1.260   9.707   3.789
24505WAT     H273758   1.360   9.833   3.764
24506WAT      O73759   2.142   0.300   4.756
24506WAT     H173760   2.100   0.263   4.673
24506WAT     H273761   2.143   0.230   4.827
24507WAT      O73762   2.083   6.713   6.433
24507WAT     H173763   1.989   6.739   6.409
24507WAT     H273764   2.085   6.617   6.458
24508WAT      O73765   6.668   8.242   3.347
24508WAT     H173766   6.649   8.309   3.276
24508WAT     H273767   6.767   8.236   3.363
24509WAT      O73768   7.291   9.597   7.984
24509WAT     H173769   7.370   9.630   7.933
24509WAT     H273770   7.249   9.674   8.034
24510WAT      O73771   3.384   1.280   1.531
24510WAT     H173772   3.387   1.205   1.598
24510WAT     H273773   3.331   1.251   1.451
24511WAT      O73774   6.463   1.752   1.914
24511WAT     H173775   6.521   1.677   1.882
24511WAT     H273776   6.424   1.799   1.835
24512WAT      O73777   9.576   9.519   4.633
24512WAT     H173778   9.641   9.482   4.566
24512WAT     H273779   9.529   9.598   4.595
24513WAT      O73780   5.055   8.566   1.194
24513WAT     H173781   5.047   8.604   1.101
24513WAT     H273782   5.045   8.639   1.261
24514WAT      O73783   4.917   3.650   5.988
24514WAT     H173784   4.970   3.684   6.065
24514WAT     H273785   4.855   3.722   5.956
24515WAT      O73786   2.674   9.552   1.554
24515WAT     H173787   2.648   9.510   1.468
24515WAT     H273788   2.763   9.517   1.584
24516WAT      O73789   8.381   5.861   7.310
24516WAT     H173790   8.441   5.934   7.343
24516WAT     H273791   8.412   5.773   7.348
24517WAT      O73792   1.718   7.217   4.959
24517WAT     H173793   1.652   7.151   4.995
24517WAT     H273794   1.755   7.183   4.873
24518WAT      O73795   8.850   6.106   3.555
24518WAT     H173796   8.939   6.132   3.518
24518WAT     H273797   8.842   6.141   3.648
24519WAT      O73798   7.746   8.063   3.962
24519WAT     H173799   7.736   8.151   4.009
24519WAT     H273800   7.667   8.048   3.903
24520WAT      O73801   9.284   8.383   0.078
24520WAT     H173802   9.325   8.382   0.169
24520WAT     H273803   9.187   8.407   0.085
24521WAT      O73804   8.135   9.315   2.375
24521WAT     H173805   8.207   9.306   2.444
24521WAT     H273806   8.060   9.371   2.410
24522WAT      O73807   2.996   4.167   1.309
24522WAT     H173808   2.950   4.229   1.246
24522WAT     H273809   3.042   4.220   1.380
24523WAT      O73810   2.014   1.993   9.123
24523WAT     H173811   1.930   1.949   9.153
24523WAT     H273812   2.081   1.991   9.198
24524WAT      O73813   7.443   4.323   6.527
24524WAT     H173814   7.438   4.270   6.611
24524WAT     H273815   7.416   4.266   6.450
24525WAT      O73816   8.183   4.140   4.487
24525WAT     H173817   8.201   4.177   4.578
24525WAT     H273818   8.214   4.206   4.418
24526WAT      O73819   5.756   4.691   0.162
24526WAT     H173820   5.728   4.600   0.195
24526WAT     H273821   5.676   4.738   0.125
24527WAT      O73822   7.028   1.602   0.423
24527WAT     H173823   7.101   1.657   0.384
24527WAT     H273824   7.067   1.518   0.462
24528WAT      O73825   8.012   4.627   6.529
24528WAT     H173826   7.981   4.544   6.575
24528WAT     H273827   8.047   4.604   6.439
24529WAT      O73828   0.637   0.301   3.692
24529WAT     H173829   0.725   0.267   3.725
24529WAT     H273830   0.578   0.224   3.667
24530WAT      O73831   5.343   7.866   0.552
24530WAT     H173832   5.267   7.829   0.605
24530WAT     H273833   5.319   7.868   0.455
24531WAT      O73834   8.915   6.129   7.082
24531WAT     H173835   8.993   6.145   7.022
24531WAT     H273836   8.897   6.031   7.089
24532WAT      O73837   4.773   6.665   8.044
24532WAT     H173838   4.818   6.752   8.061
24532WAT     H273839   4.690   6.679   7.989
24533WAT      O73840   5.829   4.261   9.532
24533WAT     H173841   5.903   4.227   9.474
24533WAT     H273842   5.825   4.207   9.616
24534WAT      O73843   2.685   9.377   7.062
24534WAT     H173844   2.769   9.380   7.008
24534WAT     H273845   2.661   9.282   7.082
24535WAT      O73846   5.173   6.383   2.420
24535WAT     H173847   5.163   6.412   2.515
24535WAT     H273848   5.193   6.285   2.417
24536WAT      O73849   8.151   2.579   5.571
24536WAT     H173850   8.105   2.651   5.518
24536WAT     H273851   8.192   2.620   5.652
24537WAT      O73852   0.789   3.796   1.844
24537WAT     H173853   0.798   3.893   1.865
24537WAT     H273854   0.863   3.745   1.888
24538WAT      O73855   9.304   3.578   1.172
24538WAT     H173856   9.294   3.594   1.073
24538WAT     H273857   9.256   3.494   1.197
24539WAT      O73858   5.026   3.860   2.771
24539WAT     H173859   5.102   3.804   2.739
24539WAT     H273860   4.997   3.922   2.698
24540WAT      O73861   8.108   5.005   4.562
24540WAT     H173862   8.092   5.102   4.542
24540WAT     H273863   8.147   4.961   4.481
24541WAT      O73864   1.441   1.072   2.395
24541WAT     H173865   1.357   1.088   2.447
24541WAT     H273866   1.426   1.097   2.300
24542WAT      O73867   3.535   6.826   3.375
24542WAT     H173868   3.473   6.797   3.302
24542WAT     H273869   3.621   6.857   3.334
24543WAT      O73870   4.675   0.586   1.247
24543WAT     H173871   4.711   0.512   1.190
24543WAT     H273872   4.582   0.562   1.277
24544WAT      O73873   9.811   8.912   1.502
24544WAT     H173874   9.733   8.856   1.530
24544WAT     H273875   9.896   8.868   1.529
24545WAT      O73876   5.607   0.440   4.620
24545WAT     H173877   5.637   0.502   4.548
24545WAT     H273878   5.601   0.347   4.584
24546WAT      O73879   3.084   1.698   5.175
24546WAT     H173880   3.166   1.736   5.130
24546WAT     H273881   3.019   1.669   5.105
24547WAT      O73882   1.865   7.642   7.222
24547WAT     H173883   1.829   7.734   7.209
24547WAT     H273884   1.923   7.617   7.145
24548WAT      O73885   2.813   1.128   5.040
24548WAT     H173886   2.844   1.080   5.122
24548WAT     H273887   2.814   1.066   4.962
24549WAT      O73888   8.279   6.009   5.451
24549WAT     H173889   8.235   5.988   5.538
24549WAT     H273890   8.378   6.011   5.462
24550WAT      O73891   6.781   4.258   8.663
24550WAT     H173892   6.815   4.255   8.757
24550WAT     H273893   6.818   4.338   8.617
24551WAT      O73894   1.542   8.665   4.203
24551WAT     H173895   1.568   8.610   4.282
24551WAT     H273896   1.484   8.611   4.143
24552WAT      O73897   9.888   4.488   6.003
24552WAT     H173898   9.806   4.440   5.973
24552WAT     H273899   9.967   4.455   5.951
24553WAT      O73900   6.370   1.239   2.936
24553WAT     H173901   6.426   1.177   2.882
24553WAT     H273902   6.281   1.251   2.891
24554WAT      O73903   1.736   9.686   2.427
24554WAT     H173904   1.772   9.779   2.422
24554WAT     H273905   1.675   9.671   2.349
24555WAT      O73906   8.267   0.032   1.748
24555WAT     H173907   8.201  -0.004   1.815
24555WAT     H273908   8.353  -0.018   1.757
24556WAT      O73909   0.138   3.910   4.480
24556WAT     H173910   0.054   3.959   4.457
24556WAT     H273911   0.205   3.923   4.407
24557WAT      O73912   6.926   1.777   7.129
24557WAT     H173913   6.912   1.819   7.219
24557WAT     H273914   6.850   1.801   7.068
24558WAT      O73915   1.625   9.183   2.318
24558WAT     H173916   1.554   9.250   2.299
24558WAT     H273917   1.623   9.112   2.247
24559WAT      O73918   1.014   2.884   5.481
24559WAT     H173919   1.002   2.915   5.576
24559WAT     H273920   1.053   2.957   5.426
24560WAT      O73921   6.624   9.631   5.823
24560WAT     H173922   6.535   9.648   5.864
24560WAT     H273923   6.632   9.683   5.737
24561WAT      O73924   9.198   0.333   3.154
24561WAT     H173925   9.260   0.334   3.232
24561WAT     H273926   9.143   0.417   3.154
24562WAT      O73927   0.279   1.514   4.710
24562WAT     H173928   0.315   1.423   4.688
24562WAT     H273929   0.304   1.578   4.637
24563WAT      O73930   5.493   1.774   2.863
24563WAT     H173931   5.417   1.740   2.809
24563WAT     H273932   5.536   1.698   2.911
24564WAT      O73933   3.368   5.165   8.828
24564WAT     H173934   3.422   5.081   8.834
24564WAT     H273935   3.284   5.146   8.777
24565WAT      O73936   4.286   1.082   9.287
24565WAT     H173937   4.313   1.132   9.205
24565WAT     H273938   4.255   0.990   9.261
24566WAT      O73939   2.769   0.801   4.754
24566WAT     H173940   2.849   0.860   4.762
24566WAT     H273941   2.697   0.848   4.703
24567WAT      O73942   4.203   1.598   9.829
24567WAT     H173943   4.185   1.542   9.748
24567WAT     H273944   4.181   1.546   9.912
24568WAT      O73945   6.307   2.358   0.842
24568WAT     H173946   6.351   2.292   0.781
24568WAT     H273947   6.343   2.449   0.824
24569WAT      O73948   0.635   8.317   6.551
24569WAT     H173949   0.683   8.322   6.638
24569WAT     H273950   0.612   8.410   6.521
24570WAT      O73951   6.057   1.205   6.970
24570WAT     H173952   6.131   1.254   6.926
24570WAT     H273953   6.077   1.196   7.068
24571WAT      O73954   1.204   0.590   1.020
24571WAT     H173955   1.237   0.499   1.043
24571WAT     H273956   1.279   0.655   1.023
24572WAT      O73957   5.717   0.669   3.516
24572WAT     H173958   5.742   0.674   3.419
24572WAT     H273959   5.618   0.661   3.525
24573WAT      O73960   7.292   5.357   9.394
24573WAT     H173961   7.346   5.343   9.312
24573WAT     H273962   7.199   5.386   9.368
24574WAT      O73963   9.238   5.091   0.485
24574WAT     H173964   9.280   5.084   0.575
24574WAT     H273965   9.310   5.090   0.415
24575WAT      O73966   7.354   1.916   5.987
24575WAT     H173967   7.257   1.921   6.011
24575WAT     H273968   7.409   1.945   6.065
24576WAT      O73969   6.570   0.632   9.346
24576WAT     H173970   6.531   0.625   9.254
24576WAT     H273971   6.519   0.700   9.399
24577WAT      O73972   7.092   7.901   1.641
24577WAT     H173973   7.178   7.850   1.644
24577WAT     H273974   7.016   7.839   1.661
24578WAT      O73975   5.141   2.698   0.221
24578WAT     H173976   5.181   2.644   0.147
24578WAT     H273977   5.072   2.760   0.183
24579WAT      O73978   0.172   9.068   2.124
24579WAT     H173979   0.102   9.073   2.196
24579WAT     H273980   0.136   9.020   2.045
24580WAT      O73981   5.217   5.955   1.719
24580WAT     H173982   5.234   5.957   1.620
24580WAT     H273983   5.182   5.865   1.744
24581WAT      O73984   1.561   4.004   5.725
24581WAT     H173985   1.470   4.030   5.693
24581WAT     H273986   1.554   3.935   5.797
24582WAT      O73987   6.589   7.518   7.672
24582WAT     H173988   6.519   7.588   7.679
24582WAT     H273989   6.562   7.438   7.726
24583WAT      O73990   1.982   2.644   7.590
24583WAT     H173991   1.886   2.635   7.614
24583WAT     H273992   2.027   2.708   7.652
24584WAT      O73993   7.077   7.934   4.508
24584WAT     H173994   7.025   7.848   4.507
24584WAT     H273995   7.049   7.990   4.430
24585WAT      O73996   1.161   1.504   8.684
24585WAT     H173997   1.091   1.448   8.639
24585WAT     H273998   1.155   1.491   8.783
24586WAT      O73999   8.165   9.651   1.329
24586WAT     H174000   8.214   9.566   1.352
24586WAT     H274001   8.156   9.707   1.411
24587WAT      O74002   5.287   5.715   3.870
24587WAT     H174003   5.242   5.683   3.787
24587WAT     H274004   5.226   5.702   3.948
24588WAT      O74005   4.904   5.649   3.607
24588WAT     H174006   4.929   5.741   3.636
24588WAT     H274007   4.862   5.652   3.517
24589WAT      O74008   5.415   4.252   5.514
24589WAT     H174009   5.398   4.284   5.421
24589WAT     H274010   5.434   4.330   5.573
24590WAT      O74011   5.606   0.209   4.449
24590WAT     H174012   5.699   0.236   4.425
24590WAT     H274013   5.605   0.112   4.476
24591WAT      O74014   8.183   2.717   4.988
24591WAT     H174015   8.095   2.761   5.004
24591WAT     H274016   8.237   2.773   4.925
24592WAT      O74017   0.101   5.027   8.620
24592WAT     H174018   0.087   4.930   8.640
24592WAT     H274019   0.108   5.041   8.521
24593WAT      O74020   0.834   4.361   4.258
24593WAT     H174021   0.830   4.352   4.358
24593WAT     H274022   0.914   4.415   4.232
24594WAT      O74023   3.517   1.958   1.776
24594WAT     H174024   3.514   1.987   1.681
24594WAT     H274025   3.427   1.969   1.818
24595WAT      O74026   0.113   0.524   8.765
24595WAT     H174027   0.153   0.594   8.826
24595WAT     H274028   0.099   0.563   8.674
24596WAT      O74029   8.540   7.462   0.160
24596WAT     H174030   8.595   7.418   0.089
24596WAT     H274031   8.467   7.515   0.118
24597WAT      O74032   7.381   4.304   2.636
24597WAT     H174033   7.451   4.236   2.658
24597WAT     H274034   7.320   4.267   2.565
24598WAT      O74035   0.481   9.543   4.906
24598WAT     H174036   0.443   9.531   4.998
24598WAT     H274037   0.580   9.556   4.912
24599WAT      O74038   7.965   2.766   1.415
24599WAT     H174039   7.905   2.818   1.475
24599WAT     H274040   7.931   2.672   1.406
24600WAT      O74041   8.333   7.668   8.719
24600WAT     H174042   8.289   7.608   8.786
24600WAT     H274043   8.275   7.677   8.638
24601WAT      O74044   9.702   8.869   7.902
24601WAT     H174045   9.674   8.907   7.814
24601WAT     H274046   9.680   8.771   7.904
24602WAT      O74047   1.215   1.346   2.373
24602WAT     H174048   1.132   1.299   2.342
24602WAT     H274049   1.259   1.391   2.295
24603WAT      O74050   6.625   1.047   2.292
24603WAT     H174051   6.571   1.094   2.362
24603WAT     H274052   6.720   1.077   2.298
24604WAT      O74053   5.281   6.290   4.547
24604WAT     H174054   5.355   6.333   4.496
24604WAT     H274055   5.196   6.295   4.493
24605WAT      O74056   6.555   0.123   7.985
24605WAT     H174057   6.484   0.132   7.915
24605WAT     H274058   6.633   0.181   7.960
24606WAT      O74059   1.622   3.144   5.974
24606WAT     H174060   1.675   3.060   5.983
24606WAT     H274061   1.634   3.181   5.881
24607WAT      O74062   0.502   2.746   6.207
24607WAT     H174063   0.423   2.697   6.170
24607WAT     H274064   0.491   2.757   6.306
24608WAT      O74065   2.937   0.527   3.225
24608WAT     H174066   2.888   0.531   3.138
24608WAT     H274067   2.874   0.493   3.296
24609WAT      O74068   6.206   2.194   6.664
24609WAT     H174069   6.141   2.210   6.739
24609WAT     H274070   6.293   2.163   6.703
24610WAT      O74071   7.370   9.289   9.311
24610WAT     H174072   7.314   9.299   9.394
24610WAT     H274073   7.465   9.273   9.336
24611WAT      O74074   3.248   2.026   5.779
24611WAT     H174075   3.288   1.985   5.861
24611WAT     H274076   3.154   2.054   5.798
24612WAT      O74077   9.517   7.433   7.384
24612WAT     H174078   9.546   7.488   7.305
24612WAT     H274079   9.497   7.340   7.355
24613WAT      O74080   3.952   6.916   0.315
24613WAT     H174081   3.872   6.901   0.374
24613WAT     H274082   4.015   6.980   0.359
24614WAT      O74083   6.080   0.536   1.549
24614WAT     H174084   6.067   0.589   1.466
24614WAT     H274085   6.136   0.588   1.614
24615WAT      O74086   8.179   7.327   8.330
24615WAT     H174087   8.095   7.327   8.276
24615WAT     H274088   8.246   7.388   8.288
24616WAT      O74089   6.240   6.866   3.134
24616WAT     H174090   6.157   6.918   3.114
24616WAT     H274091   6.243   6.843   3.232
24617WAT      O74092   9.667   1.033   5.781
24617WAT     H174093   9.604   0.984   5.841
24617WAT     H274094   9.759   0.995   5.790
24618WAT      O74095   7.009   2.522   0.784
24618WAT     H174096   7.023   2.512   0.685
24618WAT     H274097   6.915   2.552   0.801
24619WAT      O74098   7.328   0.547   8.271
24619WAT     H174099   7.238   0.574   8.304
24619WAT     H274100   7.318   0.485   8.193
24620WAT      O74101   0.951   8.168   3.720
24620WAT     H174102   0.925   8.089   3.776
24620WAT     H274103   0.876   8.192   3.660
24621WAT      O74104   0.967   0.516   7.602
24621WAT     H174105   0.944   0.542   7.508
24621WAT     H274106   1.012   0.427   7.601
24622WAT      O74107   4.952   3.325   2.038
24622WAT     H174108   5.016   3.274   1.981
24622WAT     H274109   4.911   3.263   2.105
24623WAT      O74110   1.728   2.615   0.303
24623WAT     H174111   1.806   2.602   0.364
24623WAT     H274112   1.761   2.645   0.213
24624WAT      O74113   3.609   7.435   7.559
24624WAT     H174114   3.615   7.457   7.657
24624WAT     H274115   3.691   7.467   7.512
24625WAT      O74116   1.304   1.332   4.860
24625WAT     H174117   1.389   1.377   4.831
24625WAT     H274118   1.327   1.245   4.904
24626WAT      O74119   2.241   5.645   1.833
24626WAT     H174120   2.249   5.678   1.927
24626WAT     H274121   2.304   5.569   1.818
24627WAT      O74122   4.651   7.908   0.801
24627WAT     H174123   4.601   7.854   0.868
24627WAT     H274124   4.650   7.863   0.712
24628WAT      O74125   3.986   6.670   0.846
24628WAT     H174126   3.975   6.735   0.770
24628WAT     H274127   4.062   6.699   0.903
24629WAT      O74128   9.284   0.605   5.193
24629WAT     H174129   9.316   0.597   5.287
24629WAT     H274130   9.307   0.696   5.158
24630WAT      O74131   0.392   4.961   2.601
24630WAT     H174132   0.379   4.992   2.507
24630WAT     H274133   0.480   4.915   2.609
24631WAT      O74134   5.310   4.619   7.495
24631WAT     H174135   5.348   4.692   7.552
24631WAT     H274136   5.331   4.530   7.535
24632WAT      O74137   4.170   1.580   4.577
24632WAT     H174138   4.193   1.678   4.577
24632WAT     H274139   4.254   1.526   4.584
24633WAT      O74140   0.197   5.176   2.293
24633WAT     H174141   0.179   5.144   2.386
24633WAT     H274142   0.221   5.273   2.295
24634WAT      O74143   9.819   4.450   9.087
24634WAT     H174144   9.748   4.415   9.025
24634WAT     H274145   9.822   4.549   9.081
24635WAT      O74146   0.707   7.420   5.941
24635WAT     H174147   0.657   7.370   5.870
24635WAT     H274148   0.801   7.437   5.909
24636WAT      O74149   2.435   4.855   6.907
24636WAT     H174150   2.460   4.829   6.814
24636WAT     H274151   2.373   4.933   6.905
24637WAT      O74152   7.042   8.666   2.653
24637WAT     H174153   6.973   8.668   2.581
24637WAT     H274154   7.133   8.673   2.612
24638WAT      O74155   8.027   0.352   8.779
24638WAT     H174156   8.059   0.431   8.831
24638WAT     H274157   7.954   0.380   8.716
24639WAT      O74158   4.515   2.079   3.264
24639WAT     H174159   4.483   1.984   3.263
24639WAT     H274160   4.599   2.086   3.318
24640WAT      O74161   3.235   8.442   8.825
24640WAT     H174162   3.210   8.518   8.764
24640WAT     H274163   3.166   8.433   8.896
24641WAT      O74164   4.171   3.223   6.361
24641WAT     H174165   4.227   3.171   6.426
24641WAT     H274166   4.104   3.161   6.319
24642WAT      O74167   6.251   8.985   1.407
24642WAT     H174168   6.252   9.083   1.388
24642WAT     H274169   6.240   8.935   1.321
24643WAT      O74170   0.095   9.614   4.202
24643WAT     H174171   0.034   9.649   4.130
24643WAT     H274172   0.183   9.660   4.196
24644WAT      O74173   6.259   1.824   3.776
24644WAT     H174174   6.291   1.729   3.772
24644WAT     H274175   6.186   1.838   3.710
24645WAT      O74176   7.045   9.438   8.896
24645WAT     H174177   7.082   9.347   8.913
24645WAT     H274178   7.104   9.487   8.832
24646WAT      O74179   0.405   1.522   3.540
24646WAT     H174180   0.485   1.519   3.599
24646WAT     H274181   0.349   1.602   3.564
24647WAT      O74182   2.930   5.885   9.298
24647WAT     H174183   2.933   5.983   9.315
24647WAT     H274184   2.872   5.841   9.367
24648WAT      O74185   5.081   2.375   1.871
24648WAT     H174186   5.041   2.386   1.780
24648WAT     H274187   5.050   2.288   1.911
24649WAT      O74188   8.883   8.554   8.949
24649WAT     H174189   8.923   8.594   9.031
24649WAT     H274190   8.927   8.467   8.929
24650WAT      O74191   6.759   0.357   4.281
24650WAT     H174192   6.716   0.377   4.369
24650WAT     H274193   6.692   0.370   4.208
24651WAT      O74194   5.459   3.653   1.221
24651WAT     H174195   5.402   3.603   1.286
24651WAT     H274196   5.408   3.730   1.182
24652WAT      O74197   9.164   5.908   2.718
24652WAT     H174198   9.254   5.952   2.724
24652WAT     H274199   9.170   5.815   2.752
24653WAT      O74200   5.797   2.951   7.648
24653WAT     H174201   5.731   2.878   7.665
24653WAT     H274202   5.876   2.940   7.708
24654WAT      O74203   5.150   0.404   5.385
24654WAT     H174204   5.086   0.352   5.329
24654WAT     H274205   5.139   0.502   5.366
24655WAT      O74206   2.095   7.297   6.442
24655WAT     H174207   2.007   7.331   6.473
24655WAT     H274208   2.116   7.211   6.488
24656WAT      O74209   3.758   5.054   1.248
24656WAT     H174210   3.721   4.969   1.210
24656WAT     H274211   3.684   5.106   1.290
24657WAT      O74212   2.885   1.263   4.289
24657WAT     H174213   2.896   1.175   4.241
24657WAT     H274214   2.945   1.265   4.368
24658WAT      O74215   7.321   5.100   0.329
24658WAT     H174216   7.381   5.033   0.286
24658WAT     H274217   7.226   5.070   0.319
24659WAT      O74218   6.056   5.819   2.893
24659WAT     H174219   6.129   5.866   2.943
24659WAT     H274220   6.094   5.746   2.837
24660WAT      O74221   5.362   0.587   4.858
24660WAT     H174222   5.382   0.684   4.849
24660WAT     H274223   5.413   0.549   4.936
24661WAT      O74224   5.657   4.393   2.496
24661WAT     H174225   5.720   4.411   2.572
24661WAT     H274226   5.573   4.446   2.509
24662WAT      O74227   5.067   0.706   0.338
24662WAT     H174228   5.047   0.636   0.269
24662WAT     H274229   5.054   0.797   0.299
24663WAT      O74230   0.843   8.547   7.054
24663WAT     H174231   0.832   8.645   7.069
24663WAT     H274232   0.925   8.515   7.101
24664WAT      O74233   7.389   2.959   1.461
24664WAT     H174234   7.319   2.919   1.521
24664WAT     H274235   7.431   3.037   1.508
24665WAT      O74236   8.651   1.379   0.347
24665WAT     H174237   8.574   1.428   0.306
24665WAT     H274238   8.691   1.317   0.279
24666WAT      O74239   9.271   3.044   0.310
24666WAT     H174240   9.277   3.141   0.334
24666WAT     H274241   9.215   3.033   0.228
24667WAT      O74242   4.035   8.963   2.418
24667WAT     H174243   4.037   8.863   2.423
24667WAT     H274244   4.011   8.991   2.325
24668WAT      O74245   5.335   3.076   5.774
24668WAT     H174246   5.312   3.064   5.870
24668WAT     H274247   5.399   3.153   5.764
24669WAT      O74248   0.198   8.223   0.178
24669WAT     H174249   0.121   8.262   0.128
24669WAT     H274250   0.207   8.126   0.154
24670WAT      O74251   3.544   0.018   9.049
24670WAT     H174252   3.584  -0.006   9.138
24670WAT     H274253   3.502   0.108   9.055
24671WAT      O74254   4.653   1.456   8.165
24671WAT     H174255   4.619   1.472   8.072
24671WAT     H274256   4.752   1.439   8.162
24672WAT      O74257   1.972   2.289   5.322
24672WAT     H174258   2.028   2.217   5.363
24672WAT     H274259   1.876   2.276   5.347
24673WAT      O74260   8.024   7.869   9.429
24673WAT     H174261   8.122   7.870   9.410
24673WAT     H274262   7.976   7.829   9.351
24674WAT      O74263   7.168   0.713   6.000
24674WAT     H174264   7.113   0.666   5.932
24674WAT     H274265   7.123   0.709   6.089
24675WAT      O74266   7.768   8.132   7.246
24675WAT     H174267   7.832   8.127   7.323
24675WAT     H274268   7.809   8.184   7.171
24676WAT      O74269   9.298   6.658   8.472
24676WAT     H174270   9.267   6.735   8.528
24676WAT     H274271   9.396   6.642   8.488
24677WAT      O74272   1.461   5.373   3.608
24677WAT     H174273   1.466   5.276   3.584
24677WAT     H274274   1.482   5.383   3.706
24678WAT      O74275   9.621   2.334   6.538
24678WAT     H174276   9.629   2.279   6.622
24678WAT     H274277   9.533   2.315   6.494
24679WAT      O74278   8.861   1.121   5.506
24679WAT     H174279   8.833   1.210   5.469
24679WAT     H274280   8.854   1.052   5.434
24680WAT      O74281   1.205   2.586   0.271
24680WAT     H174282   1.283   2.624   0.221
24680WAT     H274283   1.147   2.661   0.303
24681WAT      O74284   4.982   5.420   8.580
24681WAT     H174285   4.990   5.515   8.612
24681WAT     H274286   4.961   5.419   8.483
24682WAT      O74287   5.235   4.377   6.438
24682WAT     H174288   5.180   4.332   6.508
24682WAT     H274289   5.263   4.467   6.471
24683WAT      O74290   2.858   2.707   4.477
24683WAT     H174291   2.843   2.669   4.386
24683WAT     H274292   2.771   2.736   4.516
24684WAT      O74293   0.604   8.500   4.706
24684WAT     H174294   0.541   8.496   4.783
24684WAT     H274295   0.553   8.503   4.621
24685WAT      O74296   6.645   7.699   0.356
24685WAT     H174297   6.697   7.620   0.324
24685WAT     H274298   6.684   7.733   0.442
24686WAT      O74299   8.386   6.568   0.947
24686WAT     H174300   8.324   6.506   0.995
24686WAT     H274301   8.374   6.661   0.983
24687WAT      O74302   6.752   5.506   1.102
24687WAT     H174303   6.706   5.487   1.188
24687WAT     H274304   6.840   5.458   1.100
24688WAT      O74305   5.640   9.032   9.788
24688WAT     H174306   5.622   9.121   9.830
24688WAT     H274307   5.738   9.021   9.774
24689WAT      O74308   4.902   6.599   0.250
24689WAT     H174309   4.825   6.648   0.292
24689WAT     H274310   4.930   6.524   0.310
24690WAT      O74311   1.828   2.081   1.180
24690WAT     H174312   1.775   2.084   1.095
24690WAT     H274313   1.918   2.122   1.163
24691WAT      O74314   9.279   0.068   1.170
24691WAT     H174315   9.256   0.006   1.096
24691WAT     H274316   9.314   0.016   1.248
24692WAT      O74317   9.749   3.386   6.351
24692WAT     H174318   9.691   3.337   6.416
24692WAT     H274319   9.845   3.367   6.371
24693WAT      O74320   5.384   1.212   7.750
24693WAT     H174321   5.477   1.178   7.737
24693WAT     H274322   5.351   1.252   7.664
24694WAT      O74323   4.443   3.964   7.414
24694WAT     H174324   4.380   3.959   7.492
24694WAT     H274325   4.478   3.873   7.395
24695WAT      O74326   2.429   8.852   0.545
24695WAT     H174327   2.409   8.792   0.467
24695WAT     H274328   2.485   8.929   0.515
24696WAT      O74329   3.556   0.883   8.953
24696WAT     H174330   3.523   0.824   9.027
24696WAT     H274331   3.633   0.839   8.908
24697WAT      O74332   8.850   4.311   2.791
24697WAT     H174333   8.924   4.346   2.849
24697WAT     H274334   8.890   4.271   2.708
24698WAT      O74335   5.550   4.771   0.019
24698WAT     H174336   5.538   4.842  -0.051
24698WAT     H274337   5.463   4.754   0.065
24699WAT      O74338   9.727   7.843   8.685
24699WAT     H174339   9.730   7.752   8.643
24699WAT     H274340   9.814   7.890   8.668
24700WAT      O74341   7.631   4.007   3.078
24700WAT     H174342   7.693   3.947   3.027
24700WAT     H274343   7.594   3.957   3.157
24701WAT      O74344   3.754   6.776   4.994
24701WAT     H174345   3.804   6.767   4.908
24701WAT     H274346   3.779   6.863   5.037
24702WAT      O74347   9.759   6.989   3.700
24702WAT     H174348   9.718   7.012   3.789
24702WAT     H274349   9.725   6.900   3.670
24703WAT      O74350   9.570   0.328   8.602
24703WAT     H174351   9.561   0.389   8.682
24703WAT     H274352   9.664   0.331   8.569
24704WAT      O74353   2.038   9.549   1.024
24704WAT     H174354   2.064   9.461   1.065
24704WAT     H274355   2.047   9.543   0.925
24705WAT      O74356   2.985   0.480   0.536
24705WAT     H174357   2.986   0.404   0.471
24705WAT     H274358   3.051   0.464   0.609
24706WAT      O74359   3.688   0.813   4.793
24706WAT     H174360   3.660   0.718   4.812
24706WAT     H274361   3.678   0.868   4.876
24707WAT      O74362   6.973   0.662   9.867
24707WAT     H174363   6.932   0.589   9.813
24707WAT     H274364   7.073   0.659   9.857
24708WAT      O74365   2.252   4.122   8.032
24708WAT     H174366   2.276   4.197   7.970
24708WAT     H274367   2.181   4.152   8.095
24709WAT      O74368   3.956   8.033   6.776
24709WAT     H174369   3.998   8.007   6.689
24709WAT     H274370   3.962   8.132   6.787
24710WAT      O74371   2.804   4.209   9.385
24710WAT     H174372   2.869   4.171   9.319
24710WAT     H274373   2.775   4.136   9.448
24711WAT      O74374   7.759   5.292   4.154
24711WAT     H174375   7.854   5.260   4.156
24711WAT     H274376   7.713   5.255   4.073
24712WAT      O74377   8.766   5.347   7.939
24712WAT     H174378   8.701   5.381   8.006
24712WAT     H274379   8.802   5.424   7.886
24713WAT      O74380   1.458   7.873   4.460
24713WAT     H174381   1.409   7.787   4.452
24713WAT     H274382   1.489   7.886   4.554
24714WAT      O74383   2.692   8.825   5.820
24714WAT     H174384   2.777   8.842   5.869
24714WAT     H274385   2.625   8.896   5.843
24715WAT      O74386   3.687   4.467   9.085
24715WAT     H174387   3.603   4.469   9.139
24715WAT     H274388   3.665   4.443   8.990
24716WAT      O74389   9.508   1.126   0.617
24716WAT     H174390   9.429   1.165   0.663
24716WAT     H274391   9.482   1.041   0.571
24717WAT      O74392   1.381   8.971   1.075
24717WAT     H174393   1.457   8.909   1.095
24717WAT     H274394   1.415   9.064   1.065
24718WAT      O74395   8.919   7.855   6.707
24718WAT     H174396   8.863   7.791   6.759
24718WAT     H274397   8.980   7.805   6.646
24719WAT      O74398   7.278   1.219   3.568
24719WAT     H174399   7.348   1.147   3.565
24719WAT     H274400   7.323   1.308   3.564
24720WAT      O74401   3.003   0.282   8.556
24720WAT     H174402   3.075   0.228   8.513
24720WAT     H274403   2.942   0.221   8.608
24721WAT      O74404   9.797   4.317   2.887
24721WAT     H174405   9.710   4.337   2.933
24721WAT     H274406   9.781   4.308   2.789
24722WAT      O74407   9.146   4.540   5.551
24722WAT     H174408   9.083   4.488   5.492
24722WAT     H274409   9.211   4.590   5.494
24723WAT      O74410   4.864   6.446   4.908
24723WAT     H174411   4.885   6.351   4.930
24723WAT     H274412   4.770   6.466   4.937
24724WAT      O74413   6.571   0.770   3.762
24724WAT     H174414   6.646   0.724   3.810
24724WAT     H274415   6.588   0.766   3.664
24725WAT      O74416   6.467   7.613   4.699
24725WAT     H174417   6.556   7.652   4.722
24725WAT     H274418   6.438   7.551   4.772
24726WAT      O74419   9.601   8.923   0.135
24726WAT     H174420   9.637   8.916   0.228
24726WAT     H274421   9.641   9.003   0.089
24727WAT      O74422   8.929   4.721   2.172
24727WAT     H174423   8.954   4.800   2.116
24727WAT     H274424   8.924   4.748   2.268
24728WAT      O74425   4.367   5.449   9.818
24728WAT     H174426   4.347   5.375   9.882
24728WAT     H274427   4.282   5.493   9.789
24729WAT      O74428   4.128   2.989   4.080
24729WAT     H174429   4.088   3.069   4.126
24729WAT     H274430   4.106   2.993   3.982
24730WAT      O74431   7.368   8.930   1.406
24730WAT     H174432   7.307   8.917   1.328
24730WAT     H274433   7.434   9.002   1.386
24731WAT      O74434   2.718   5.125   8.846
24731WAT     H174435   2.705   5.201   8.783
24731WAT     H274436   2.649   5.055   8.830
24732WAT      O74437   1.705   5.398   4.272
24732WAT     H174438   1.746   5.487   4.252
24732WAT     H274439   1.618   5.389   4.225
24733WAT      O74440   2.953   4.844   8.362
24733WAT     H174441   3.000   4.760   8.336
24733WAT     H274442   2.872   4.855   8.304
24734WAT      O74443   2.613   5.078   3.379
24734WAT     H174444   2.516   5.077   3.355
24734WAT     H274445   2.666   5.107   3.299
24735WAT      O74446   0.793   9.589   3.391
24735WAT     H174447   0.744   9.576   3.305
24735WAT     H274448   0.874   9.645   3.375
24736WAT      O74449   0.409   7.428   9.750
24736WAT     H174450   0.431   7.443   9.653
24736WAT     H274451   0.486   7.382   9.794
24737WAT      O74452   0.980   3.218   6.613
24737WAT     H174453   0.968   3.210   6.514
24737WAT     H274454   1.064   3.270   6.632
24738WAT      O74455   9.823   5.977   4.923
24738WAT     H174456   9.779   6.017   4.842
24738WAT     H274457   9.917   6.012   4.930
24739WAT      O74458   9.321   1.560   5.046
24739WAT     H174459   9.282   1.514   4.966
24739WAT     H274460   9.413   1.524   5.063
24740WAT      O74461   7.347   7.633   3.326
24740WAT     H174462   7.358   7.661   3.231
24740WAT     H274463   7.267   7.574   3.335
24741WAT      O74464   5.706   7.847   5.438
24741WAT     H174465   5.621   7.794   5.444
24741WAT     H274466   5.720   7.896   5.525
24742WAT      O74467   9.251   9.676   1.716
24742WAT     H174468   9.217   9.727   1.795
24742WAT     H274469   9.287   9.588   1.746
24743WAT      O74470   4.580   9.452   6.688
24743WAT     H174471   4.619   9.404   6.767
24743WAT     H274472   4.632   9.536   6.672
24744WAT      O74473   0.026   7.926   5.537
24744WAT     H174474   0.090   7.995   5.503
24744WAT     H274475   0.046   7.908   5.634
24745WAT      O74476   3.169   2.822   7.550
24745WAT     H174477   3.109   2.768   7.609
24745WAT     H274478   3.263   2.815   7.582
24746WAT      O74479   7.541   5.074   0.949
24746WAT     H174480   7.613   5.012   0.981
24746WAT     H274481   7.468   5.020   0.906
24747WAT      O74482   8.765   0.501   3.406
24747WAT     H174483   8.839   0.543   3.353
24747WAT     H274484   8.709   0.444   3.346
24748WAT      O74485   7.440   2.277   9.557
24748WAT     H174486   7.455   2.374   9.535
24748WAT     H274487   7.362   2.242   9.505
24749WAT      O74488   4.024   3.264   5.731
24749WAT     H174489   4.043   3.242   5.635
24749WAT     H274490   3.958   3.339   5.736
24750WAT      O74491   6.109   3.514   5.891
24750WAT     H174492   6.099   3.612   5.912
24750WAT     H274493   6.057   3.492   5.809
24751WAT      O74494   7.240   8.104   1.835
24751WAT     H174495   7.195   8.017   1.817
24751WAT     H274496   7.257   8.113   1.933
24752WAT      O74497   6.383   3.873   6.991
24752WAT     H174498   6.416   3.964   6.966
24752WAT     H274499   6.422   3.847   7.079
24753WAT      O74500   2.480   7.740   1.618
24753WAT     H174501   2.524   7.650   1.614
24753WAT     H274502   2.547   7.811   1.596
24754WAT      O74503   3.175   5.530   3.057
24754WAT     H174504   3.197   5.443   3.012
24754WAT     H274505   3.218   5.532   3.147
24755WAT      O74506   2.950   0.269   0.100
24755WAT     H174507   2.856   0.297   0.077
24755WAT     H274508   2.988   0.214   0.025
24756WAT      O74509   4.410   8.412   6.795
24756WAT     H174510   4.381   8.507   6.808
24756WAT     H274511   4.367   8.354   6.864
24757WAT      O74512   7.840   5.288   6.338
24757WAT     H174513   7.810   5.271   6.244
24757WAT     H274514   7.760   5.306   6.396
24758WAT      O74515   8.290   2.863   3.409
24758WAT     H174516   8.205   2.810   3.413
24758WAT     H274517   8.304   2.910   3.496
24759WAT      O74518   9.447   8.594   4.794
24759WAT     H174519   9.489   8.545   4.870
24759WAT     H274520   9.506   8.669   4.765
24760WAT      O74521   8.536   4.124   1.807
24760WAT     H174522   8.546   4.032   1.767
24760WAT     H274523   8.626   4.162   1.827
24761WAT      O74524   7.149   2.501   6.278
24761WAT     H174525   7.236   2.500   6.328
24761WAT     H274526   7.091   2.426   6.310
24762WAT      O74527   2.575   1.525   8.634
24762WAT     H174528   2.488   1.501   8.678
24762WAT     H274529   2.560   1.538   8.535
24763WAT      O74530   0.451   8.313   2.524
24763WAT     H174531   0.425   8.264   2.607
24763WAT     H274532   0.394   8.280   2.448
24764WAT      O74533   7.474   4.130   8.331
24764WAT     H174534   7.400   4.070   8.299
24764WAT     H274535   7.435   4.211   8.374
24765WAT      O74536   7.721   7.807   6.399
24765WAT     H174537   7.726   7.725   6.341
24765WAT     H274538   7.658   7.790   6.475
24766WAT      O74539   9.202   1.042   7.933
24766WAT     H174540   9.298   1.067   7.943
24766WAT     H274541   9.192   0.975   7.860
24767WAT      O74542   6.271   1.728   8.712
24767WAT     H174543   6.196   1.735   8.778
24767WAT     H274544   6.235   1.736   8.619
24768WAT      O74545   7.206   0.856   0.787
24768WAT     H174546   7.284   0.901   0.830
24768WAT     H274547   7.130   0.851   0.852
24769WAT      O74548   7.278   1.933   9.423
24769WAT     H174549   7.334   1.943   9.506
24769WAT     H274550   7.335   1.951   9.342
24770WAT      O74551   3.764   9.625   9.499
24770WAT     H174552   3.848   9.667   9.533
24770WAT     H274553   3.783   9.532   9.468
24771WAT      O74554   7.735   1.150   5.406
24771WAT     H174555   7.663   1.174   5.471
24771WAT     H274556   7.747   1.226   5.341
24772WAT      O74557   0.561   1.293   7.538
24772WAT     H174558   0.627   1.262   7.469
24772WAT     H274559   0.600   1.371   7.587
24773WAT      O74560   8.787   8.945   8.284
24773WAT     H174561   8.814   9.027   8.335
24773WAT     H274562   8.773   8.969   8.188
24774WAT      O74563   8.011   3.735   7.919
24774WAT     H174564   7.985   3.745   7.823
24774WAT     H274565   8.087   3.670   7.926
24775WAT      O74566   1.112   5.677   4.319
24775WAT     H174567   1.136   5.591   4.364
24775WAT     H274568   1.049   5.729   4.378
24776WAT      O74569   1.291   8.173   3.044
24776WAT     H174570   1.363   8.241   3.028
24776WAT     H274571   1.307   8.129   3.133
24777WAT      O74572   5.446   2.741   3.665
24777WAT     H174573   5.478   2.744   3.570
24777WAT     H274574   5.499   2.807   3.720
24778WAT      O74575   1.231   9.213   9.363
24778WAT     H174576   1.161   9.177   9.425
24778WAT     H274577   1.269   9.297   9.400
24779WAT      O74578   7.222   9.283   9.097
24779WAT     H174579   7.276   9.281   9.181
24779WAT     H274580   7.185   9.191   9.079
24780WAT      O74581   7.873   9.661   3.451
24780WAT     H174582   7.842   9.738   3.507
24780WAT     H274583   7.936   9.604   3.504
24781WAT      O74584   2.639   0.704   3.238
24781WAT     H174585   2.632   0.799   3.270
24781WAT     H274586   2.558   0.653   3.267
24782WAT      O74587   6.574   7.514   0.649
24782WAT     H174588   6.543   7.608   0.664
24782WAT     H274589   6.495   7.454   0.637
24783WAT      O74590   1.896   0.204   8.195
24783WAT     H174591   1.826   0.187   8.263
24783WAT     H274592   1.859   0.264   8.123
24784WAT      O74593   0.419   8.004   0.568
24784WAT     H174594   0.341   7.953   0.532
24784WAT     H274595   0.420   8.096   0.527
24785WAT      O74596   9.728   6.674   4.894
24785WAT     H174597   9.723   6.575   4.910
24785WAT     H274598   9.647   6.703   4.842
24786WAT      O74599   6.314   3.726   9.873
24786WAT     H174600   6.281   3.762   9.960
24786WAT     H274601   6.288   3.789   9.799
24787WAT      O74602   1.314   8.112   8.783
24787WAT     H174603   1.331   8.071   8.693
24787WAT     H274604   1.396   8.160   8.814
24788WAT      O74605   8.892   0.743   6.606
24788WAT     H174606   8.905   0.788   6.518
24788WAT     H274607   8.853   0.652   6.592
24789WAT      O74608   3.502   5.109   1.592
24789WAT     H174609   3.480   5.174   1.664
24789WAT     H274610   3.493   5.153   1.503
24790WAT      O74611   2.814   5.803   9.735
24790WAT     H174612   2.875   5.882   9.722
24790WAT     H274613   2.764   5.813   9.821
24791WAT      O74614   6.632   8.886   0.374
24791WAT     H174615   6.606   8.919   0.283
24791WAT     H274616   6.672   8.795   0.365
24792WAT      O74617   1.584   9.697   8.623
24792WAT     H174618   1.515   9.732   8.686
24792WAT     H274619   1.674   9.729   8.652
24793WAT      O74620   5.623   0.200   1.209
24793WAT     H174621   5.689   0.230   1.277
24793WAT     H274622   5.655   0.116   1.166
24794WAT      O74623   9.763   9.157   9.887
24794WAT     H174624   9.751   9.109   9.800
24794WAT     H274625   9.831   9.230   9.876
24795WAT      O74626   0.547   6.869   7.924
24795WAT     H174627   0.519   6.937   7.992
24795WAT     H274628   0.553   6.913   7.834
24796WAT      O74629   0.694   5.991   9.486
24796WAT     H174630   0.610   5.964   9.439
24796WAT     H274631   0.717   5.922   9.555
24797WAT      O74632   9.129   9.155   1.359
24797WAT     H174633   9.185   9.221   1.308
24797WAT     H274634   9.063   9.112   1.297
24798WAT      O74635   6.039   6.426   6.459
24798WAT     H174636   6.077   6.440   6.550
24798WAT     H274637   5.954   6.373   6.466
24799WAT      O74638   5.373   0.742   5.209
24799WAT     H174639   5.432   0.791   5.144
24799WAT     H274640   5.335   0.661   5.165
24800WAT      O74641   9.632   8.426   0.592
24800WAT     H174642   9.657   8.489   0.666
24800WAT     H274643   9.601   8.340   0.631
24801WAT      O74644   9.223   5.445   7.977
24801WAT     H174645   9.290   5.483   7.913
24801WAT     H274646   9.197   5.515   8.043
24802WAT      O74647   4.696   1.801   7.180
24802WAT     H174648   4.642   1.732   7.229
24802WAT     H274649   4.641   1.885   7.171
24803WAT      O74650   4.271   0.725   8.242
24803WAT     H174651   4.349   0.666   8.261
24803WAT     H274652   4.295   0.791   8.171
24804WAT      O74653   4.306   3.161   1.939
24804WAT     H174654   4.295   3.218   2.021
24804WAT     H274655   4.247   3.081   1.946
24805WAT      O74656   1.301   9.336   3.471
24805WAT     H174657   1.335   9.340   3.377
24805WAT     H274658   1.351   9.402   3.527
24806WAT      O74659   2.463   2.582   0.837
24806WAT     H174660   2.527   2.527   0.891
24806WAT     H274661   2.419   2.650   0.897
24807WAT      O74662   3.282   4.866   2.586
24807WAT     H174663   3.217   4.937   2.561
24807WAT     H274664   3.289   4.862   2.686
24808WAT      O74665   5.976   8.375   5.435
24808WAT     H174666   5.988   8.319   5.352
24808WAT     H274667   5.972   8.315   5.515
24809WAT      O74668   2.334   6.674   8.825
24809WAT     H174669   2.407   6.699   8.889
24809WAT     H274670   2.369   6.606   8.761
24810WAT      O74671   9.743   8.297   4.584
24810WAT     H174672   9.773   8.217   4.638
24810WAT     H274673   9.814   8.368   4.589
24811WAT      O74674   7.684   2.199   0.248
24811WAT     H174675   7.741   2.135   0.299
24811WAT     H274676   7.676   2.285   0.298
24812WAT      O74677   1.854   1.428   5.355
24812WAT     H174678   1.944   1.442   5.315
24812WAT     H274679   1.818   1.515   5.388
24813WAT      O74680   6.113   2.971   5.525
24813WAT     H174681   6.139   3.051   5.470
24813WAT     H274682   6.109   2.997   5.621
24814WAT      O74683   9.040   4.765   5.944
24814WAT     H174684   9.029   4.865   5.951
24814WAT     H274685   9.126   4.738   5.986
24815WAT      O74686   2.974   1.211   3.936
24815WAT     H174687   2.918   1.287   3.969
24815WAT     H274688   2.956   1.130   3.992
24816WAT      O74689   0.164   3.151   8.074
24816WAT     H174690   0.237   3.195   8.022
24816WAT     H274691   0.168   3.182   8.169
24817WAT      O74692   7.215   1.750   0.313
24817WAT     H174693   7.272   1.785   0.388
24817WAT     H274694   7.199   1.823   0.247
24818WAT      O74695   8.966   3.930   0.700
24818WAT     H174696   8.998   4.024   0.698
24818WAT     H274697   9.020   3.874   0.638
24819WAT      O74698   7.502   9.023   3.375
24819WAT     H174699   7.572   9.042   3.445
24819WAT     H274700   7.451   9.107   3.356
24820WAT      O74701   3.510   3.487   4.755
24820WAT     H174702   3.512   3.586   4.769
24820WAT     H274703   3.553   3.465   4.667
24821WAT      O74704   9.282   0.312   1.694
24821WAT     H174705   9.291   0.404   1.732
24821WAT     H274706   9.219   0.314   1.616
24822WAT      O74707   4.925   0.992   4.521
24822WAT     H174708   4.877   1.011   4.436
24822WAT     H274709   4.884   1.044   4.596
24823WAT      O74710   9.778   0.500   8.965
24823WAT     H174711   9.850   0.496   8.896
24823WAT     H274712   9.774   0.592   9.003
24824WAT      O74713   2.351   8.442   5.472
24824WAT     H174714   2.280   8.383   5.434
24824WAT     H274715   2.402   8.485   5.398
24825WAT      O74716   5.262   6.370   6.572
24825WAT     H174717   5.313   6.408   6.495
24825WAT     H274718   5.271   6.271   6.573
24826WAT      O74719   6.823   9.707   0.204
24826WAT     H174720   6.741   9.654   0.224
24826WAT     H274721   6.805   9.804   0.221
24827WAT      O74722   4.148   4.499   7.079
24827WAT     H174723   4.092   4.419   7.103
24827WAT     H274724   4.146   4.513   6.980
24828WAT      O74725   5.275   1.717   3.812
24828WAT     H174726   5.318   1.780   3.876
24828WAT     H274727   5.241   1.637   3.862
24829WAT      O74728   9.790   3.996   4.420
24829WAT     H174729   9.738   3.954   4.494
24829WAT     H274730   9.743   3.982   4.333
24830WAT      O74731   5.289   7.155   4.577
24830WAT     H174732   5.327   7.244   4.549
24830WAT     H274733   5.263   7.159   4.673
24831WAT      O74734   0.836   2.811   7.215
24831WAT     H174735   0.868   2.740   7.277
24831WAT     H274736   0.846   2.900   7.259
24832WAT      O74737   8.621   2.508   7.735
24832WAT     H174738   8.633   2.497   7.636
24832WAT     H274739   8.690   2.454   7.783
24833WAT      O74740   3.235   5.929   4.026
24833WAT     H174741   3.153   5.884   3.990
24833WAT     H274742   3.252   5.895   4.119
24834WAT      O74743   4.994   6.168   0.758
24834WAT     H174744   5.015   6.193   0.663
24834WAT     H274745   5.066   6.110   0.794
24835WAT      O74746   1.444   2.581   4.531
24835WAT     H174747   1.352   2.595   4.568
24835WAT     H274748   1.437   2.536   4.442
24836WAT      O74749   0.630   5.213   5.981
24836WAT     H174750   0.597   5.269   5.906
24836WAT     H274751   0.730   5.222   5.988
24837WAT      O74752   4.637   0.244   4.774
24837WAT     H174753   4.537   0.244   4.770
24837WAT     H274754   4.672   0.177   4.708
24838WAT      O74755   6.404   1.542   7.389
24838WAT     H174756   6.321   1.562   7.337
24838WAT     H274757   6.395   1.452   7.432
24839WAT      O74758   7.264   1.652   9.157
24839WAT     H174759   7.166   1.651   9.178
24839WAT     H274760   7.287   1.737   9.109
24840WAT      O74761   3.783   5.510   7.881
24840WAT     H174762   3.833   5.514   7.968
24840WAT     H274763   3.832   5.451   7.817
24841WAT      O74764   2.584   9.357   3.798
24841WAT     H174765   2.632   9.430   3.749
24841WAT     H274766   2.516   9.316   3.737
24842WAT      O74767   0.578   7.561   0.497
24842WAT     H174768   0.588   7.640   0.437
24842WAT     H274769   0.622   7.481   0.455
24843WAT      O74770   7.007   2.420   0.268
24843WAT     H174771   6.952   2.482   0.212
24843WAT     H274772   6.946   2.356   0.316
24844WAT      O74773   4.743   0.091   6.530
24844WAT     H174774   4.793   0.174   6.554
24844WAT     H274775   4.650   0.097   6.565
24845WAT      O74776   1.492   8.553   5.932
24845WAT     H174777   1.551   8.620   5.887
24845WAT     H274778   1.500   8.465   5.885
24846WAT      O74779   5.747   7.521   8.699
24846WAT     H174780   5.650   7.519   8.725
24846WAT     H274781   5.804   7.521   8.781
24847WAT      O74782   8.984   8.302   1.816
24847WAT     H174783   8.934   8.388   1.803
24847WAT     H274784   8.920   8.226   1.807
24848WAT      O74785   0.593   6.450   7.069
24848WAT     H174786   0.619   6.388   7.143
24848WAT     H274787   0.605   6.403   6.981
24849WAT      O74788   8.063   7.048   2.215
24849WAT     H174789   8.112   6.965   2.244
24849WAT     H274790   8.070   7.057   2.116
24850WAT      O74791   9.648   4.967   2.996
24850WAT     H174792   9.680   5.033   2.928
24850WAT     H274793   9.550   4.980   3.012
24851WAT      O74794   2.448   3.561   1.558
24851WAT     H174795   2.486   3.469   1.553
24851WAT     H274796   2.471   3.611   1.474
24852WAT      O74797   1.073   2.698   3.463
24852WAT     H174798   0.975   2.679   3.468
24852WAT     H274799   1.109   2.713   3.556
24853WAT      O74800   5.178   9.699   6.751
24853WAT     H174801   5.151   9.793   6.729
24853WAT     H274802   5.163   9.641   6.671
24854WAT      O74803   5.282   0.565   2.666
24854WAT     H174804   5.334   0.550   2.750
24854WAT     H274805   5.343   0.601   2.595
24855WAT      O74806   6.038   8.253   2.763
24855WAT     H174807   6.072   8.340   2.799
24855WAT     H274808   5.962   8.271   2.700
24856WAT      O74809   3.385   6.531   6.566
24856WAT     H174810   3.419   6.550   6.474
24856WAT     H274811   3.310   6.465   6.561
24857WAT      O74812   6.287   2.053   1.063
24857WAT     H174813   6.363   2.118   1.065
24857WAT     H274814   6.310   1.977   1.004
24858WAT      O74815   3.305   8.952   6.617
24858WAT     H174816   3.396   8.916   6.595
24858WAT     H274817   3.280   8.923   6.709
24859WAT      O74818   2.099   8.612   9.155
24859WAT     H174819   2.045   8.532   9.126
24859WAT     H274820   2.041   8.674   9.208
24860WAT      O74821   9.846   0.154   7.615
24860WAT     H174822   9.811   0.132   7.524
24860WAT     H274823   9.939   0.190   7.608
24861WAT      O74824   4.767   2.645   8.765
24861WAT     H174825   4.823   2.568   8.736
24861WAT     H274826   4.672   2.616   8.776
24862WAT      O74827   4.423   0.192   4.427
24862WAT     H174828   4.398   0.188   4.330
24862WAT     H274829   4.518   0.221   4.435
24863WAT      O74830   3.817   4.912   9.432
24863WAT     H174831   3.760   4.994   9.438
24863WAT     H274832   3.913   4.936   9.447
24864WAT      O74833   7.921   9.641   8.066
24864WAT     H174834   7.855   9.656   7.993
24864WAT     H274835   7.874   9.601   8.145
24865WAT      O74836   0.195   5.217   9.361
24865WAT     H174837   0.250   5.151   9.411
24865WAT     H274838   0.145   5.275   9.425
24866WAT      O74839   2.808   2.980   4.912
24866WAT     H174840   2.773   2.963   4.820
24866WAT     H274841   2.904   2.954   4.917
24867WAT      O74842   9.083   6.605   9.610
24867WAT     H174843   9.116   6.642   9.696
24867WAT     H274844   9.152   6.543   9.572
24868WAT      O74845   0.127   8.202   3.141
24868WAT     H174846   0.217   8.211   3.098
24868WAT     H274847   0.063   8.159   3.077
24869WAT      O74848   7.596   5.246   4.845
24869WAT     H174849   7.696   5.240   4.848
24869WAT     H274850   7.564   5.235   4.751
24870WAT      O74851   9.824   0.319   8.431
24870WAT     H174852   9.741   0.351   8.386
24870WAT     H274853   9.904   0.352   8.381
24871WAT      O74854   9.743   6.794   1.698
24871WAT     H174855   9.783   6.719   1.644
24871WAT     H274856   9.778   6.789   1.792
24872WAT      O74857   9.720   7.594   5.690
24872WAT     H174858   9.639   7.652   5.699
24872WAT     H274859   9.698   7.501   5.721
24873WAT      O74860   5.218   2.767   1.897
24873WAT     H174861   5.195   2.723   1.810
24873WAT     H274862   5.317   2.778   1.903
24874WAT      O74863   4.570   3.344   2.701
24874WAT     H174864   4.648   3.284   2.720
24874WAT     H274865   4.550   3.342   2.603
24875WAT      O74866   0.438   5.307   1.278
24875WAT     H174867   0.443   5.231   1.343
24875WAT     H274868   0.356   5.361   1.296
24876WAT      O74869   7.433   9.573   8.394
24876WAT     H174870   7.469   9.584   8.301
24876WAT     H274871   7.509   9.569   8.459
24877WAT      O74872   2.349   9.217   6.189
24877WAT     H174873   2.365   9.210   6.287
24877WAT     H274874   2.386   9.304   6.155
24878WAT      O74875   8.491   7.758   7.589
24878WAT     H174876   8.542   7.750   7.675
24878WAT     H274877   8.435   7.676   7.576
24879WAT      O74878   9.843   0.796   0.564
24879WAT     H174879   9.898   0.879   0.560
24879WAT     H274880   9.853   0.753   0.654
24880WAT      O74881   3.666   6.219   9.381
24880WAT     H174882   3.697   6.277   9.306
24880WAT     H274883   3.617   6.274   9.448
24881WAT      O74884   8.329   2.375   0.741
24881WAT     H174885   8.367   2.326   0.663
24881WAT     H274886   8.403   2.400   0.804
24882WAT      O74887   0.621   2.818   9.221
24882WAT     H174888   0.627   2.836   9.319
24882WAT     H274889   0.532   2.848   9.186
24883WAT      O74890   7.615   5.237   0.722
24883WAT     H174891   7.547   5.256   0.652
24883WAT     H274892   7.571   5.192   0.800
24884WAT      O74893   8.616   7.596   3.834
24884WAT     H174894   8.715   7.607   3.845
24884WAT     H274895   8.569   7.642   3.909
24885WAT      O74896   6.996   6.013   9.748
24885WAT     H174897   6.958   5.930   9.791
24885WAT     H274898   6.987   6.005   9.649
24886WAT      O74899   7.413   0.903   2.883
24886WAT     H174900   7.341   0.855   2.833
24886WAT     H274901   7.378   0.933   2.972
24887WAT      O74902   3.176   6.763   2.826
24887WAT     H174903   3.272   6.792   2.830
24887WAT     H274904   3.126   6.804   2.901
24888WAT      O74905   6.365   9.115   4.167
24888WAT     H174906   6.335   9.050   4.097
24888WAT     H274907   6.461   9.098   4.189
24889WAT      O74908   6.189   1.926   1.300
24889WAT     H174909   6.176   1.829   1.280
24889WAT     H274910   6.197   1.977   1.214
24890WAT      O74911   0.266   4.384   5.290
24890WAT     H174912   0.218   4.397   5.203
24890WAT     H274913   0.200   4.363   5.362
24891WAT      O74914   2.936   3.834   4.465
24891WAT     H174915   2.887   3.900   4.408
24891WAT     H274916   2.871   3.765   4.499
24892WAT      O74917   9.625   0.043   8.926
24892WAT     H174918   9.672  -0.043   8.946
24892WAT     H274919   9.669   0.117   8.977
24893WAT      O74920   5.455   9.045   6.609
24893WAT     H174921   5.536   8.999   6.572
24893WAT     H274922   5.471   9.070   6.704
24894WAT      O74923   8.430   7.435   6.190
24894WAT     H174924   8.345   7.465   6.147
24894WAT     H274925   8.464   7.353   6.143
24895WAT      O74926   3.364   6.680   8.210
24895WAT     H174927   3.282   6.722   8.250
24895WAT     H274928   3.431   6.662   8.282
24896WAT      O74929   2.360   2.309   6.018
24896WAT     H174930   2.407   2.257   6.090
24896WAT     H274931   2.367   2.407   6.039
24897WAT      O74932   9.248   6.004   3.046
24897WAT     H174933   9.280   6.092   3.012
24897WAT     H274934   9.315   5.933   3.025
24898WAT      O74935   7.951   8.531   6.226
24898WAT     H174936   7.980   8.507   6.134
24898WAT     H274937   7.952   8.631   6.237
24899WAT      O74938   5.905   7.667   7.872
24899WAT     H174939   5.830   7.675   7.938
24899WAT     H274940   5.959   7.751   7.873
24900WAT      O74941   8.413   2.690   2.328
24900WAT     H174942   8.374   2.781   2.341
24900WAT     H274943   8.444   2.681   2.233
24901WAT      O74944   3.134   6.133   7.325
24901WAT     H174945   3.079   6.149   7.407
24901WAT     H274946   3.075   6.137   7.244
24902WAT      O74947   3.095   8.613   4.413
24902WAT     H174948   3.168   8.647   4.355
24902WAT     H274949   3.104   8.513   4.424
24903WAT      O74950   9.692   4.195   3.704
24903WAT     H174951   9.647   4.106   3.689
24903WAT     H274952   9.702   4.241   3.616
24904WAT      O74953   1.739   7.793   4.224
24904WAT     H174954   1.824   7.841   4.201
24904WAT     H274955   1.661   7.852   4.202
24905WAT      O74956   3.528   3.006   4.962
24905WAT     H174957   3.517   3.105   4.947
24905WAT     H274958   3.449   2.959   4.923
24906WAT      O74959   6.758   4.453   6.095
24906WAT     H174960   6.686   4.446   6.026
24906WAT     H274961   6.762   4.368   6.148
24907WAT      O74962   2.464   7.346   2.414
24907WAT     H174963   2.499   7.372   2.324
24907WAT     H274964   2.471   7.246   2.424
24908WAT      O74965   5.096   6.624   0.586
24908WAT     H174966   5.119   6.695   0.519
24908WAT     H274967   5.068   6.541   0.538
24909WAT      O74968   3.214   0.431   2.283
24909WAT     H174969   3.155   0.370   2.231
24909WAT     H274970   3.167   0.519   2.297
24910WAT      O74971   6.838   8.693   2.883
24910WAT     H174972   6.860   8.604   2.843
24910WAT     H274973   6.834   8.685   2.983
24911WAT      O74974   1.363   7.626   1.146
24911WAT     H174975   1.277   7.576   1.134
24911WAT     H274976   1.391   7.664   1.058
24912WAT      O74977   5.808   1.733   1.785
24912WAT     H174978   5.738   1.701   1.722
24912WAT     H274979   5.848   1.654   1.833
24913WAT      O74980   2.247   1.471   9.284
24913WAT     H174981   2.345   1.458   9.298
24913WAT     H274982   2.197   1.401   9.336
24914WAT      O74983   0.468   7.080   8.080
24914WAT     H174984   0.515   7.112   8.162
24914WAT     H274985   0.378   7.123   8.074
24915WAT      O74986   9.631   5.780   4.028
24915WAT     H174987   9.612   5.764   4.125
24915WAT     H274988   9.612   5.875   4.006
24916WAT      O74989   3.489   7.432   8.796
24916WAT     H174990   3.494   7.336   8.824
24916WAT     H274991   3.509   7.491   8.875
24917WAT      O74992   5.734   4.266   8.311
24917WAT     H174993   5.830   4.250   8.337
24917WAT     H274994   5.724   4.256   8.212
24918WAT      O74995   1.134   3.526   4.274
24918WAT     H174996   1.163   3.566   4.187
24918WAT     H274997   1.211   3.522   4.337
24919WAT      O74998   5.434   7.806   1.089
24919WAT     H174999   5.493   7.854   1.025
24919WAT     H275000   5.366   7.870   1.127
24920WAT      O75001   1.639   7.307   0.962
24920WAT     H175002   1.628   7.277   1.056
24920WAT     H275003   1.691   7.393   0.960
24921WAT      O75004   1.871   5.340   8.663
24921WAT     H175005   1.819   5.258   8.690
24921WAT     H275006   1.922   5.374   8.741
24922WAT      O75007   5.008   7.380   2.225
24922WAT     H175008   4.937   7.441   2.190
24922WAT     H275009   5.039   7.413   2.314
24923WAT      O75010   3.932   1.116   6.214
24923WAT     H175011   3.885   1.104   6.126
24923WAT     H275012   3.865   1.145   6.283
24924WAT      O75013   4.820   6.371   1.918
24924WAT     H175014   4.867   6.304   1.862
24924WAT     H275015   4.844   6.463   1.887
24925WAT      O75016   0.958   9.157   0.174
24925WAT     H175017   1.052   9.131   0.196
24925WAT     H275018   0.900   9.075   0.173
24926WAT      O75019   4.972   5.582   5.586
24926WAT     H175020   4.887   5.631   5.572
24926WAT     H275021   5.049   5.641   5.564
24927WAT      O75022   9.194   7.119   1.855
24927WAT     H175023   9.166   7.198   1.909
24927WAT     H275024   9.177   7.035   1.907
24928WAT      O75025   2.063   2.533   8.209
24928WAT     H175026   2.150   2.581   8.195
24928WAT     H275027   1.987   2.590   8.179
24929WAT      O75028   8.113   0.555   8.942
24929WAT     H175029   8.083   0.544   9.037
24929WAT     H275030   8.131   0.652   8.924
24930WAT      O75031   7.560   6.247   5.352
24930WAT     H175032   7.467   6.256   5.389
24930WAT     H275033   7.600   6.161   5.384
24931WAT      O75034   7.117   8.694   5.160
24931WAT     H175035   7.130   8.784   5.200
24931WAT     H275036   7.026   8.659   5.185
24932WAT      O75037   8.566   5.705   3.907
24932WAT     H175038   8.600   5.614   3.883
24932WAT     H275039   8.589   5.770   3.835
24933WAT      O75040   1.347   5.883   1.994
24933WAT     H175041   1.353   5.847   1.901
24933WAT     H275042   1.269   5.945   2.001
24934WAT      O75043   8.384   6.616   3.899
24934WAT     H175044   8.370   6.664   3.986
24934WAT     H275045   8.435   6.532   3.915
24935WAT      O75046   7.367   6.095   7.451
24935WAT     H175047   7.317   6.014   7.483
24935WAT     H275048   7.383   6.157   7.528
24936WAT      O75049   3.055   3.736   7.502
24936WAT     H175050   2.959   3.750   7.525
24936WAT     H275051   3.092   3.660   7.555
24937WAT      O75052   3.553   5.228   6.771
24937WAT     H175053   3.631   5.248   6.831
24937WAT     H275054   3.549   5.295   6.697
24938WAT      O75055   5.335   7.169   9.495
24938WAT     H175056   5.317   7.207   9.585
24938WAT     H275057   5.414   7.108   9.500
24939WAT      O75058   5.711   8.574   8.847
24939WAT     H175059   5.648   8.624   8.787
24939WAT     H275060   5.766   8.639   8.900
24940WAT      O75061   7.210   2.230   2.385
24940WAT     H175062   7.291   2.181   2.351
24940WAT     H275063   7.228   2.329   2.382
24941WAT      O75064   6.318   0.136   2.078
24941WAT     H175065   6.285   0.118   1.986
24941WAT     H275066   6.405   0.185   2.073
24942WAT      O75067   2.837   6.843   7.756
24942WAT     H175068   2.777   6.792   7.695
24942WAT     H275069   2.831   6.941   7.735
24943WAT      O75070   3.909   8.549   3.200
24943WAT     H175071   3.869   8.482   3.138
24943WAT     H275072   3.926   8.506   3.289
24944WAT      O75073   1.686   3.859   5.285
24944WAT     H175074   1.700   3.840   5.382
24944WAT     H275075   1.719   3.781   5.231
24945WAT      O75076   7.415   3.909   5.291
24945WAT     H175077   7.424   3.879   5.196
24945WAT     H275078   7.469   3.991   5.305
24946WAT      O75079   7.110   8.278   8.581
24946WAT     H175080   7.119   8.197   8.639
24946WAT     H275081   7.098   8.359   8.638
24947WAT      O75082   8.080   2.564   3.277
24947WAT     H175083   8.166   2.574   3.327
24947WAT     H275084   8.098   2.518   3.190
24948WAT      O75085   9.322   6.948   5.695
24948WAT     H175086   9.320   7.048   5.697
24948WAT     H275087   9.248   6.913   5.753
24949WAT      O75088   0.299   5.830   9.661
24949WAT     H175089   0.318   5.832   9.759
24949WAT     H275090   0.329   5.915   9.618
24950WAT      O75091   0.785   3.659   5.504
24950WAT     H175092   0.867   3.651   5.447
24950WAT     H275093   0.704   3.661   5.446
24951WAT      O75094   0.259   4.139   3.978
24951WAT     H175095   0.193   4.193   3.926
24951WAT     H275096   0.243   4.152   4.076
24952WAT      O75097   0.916   8.512   5.322
24952WAT     H175098   1.013   8.491   5.316
24952WAT     H275099   0.871   8.446   5.382
24953WAT      O75100   6.071   7.818   4.928
24953WAT     H175101   6.166   7.839   4.905
24953WAT     H275102   6.035   7.752   4.863
24954WAT      O75103   9.118   6.236   6.254
24954WAT     H175104   9.203   6.257   6.205
24954WAT     H275105   9.138   6.217   6.350
24955WAT      O75106   6.115   7.848   1.059
24955WAT     H175107   6.107   7.921   0.991
24955WAT     H275108   6.043   7.857   1.127
24956WAT      O75109   7.978   1.809   1.692
24956WAT     H175110   8.025   1.840   1.775
24956WAT     H275111   8.001   1.870   1.616
24957WAT      O75112   4.301   9.594   6.086
24957WAT     H175113   4.313   9.659   6.011
24957WAT     H275114   4.365   9.518   6.075
24958WAT      O75115   9.804   5.714   0.208
24958WAT     H175116   9.791   5.780   0.282
24958WAT     H275117   9.725   5.718   0.146
24959WAT      O75118   5.823   8.885   7.107
24959WAT     H175119   5.894   8.821   7.137
24959WAT     H275120   5.859   8.942   7.033
24960WAT      O75121   2.684   2.207   6.435
24960WAT     H175122   2.616   2.274   6.466
24960WAT     H275123   2.711   2.149   6.512
24961WAT      O75124   9.541   4.056   6.266
24961WAT     H175125   9.462   4.053   6.327
24961WAT     H275126   9.551   3.968   6.219
24962WAT      O75127   3.984   6.160   3.472
24962WAT     H175128   4.004   6.062   3.473
24962WAT     H275129   4.051   6.206   3.413
24963WAT      O75130   9.855   0.884   6.996
24963WAT     H175131   9.954   0.874   6.985
24963WAT     H275132   9.825   0.825   7.072
24964WAT      O75133   5.245   5.179   0.224
24964WAT     H175134   5.327   5.190   0.280
24964WAT     H275135   5.167   5.159   0.283
24965WAT      O75136   4.236   3.338   5.891
24965WAT     H175137   4.174   3.280   5.839
24965WAT     H275138   4.264   3.291   5.974
24966WAT      O75139   2.513   7.242   5.351
24966WAT     H175140   2.514   7.308   5.426
24966WAT     H275141   2.603   7.199   5.343
24967WAT      O75142   3.841   3.065   5.190
24967WAT     H175143   3.773   3.132   5.221
24967WAT     H275144   3.876   3.015   5.270
24968WAT      O75145   0.802   9.183   7.522
24968WAT     H175146   0.882   9.221   7.476
24968WAT     H275147   0.776   9.242   7.599
24969WAT      O75148   1.446   6.756   8.483
24969WAT     H175149   1.452   6.710   8.571
24969WAT     H275150   1.374   6.713   8.428
24970WAT      O75151   4.325   0.777   9.210
24970WAT     H175152   4.376   0.719   9.274
24970WAT     H275153   4.228   0.755   9.215
24971WAT      O75154   1.857   0.613   2.636
24971WAT     H175155   1.794   0.546   2.674
24971WAT     H275156   1.944   0.609   2.686
24972WAT      O75157   1.255   1.331   3.303
24972WAT     H175158   1.334   1.391   3.289
24972WAT     H275159   1.286   1.237   3.311
24973WAT      O75160   9.122   5.102   8.218
24973WAT     H175161   9.100   5.174   8.152
24973WAT     H275162   9.058   5.026   8.206
24974WAT      O75163   7.380   5.553   5.867
24974WAT     H175164   7.283   5.528   5.860
24974WAT     H275165   7.413   5.534   5.959
24975WAT      O75166   1.787   5.119   4.117
24975WAT     H175167   1.856   5.174   4.068
24975WAT     H275168   1.698   5.131   4.073
24976WAT      O75169   5.081   3.518   3.198
24976WAT     H175170   5.162   3.566   3.165
24976WAT     H275171   5.106   3.455   3.271
24977WAT      O75172   8.849   3.495   0.500
24977WAT     H175173   8.814   3.563   0.564
24977WAT     H275174   8.791   3.493   0.418
24978WAT      O75175   9.577   1.965   6.047
24978WAT     H175176   9.621   1.972   5.958
24978WAT     H275177   9.589   2.051   6.097
24979WAT      O75178   4.438   4.868   6.190
24979WAT     H175179   4.495   4.872   6.108
24979WAT     H275180   4.474   4.799   6.253
24980WAT      O75181   8.925   1.114   4.940
24980WAT     H175182   8.897   1.188   5.001
24980WAT     H275183   8.930   1.148   4.846
24981WAT      O75184   7.268   0.681   6.516
24981WAT     H175185   7.171   0.696   6.536
24981WAT     H275186   7.317   0.768   6.524
24982WAT      O75187   3.442   1.356   9.420
24982WAT     H175188   3.478   1.392   9.506
24982WAT     H275189   3.516   1.346   9.354
24983WAT      O75190   7.344   9.767   9.247
24983WAT     H175191   7.345   9.685   9.190
24983WAT     H275192   7.429   9.772   9.300
24984WAT      O75193   2.093   2.411   7.483
24984WAT     H175194   2.012   2.448   7.529
24984WAT     H275195   2.157   2.376   7.551
24985WAT      O75196   6.042   0.876   7.286
24985WAT     H175197   5.956   0.826   7.283
24985WAT     H275198   6.105   0.831   7.350
24986WAT      O75199   1.776   8.589   6.590
24986WAT     H175200   1.871   8.607   6.618
24986WAT     H275201   1.763   8.490   6.579
24987WAT      O75202   3.509   1.411   3.170
24987WAT     H175203   3.412   1.390   3.175
24987WAT     H275204   3.559   1.329   3.143
24988WAT      O75205   7.691   4.018   7.696
24988WAT     H175206   7.766   4.083   7.711
24988WAT     H275207   7.662   3.980   7.783
24989WAT      O75208   3.997   2.110   7.255
24989WAT     H175209   3.917   2.138   7.202
24989WAT     H275210   3.968   2.067   7.340
24990WAT      O75211   8.331   1.746   8.351
24990WAT     H175212   8.238   1.781   8.350
24990WAT     H275213   8.350   1.703   8.440
24991WAT      O75214   4.112   8.054   2.454
24991WAT     H175215   4.166   8.132   2.422
24991WAT     H275216   4.059   8.017   2.379
24992WAT      O75217   3.471   8.512   8.418
24992WAT     H175218   3.511   8.550   8.335
24992WAT     H275219   3.520   8.548   8.498
24993WAT      O75220   6.088   8.091   2.544
24993WAT     H175221   6.086   8.151   2.624
24993WAT     H275222   6.127   8.003   2.569
24994WAT      O75223   3.506   9.475   1.115
24994WAT     H175224   3.452   9.511   1.039
24994WAT     H275225   3.472   9.514   1.201
24995WAT      O75226   0.645   7.008   4.668
24995WAT     H175227   0.739   7.013   4.634
24995WAT     H275228   0.617   6.912   4.674
24996WAT      O75229   4.672   4.447   3.930
24996WAT     H175230   4.584   4.476   3.968
24996WAT     H275231   4.744   4.462   3.997
24997WAT      O75232   9.229   2.941   2.549
24997WAT     H175233   9.283   2.874   2.499
24997WAT     H275234   9.243   2.928   2.648
24998WAT      O75235   1.665   2.261   5.385
24998WAT     H175236   1.641   2.301   5.296
24998WAT     H275237   1.587   2.211   5.421
24999WAT      O75238   1.654   3.506   4.593
24999WAT     H175239   1.609   3.448   4.525
24999WAT     H275240   1.648   3.462   4.683
25000WAT      O75241   6.810   8.327   4.853
25000WAT     H175242   6.747   8.389   4.807
25000WAT     H275243   6.904   8.347   4.824
25001WAT      O75244   6.645   7.038   8.876
25001WAT     H175245   6.736   7.049   8.916
25001WAT     H275246   6.651   6.978   8.796
25002WAT      O75247   4.670   6.804   9.581
25002WAT     H175248   4.592   6.847   9.535
25002WAT     H275249   4.667   6.705   9.565
25003WAT      O75250   5.156   3.285   6.001
25003WAT     H175251   5.216   3.206   6.014
25003WAT     H275252   5.065   3.265   6.038
25004WAT      O75253   9.352   6.297   8.458
25004WAT     H175254   9.340   6.375   8.398
25004WAT     H275255   9.380   6.217   8.404
25005WAT      O75256   2.684   4.117   0.829
25005WAT     H175257   2.781   4.091   0.824
25005WAT     H275258   2.666   4.163   0.916
25006WAT      O75259   8.432   7.719   2.518
25006WAT     H175260   8.465   7.762   2.434
25006WAT     H275261   8.453   7.621   2.515
25007WAT      O75262   3.786   6.070   2.843
25007WAT     H175263   3.842   6.112   2.915
25007WAT     H275264   3.692   6.062   2.875
25008WAT      O75265   0.213   3.587   6.263
25008WAT     H175266   0.121   3.614   6.234
25008WAT     H275267   0.248   3.516   6.200
25009WAT      O75268   8.977   4.309   8.760
25009WAT     H175269   8.922   4.226   8.767
25009WAT     H275270   9.012   4.318   8.666
25010WAT      O75271   3.289   3.436   1.386
25010WAT     H175272   3.198   3.470   1.407
25010WAT     H275273   3.354   3.468   1.455
25011WAT      O75274   9.407   7.677   0.085
25011WAT     H175275   9.405   7.578   0.076
25011WAT     H275276   9.331   7.707   0.142
25012WAT      O75277   7.024   8.651   6.647
25012WAT     H175278   7.100   8.680   6.705
25012WAT     H275279   6.945   8.710   6.662
25013WAT      O75280   2.730   0.671   8.268
25013WAT     H175281   2.632   0.651   8.266
25013WAT     H275282   2.762   0.676   8.362
25014WAT      O75283   4.695   5.426   5.355
25014WAT     H175284   4.736   5.335   5.343
25014WAT     H275285   4.717   5.460   5.447
25015WAT      O75286   5.959   9.282   5.744
25015WAT     H175287   5.936   9.244   5.654
25015WAT     H275288   5.890   9.349   5.771
25016WAT      O75289   2.876   8.364   3.136
25016WAT     H175290   2.959   8.419   3.146
25016WAT     H275291   2.892   8.291   3.070
25017WAT      O75292   1.654   3.096   8.464
25017WAT     H175293   1.577   3.146   8.503
25017WAT     H275294   1.709   3.158   8.408
25018WAT      O75295   7.181   8.053   9.013
25018WAT     H175296   7.264   8.081   8.964
25018WAT     H275297   7.105   8.048   8.948
25019WAT      O75298   3.233   2.130   3.606
25019WAT     H175299   3.242   2.149   3.508
25019WAT     H275300   3.136   2.135   3.632
25020WAT      O75301   9.365   4.466   5.127
25020WAT     H175302   9.436   4.527   5.161
25020WAT     H275303   9.397   4.421   5.043
25021WAT      O75304   8.108   0.234   6.952
25021WAT     H175305   8.081   0.140   6.974
25021WAT     H275306   8.188   0.259   7.006
25022WAT      O75307   4.494   8.680   5.283
25022WAT     H175308   4.591   8.667   5.301
25022WAT     H275309   4.480   8.763   5.228
25023WAT      O75310   6.819   3.815   6.557
25023WAT     H175311   6.733   3.779   6.593
25023WAT     H275312   6.821   3.914   6.566
25024WAT      O75313   4.360   5.751   3.795
25024WAT     H175314   4.423   5.752   3.718
25024WAT     H275315   4.314   5.663   3.800
25025WAT      O75316   7.886   3.835   4.722
25025WAT     H175317   7.973   3.796   4.692
25025WAT     H275318   7.840   3.772   4.785
25026WAT      O75319   2.477   6.167   6.345
25026WAT     H175320   2.553   6.152   6.410
25026WAT     H275321   2.411   6.093   6.354
25027WAT      O75322   1.923   1.466   0.483
25027WAT     H175323   1.907   1.540   0.417
25027WAT     H275324   1.958   1.504   0.568
25028WAT      O75325   7.773   7.593   3.777
25028WAT     H175326   7.748   7.497   3.779
25028WAT     H275327   7.690   7.649   3.781
25029WAT      O75328   5.427   8.705   1.282
25029WAT     H175329   5.373   8.789   1.281
25029WAT     H275330   5.367   8.626   1.274
25030WAT      O75331   1.921   9.236   2.675
25030WAT     H175332   1.895   9.326   2.709
25030WAT     H275333   2.008   9.241   2.627
25031WAT      O75334   5.929   5.525   9.313
25031WAT     H175335   5.982   5.572   9.383
25031WAT     H275336   5.982   5.518   9.229
25032WAT      O75337   7.800   5.667   9.583
25032WAT     H175338   7.888   5.715   9.587
25032WAT     H275339   7.740   5.701   9.655
25033WAT      O75340   6.966   6.394   6.810
25033WAT     H175341   7.012   6.314   6.771
25033WAT     H275342   7.034   6.456   6.850
25034WAT      O75343   9.328   6.171   1.584
25034WAT     H175344   9.358   6.133   1.672
25034WAT     H275345   9.321   6.097   1.517
25035WAT      O75346   1.938   0.962   1.006
25035WAT     H175347   2.002   1.039   0.999
25035WAT     H275348   1.847   0.996   1.027
25036WAT      O75349   2.798   8.621   8.845
25036WAT     H175350   2.797   8.544   8.782
25036WAT     H275351   2.865   8.604   8.917
25037WAT      O75352   6.926   2.693   6.738
25037WAT     H175353   6.897   2.726   6.648
25037WAT     H275354   6.865   2.729   6.808
25038WAT      O75355   3.306   5.977   1.749
25038WAT     H175356   3.317   5.923   1.666
25038WAT     H275357   3.248   5.927   1.813
25039WAT      O75358   3.391   0.555   3.219
25039WAT     H175359   3.304   0.518   3.189
25039WAT     H275360   3.385   0.582   3.315
25040WAT      O75361   3.579   5.733   1.650
25040WAT     H175362   3.632   5.700   1.728
25040WAT     H275363   3.620   5.818   1.616
25041WAT      O75364   8.473   8.628   4.593
25041WAT     H175365   8.399   8.593   4.535
25041WAT     H275366   8.510   8.554   4.649
25042WAT      O75367   6.338   8.870   1.816
25042WAT     H175368   6.395   8.822   1.750
25042WAT     H275369   6.364   8.843   1.909
25043WAT      O75370   6.986   5.904   5.665
25043WAT     H175371   6.908   5.915   5.727
25043WAT     H275372   7.071   5.921   5.715
25044WAT      O75373   7.748   5.072   8.463
25044WAT     H175374   7.795   4.993   8.503
25044WAT     H275375   7.696   5.043   8.383
25045WAT      O75376   3.524   0.812   5.314
25045WAT     H175377   3.441   0.810   5.258
25045WAT     H275378   3.508   0.865   5.397
25046WAT      O75379   7.021   7.611   6.480
25046WAT     H175380   6.956   7.571   6.416
25046WAT     H275381   6.978   7.685   6.531
25047WAT      O75382   2.915   3.676   3.361
25047WAT     H175383   2.828   3.658   3.314
25047WAT     H275384   2.980   3.714   3.296
25048WAT      O75385   4.440   9.492   1.736
25048WAT     H175386   4.472   9.485   1.831
25048WAT     H275387   4.462   9.583   1.700
25049WAT      O75388   4.986   8.752   2.700
25049WAT     H175389   4.996   8.845   2.736
25049WAT     H275390   5.070   8.700   2.718
25050WAT      O75391   1.085   5.527   4.868
25050WAT     H175392   1.012   5.520   4.936
25050WAT     H275393   1.158   5.586   4.902
25051WAT      O75394   2.624   7.300   8.406
25051WAT     H175395   2.598   7.396   8.420
25051WAT     H275396   2.589   7.244   8.481
25052WAT      O75397   1.618   8.821   9.618
25052WAT     H175398   1.716   8.831   9.600
25052WAT     H275399   1.602   8.738   9.671
25053WAT      O75400   6.950   8.879   0.560
25053WAT     H175401   7.047   8.869   0.582
25053WAT     H275402   6.939   8.881   0.461
25054WAT      O75403   6.743   1.982   3.646
25054WAT     H175404   6.737   2.078   3.673
25054WAT     H275405   6.839   1.953   3.649
25055WAT      O75406   1.573   8.006   7.488
25055WAT     H175407   1.669   8.027   7.503
25055WAT     H275408   1.555   7.997   7.390
25056WAT      O75409   0.647   0.800   4.129
25056WAT     H175410   0.639   0.822   4.226
25056WAT     H275411   0.742   0.806   4.101
25057WAT      O75412   9.018   4.245   6.998
25057WAT     H175413   9.096   4.273   6.942
25057WAT     H275414   9.006   4.146   6.990
25058WAT      O75415   8.187   9.205   1.488
25058WAT     H175416   8.148   9.242   1.572
25058WAT     H275417   8.237   9.121   1.508
25059WAT      O75418   8.834   2.066   3.421
25059WAT     H175419   8.818   1.980   3.373
25059WAT     H275420   8.904   2.119   3.373
25060WAT      O75421   0.541   0.759   7.124
25060WAT     H175422   0.639   0.740   7.137
25060WAT     H275423   0.505   0.698   7.053
25061WAT      O75424   7.793   6.940   8.582
25061WAT     H175425   7.872   6.964   8.637
25061WAT     H275426   7.808   6.966   8.487
25062WAT      O75427   2.243   0.924   8.206
25062WAT     H175428   2.292   0.939   8.292
25062WAT     H275429   2.167   0.989   8.198
25063WAT      O75430   3.516   8.227   6.748
25063WAT     H175431   3.536   8.298   6.681
25063WAT     H275432   3.587   8.156   6.743
25064WAT      O75433   9.146   5.055   4.643
25064WAT     H175434   9.155   5.112   4.561
25064WAT     H275435   9.208   5.088   4.713
25065WAT      O75436   2.541   1.582   5.535
25065WAT     H175437   2.501   1.612   5.449
25065WAT     H275438   2.488   1.504   5.571
25066WAT      O75439   0.430   1.092   6.555
25066WAT     H175440   0.413   1.120   6.460
25066WAT     H275441   0.526   1.108   6.577
25067WAT      O75442   5.231   1.987   0.480
25067WAT     H175443   5.232   1.967   0.578
25067WAT     H275444   5.160   1.931   0.436
25068WAT      O75445   0.327   3.660   3.116
25068WAT     H175446   0.395   3.587   3.107
25068WAT     H275447   0.235   3.620   3.112
25069WAT      O75448   1.940   0.262   3.908
25069WAT     H175449   1.889   0.192   3.858
25069WAT     H275450   1.883   0.343   3.920
25070WAT      O75451   8.239   9.381   7.318
25070WAT     H175452   8.161   9.319   7.327
25070WAT     H275453   8.281   9.368   7.228
25071WAT      O75454   2.653   1.341   7.341
25071WAT     H175455   2.675   1.267   7.405
25071WAT     H275456   2.679   1.314   7.249
25072WAT      O75457   7.743   2.403   8.048
25072WAT     H175458   7.707   2.424   8.139
25072WAT     H275459   7.669   2.405   7.981
25073WAT      O75460   2.386   7.699   3.821
25073WAT     H175461   2.348   7.702   3.728
25073WAT     H275462   2.389   7.605   3.853
25074WAT      O75463   2.057   4.986   7.353
25074WAT     H175464   2.095   4.918   7.290
25074WAT     H275465   2.129   5.017   7.415
25075WAT      O75466   0.582   4.360   9.634
25075WAT     H175467   0.576   4.459   9.642
25075WAT     H275468   0.651   4.325   9.698
25076WAT      O75469   9.853   9.307   3.257
25076WAT     H175470   9.853   9.385   3.195
25076WAT     H275471   9.882   9.336   3.348
25077WAT      O75472   8.394   4.626   5.733
25077WAT     H175473   8.329   4.597   5.663
25077WAT     H275474   8.417   4.722   5.718
25078WAT      O75475   5.039   8.071   1.398
25078WAT     H175476   5.035   7.974   1.419
25078WAT     H275477   5.091   8.119   1.469
25079WAT      O75478   2.666   0.376   5.082
25079WAT     H175479   2.660   0.437   5.002
25079WAT     H275480   2.726   0.299   5.061
25080WAT      O75481   6.803   6.703   1.614
25080WAT     H175482   6.769   6.752   1.534
25080WAT     H275483   6.744   6.624   1.633
25081WAT      O75484   5.712   9.008   8.417
25081WAT     H175485   5.783   9.069   8.383
25081WAT     H275486   5.752   8.918   8.436
25082WAT      O75487   3.871   0.862   1.628
25082WAT     H175488   3.847   0.843   1.533
25082WAT     H275489   3.797   0.829   1.688
25083WAT      O75490   5.933   9.094   6.978
25083WAT     H175491   5.973   9.152   6.907
25083WAT     H275492   5.887   9.151   7.046
25084WAT      O75493   7.396   4.648   9.096
25084WAT     H175494   7.366   4.736   9.058
25084WAT     H275495   7.424   4.661   9.191
25085WAT      O75496   8.663   0.612   0.580
25085WAT     H175497   8.618   0.629   0.667
25085WAT     H275498   8.754   0.654   0.581
25086WAT      O75499   0.011   5.419   5.022
25086WAT     H175500   0.047   5.415   5.115
25086WAT     H275501  -0.086   5.394   5.023
25087WAT      O75502   4.199   7.703   7.605
25087WAT     H175503   4.187   7.798   7.633
25087WAT     H275504   4.210   7.645   7.685
25088WAT      O75505   5.369   7.741   4.437
25088WAT     H175506   5.288   7.798   4.425
25088WAT     H275507   5.410   7.758   4.527
25089WAT      O75508   4.284   2.281   6.044
25089WAT     H175509   4.237   2.216   5.984
25089WAT     H275510   4.221   2.314   6.114
25090WAT      O75511   1.656   3.148   9.676
25090WAT     H175512   1.739   3.098   9.652
25090WAT     H275513   1.603   3.166   9.593
25091WAT      O75514   8.719   9.405   5.163
25091WAT     H175515   8.815   9.377   5.164
25091WAT     H275516   8.677   9.374   5.078
25092WAT      O75517   1.744   4.968   1.558
25092WAT     H175518   1.814   4.914   1.604
25092WAT     H275519   1.781   5.006   1.473
25093WAT      O75520   1.745   5.696   5.125
25093WAT     H175521   1.760   5.795   5.117
25093WAT     H275522   1.804   5.648   5.061
25094WAT      O75523   5.960   0.078   5.093
25094WAT     H175524   5.871   0.068   5.048
25094WAT     H275525   5.946   0.084   5.192
25095WAT      O75526   2.798   3.859   9.510
25095WAT     H175527   2.755   3.923   9.574
25095WAT     H275528   2.801   3.901   9.419
25096WAT      O75529   3.191   2.394   5.515
25096WAT     H175530   3.120   2.353   5.458
25096WAT     H275531   3.163   2.488   5.539
25097WAT      O75532   1.506   5.827   0.666
25097WAT     H175533   1.567   5.876   0.728
25097WAT     H275534   1.452   5.893   0.613
25098WAT      O75535   2.569   0.802   4.038
25098WAT     H175536   2.596   0.849   4.122
25098WAT     H275537   2.644   0.744   4.007
25099WAT      O75538   9.524   1.269   5.770
25099WAT     H175539   9.425   1.258   5.772
25099WAT     H275540   9.566   1.186   5.734
25100WAT      O75541   4.673   3.465   8.371
25100WAT     H175542   4.624   3.533   8.426
25100WAT     H275543   4.681   3.380   8.424
25101WAT      O75544   1.505   8.455   6.955
25101WAT     H175545   1.528   8.379   6.895
25101WAT     H275546   1.448   8.521   6.905
25102WAT      O75547   2.608   9.681   2.331
25102WAT     H175548   2.583   9.641   2.243
25102WAT     H275549   2.525   9.715   2.377
25103WAT      O75550   3.535   6.365   8.032
25103WAT     H175551   3.456   6.383   8.090
25103WAT     H275552   3.619   6.388   8.082
25104WAT      O75553   8.225   3.811   2.040
25104WAT     H175554   8.292   3.858   2.097
25104WAT     H275555   8.164   3.879   1.997
25105WAT      O75556   1.204   4.028   7.000
25105WAT     H175557   1.219   4.038   7.098
25105WAT     H275558   1.122   3.972   6.984
25106WAT      O75559   9.683   2.053   0.580
25106WAT     H175560   9.592   2.061   0.621
25106WAT     H275561   9.731   2.141   0.586
25107WAT      O75562   7.549   7.289   0.486
25107WAT     H175563   7.581   7.346   0.410
25107WAT     H275564   7.618   7.287   0.558
25108WAT      O75565   5.039   3.608   0.069
25108WAT     H175566   5.090   3.637   0.150
25108WAT     H275567   4.942   3.605   0.090
25109WAT      O75568   3.883   7.585   5.733
25109WAT     H175569   3.840   7.659   5.785
25109WAT     H275570   3.823   7.560   5.657
25110WAT      O75571   2.517   3.913   9.713
25110WAT     H175572   2.475   3.979   9.776
25110WAT     H275573   2.568   3.845   9.766
25111WAT      O75574   8.475   1.325   7.878
25111WAT     H175575   8.516   1.340   7.789
25111WAT     H275576   8.379   1.351   7.876
25112WAT      O75577   0.744   5.115   0.143
25112WAT     H175578   0.817   5.128   0.210
25112WAT     H275579   0.661   5.162   0.174
25113WAT      O75580   7.183   1.691   2.037
25113WAT     H175581   7.276   1.661   2.054
25113WAT     H275582   7.184   1.784   2.001
25114WAT      O75583   4.149   4.676   3.607
25114WAT     H175584   4.190   4.759   3.571
25114WAT     H275585   4.125   4.616   3.530
25115WAT      O75586   0.238   4.340   0.376
25115WAT     H175587   0.295   4.365   0.454
25115WAT     H275588   0.153   4.392   0.379
25116WAT      O75589   6.110   9.653   1.047
25116WAT     H175590   6.077   9.580   0.987
25116WAT     H275591   6.085   9.741   1.007
25117WAT      O75592   0.675   4.185   2.287
25117WAT     H175593   0.585   4.190   2.245
25117WAT     H275594   0.740   4.241   2.235
25118WAT      O75595   9.600   1.694   3.134
25118WAT     H175596   9.619   1.745   3.050
25118WAT     H275597   9.670   1.715   3.202
25119WAT      O75598   6.716   2.234   3.717
25119WAT     H175599   6.702   2.308   3.782
25119WAT     H275600   6.660   2.251   3.635
25120WAT      O75601   7.562   4.952   7.612
25120WAT     H175602   7.532   5.037   7.655
25120WAT     H275603   7.483   4.893   7.596
25121WAT      O75604   1.478   8.626   7.961
25121WAT     H175605   1.484   8.532   7.926
25121WAT     H275606   1.545   8.683   7.914
25122WAT      O75607   6.870   9.094   2.266
25122WAT     H175608   6.777   9.058   2.253
25122WAT     H275609   6.925   9.026   2.313
25123WAT      O75610   7.434   9.133   6.318
25123WAT     H175611   7.512   9.192   6.340
25123WAT     H275612   7.363   9.144   6.387
25124WAT      O75613   8.328   7.518   7.593
25124WAT     H175614   8.232   7.490   7.592
25124WAT     H275615   8.382   7.451   7.542
25125WAT      O75616   7.339   4.986   4.173
25125WAT     H175617   7.246   4.971   4.207
25125WAT     H275618   7.401   5.002   4.250
25126WAT      O75619   0.342   8.738   5.084
25126WAT     H175620   0.278   8.812   5.064
25126WAT     H275621   0.430   8.778   5.112
25127WAT      O75622   7.222   1.609   6.484
25127WAT     H175623   7.161   1.672   6.435
25127WAT     H275624   7.184   1.517   6.480
25128WAT      O75625   9.046   2.924   9.547
25128WAT     H175626   8.975   2.865   9.587
25128WAT     H275627   9.083   2.880   9.465
25129WAT      O75628   6.899   3.795   8.083
25129WAT     H175629   6.880   3.790   7.985
25129WAT     H275630   6.832   3.854   8.127
25130WAT      O75631   2.806   0.371   5.922
25130WAT     H175632   2.743   0.327   5.858
25130WAT     H275633   2.755   0.404   6.002
25131WAT      O75634   2.514   3.365   3.075
25131WAT     H175635   2.443   3.372   3.144
25131WAT     H275636   2.483   3.306   3.001
25132WAT      O75637   5.736   8.931   1.800
25132WAT     H175638   5.650   8.895   1.834
25132WAT     H275639   5.726   8.957   1.704
25133WAT      O75640   0.805   1.032   4.724
25133WAT     H175641   0.736   0.976   4.677
25133WAT     H275642   0.804   1.011   4.821
25134WAT      O75643   7.151   3.061   2.956
25134WAT     H175644   7.147   3.138   2.892
25134WAT     H275645   7.243   3.052   2.992
25135WAT      O75646   2.268   7.243   1.368
25135WAT     H175647   2.222   7.302   1.302
25135WAT     H275648   2.200   7.189   1.418
25136WAT      O75649   9.215   9.597   8.334
25136WAT     H175650   9.140   9.661   8.347
25136WAT     H275651   9.187   9.526   8.269
25137WAT      O75652   1.161   5.981   0.767
25137WAT     H175653   1.166   5.883   0.784
25137WAT     H275654   1.171   6.031   0.853
25138WAT      O75655   7.233   0.741   8.897
25138WAT     H175656   7.251   0.645   8.873
25138WAT     H275657   7.281   0.800   8.833
25139WAT      O75658   0.331   6.039   4.532
25139WAT     H175659   0.297   6.011   4.622
25139WAT     H275660   0.420   5.997   4.515
25140WAT      O75661   4.349   0.596   1.677
25140WAT     H175662   4.448   0.609   1.679
25140WAT     H275663   4.304   0.679   1.644
25141WAT      O75664   1.596   2.827   1.443
25141WAT     H175665   1.580   2.780   1.357
25141WAT     H275666   1.590   2.761   1.519
25142WAT      O75667   5.668   9.359   3.056
25142WAT     H175668   5.626   9.287   3.111
25142WAT     H275669   5.596   9.411   3.008
25143WAT      O75670   5.587   8.309   0.013
25143WAT     H175671   5.678   8.350   0.009
25143WAT     H275672   5.591   8.216  -0.022
25144WAT      O75673   9.452   6.111   9.440
25144WAT     H175674   9.481   6.032   9.386
25144WAT     H275675   9.375   6.156   9.395
25145WAT      O75676   1.708   2.261   0.079
25145WAT     H175677   1.716   2.357   0.106
25145WAT     H275678   1.798   2.217   0.086
25146WAT      O75679   8.913   3.409   1.672
25146WAT     H175680   8.868   3.449   1.752
25146WAT     H275681   8.930   3.480   1.604
25147WAT      O75682   7.253   0.628   4.182
25147WAT     H175683   7.195   0.547   4.183
25147WAT     H275684   7.326   0.616   4.114
25148WAT      O75685   0.507   4.498   5.342
25148WAT     H175686   0.558   4.464   5.263
25148WAT     H275687   0.414   4.461   5.340
25149WAT      O75688   3.709   4.855   2.599
25149WAT     H175689   3.696   4.803   2.515
25149WAT     H275690   3.627   4.910   2.617
25150WAT      O75691   5.546   6.789   7.063
25150WAT     H175692   5.607   6.857   7.021
25150WAT     H275693   5.538   6.807   7.161
25151WAT      O75694   7.990   1.480   9.800
25151WAT     H175695   7.965   1.435   9.714
25151WAT     H275696   7.911   1.532   9.834
25152WAT      O75697   7.856   2.212   2.033
25152WAT     H175698   7.801   2.295   2.044
25152WAT     H275699   7.937   2.217   2.091
25153WAT      O75700   2.066   7.623   4.318
25153WAT     H175701   2.008   7.677   4.380
25153WAT     H275702   2.118   7.685   4.260
25154WAT      O75703   9.162   6.139   6.944
25154WAT     H175704   9.099   6.111   6.872
25154WAT     H275705   9.256   6.134   6.910
25155WAT      O75706   4.077   7.094   9.703
25155WAT     H175707   4.089   7.007   9.751
25155WAT     H275708   4.071   7.076   9.605
25156WAT      O75709   8.914   5.339   9.372
25156WAT     H175710   8.869   5.386   9.296
25156WAT     H275711   8.845   5.290   9.426
25157WAT      O75712   8.870   5.532   7.775
25157WAT     H175713   8.955   5.582   7.760
25157WAT     H275714   8.818   5.529   7.690
25158WAT      O75715   3.466   8.929   2.457
25158WAT     H175716   3.542   8.964   2.402
25158WAT     H275717   3.501   8.872   2.531
25159WAT      O75718   7.045   6.748   2.375
25159WAT     H175719   7.003   6.675   2.427
25159WAT     H275720   6.998   6.834   2.393
25160WAT      O75721   3.951   9.822   6.956
25160WAT     H175722   3.901   9.809   6.871
25160WAT     H275723   4.044   9.854   6.936
25161WAT      O75724   9.154   5.903   6.358
25161WAT     H175725   9.139   5.882   6.262
25161WAT     H275726   9.071   5.882   6.410
25162WAT      O75727   1.990   7.764   8.635
25162WAT     H175728   1.981   7.752   8.536
25162WAT     H275729   2.057   7.699   8.670
25163WAT      O75730   5.124   6.463   2.663
25163WAT     H175731   5.027   6.476   2.686
25163WAT     H275732   5.176   6.541   2.698
25164WAT      O75733   1.682   7.046   2.252
25164WAT     H175734   1.718   6.988   2.324
25164WAT     H275735   1.584   7.031   2.243
25165WAT      O75736   8.193   2.993   4.029
25165WAT     H175737   8.118   3.032   3.976
25165WAT     H275738   8.166   2.903   4.064
25166WAT      O75739   9.086   0.965   5.161
25166WAT     H175740   9.160   0.913   5.119
25166WAT     H275741   9.047   1.028   5.094
25167WAT      O75742   9.452   2.807   5.208
25167WAT     H175743   9.498   2.746   5.273
25167WAT     H275744   9.520   2.854   5.152
25168WAT      O75745   8.978   7.394   4.787
25168WAT     H175746   9.071   7.362   4.766
25168WAT     H275747   8.944   7.347   4.868
25169WAT      O75748   6.288   7.343   5.607
25169WAT     H175749   6.301   7.440   5.586
25169WAT     H275750   6.221   7.304   5.543
25170WAT      O75751   3.666   1.634   5.529
25170WAT     H175752   3.629   1.589   5.448
25170WAT     H275753   3.595   1.642   5.599
25171WAT      O75754   3.226   5.175   0.320
25171WAT     H175755   3.241   5.136   0.229
25171WAT     H275756   3.171   5.112   0.374
25172WAT      O75757   0.563   0.414   8.771
25172WAT     H175758   0.513   0.331   8.799
25172WAT     H275759   0.660   0.393   8.764
25173WAT      O75760   2.885   7.120   7.214
25173WAT     H175761   2.916   7.031   7.179
25173WAT     H275762   2.935   7.193   7.168
25174WAT      O75763   2.268   2.678   2.354
25174WAT     H175764   2.237   2.637   2.268
25174WAT     H275765   2.348   2.736   2.336
25175WAT      O75766   1.318   2.715   6.516
25175WAT     H175767   1.409   2.756   6.519
25175WAT     H275768   1.249   2.787   6.510
25176WAT      O75769   5.568   8.600   3.472
25176WAT     H175770   5.525   8.661   3.405
25176WAT     H275771   5.573   8.646   3.560
25177WAT      O75772   7.070   9.711   0.045
25177WAT     H175773   7.044   9.659   0.127
25177WAT     H275774   6.989   9.739  -0.004
25178WAT      O75775   3.683   2.305   8.278
25178WAT     H175776   3.753   2.355   8.226
25178WAT     H275777   3.699   2.317   8.376
25179WAT      O75778   7.942   3.307   1.661
25179WAT     H175779   8.034   3.300   1.699
25179WAT     H275780   7.926   3.400   1.627
25180WAT      O75781   1.158   6.948   1.832
25180WAT     H175782   1.200   6.879   1.773
25180WAT     H275783   1.224   6.978   1.901
25181WAT      O75784   2.705   2.401   8.936
25181WAT     H175785   2.748   2.331   8.879
25181WAT     H275786   2.707   2.489   8.889
25182WAT      O75787   1.057   8.103   1.580
25182WAT     H175788   0.978   8.138   1.530
25182WAT     H275789   1.127   8.174   1.587
25183WAT      O75790   7.001   6.645   4.210
25183WAT     H175791   6.927   6.632   4.143
25183WAT     H275792   7.019   6.743   4.221
25184WAT      O75793   9.730   3.790   1.173
25184WAT     H175794   9.643   3.838   1.184
25184WAT     H275795   9.713   3.694   1.151
25185WAT      O75796   9.839   2.772   9.385
25185WAT     H175797   9.916   2.765   9.449
25185WAT     H275798   9.775   2.696   9.401
25186WAT      O75799   1.660   9.613   3.456
25186WAT     H175800   1.629   9.602   3.361
25186WAT     H275801   1.718   9.536   3.481
25187WAT      O75802   4.890   6.972   1.492
25187WAT     H175803   4.957   7.008   1.556
25187WAT     H275804   4.900   7.017   1.403
25188WAT      O75805   7.535   7.034   0.389
25188WAT     H175806   7.633   7.017   0.379
25188WAT     H275807   7.518   7.132   0.394
25189WAT      O75808   3.487   2.679   5.590
25189WAT     H175809   3.518   2.717   5.503
25189WAT     H275810   3.562   2.631   5.634
25190WAT      O75811   3.046   3.893   1.306
25190WAT     H175812   3.127   3.876   1.250
25190WAT     H275813   3.028   3.991   1.310
25191WAT      O75814   6.044   9.759   2.553
25191WAT     H175815   5.963   9.786   2.605
25191WAT     H275816   6.124   9.808   2.589
25192WAT      O75817   0.271   8.145   6.983
25192WAT     H175818   0.210   8.066   6.983
25192WAT     H275819   0.290   8.172   6.888
25193WAT      O75820   1.599   7.684   6.953
25193WAT     H175821   1.504   7.704   6.927
25193WAT     H275822   1.612   7.586   6.962
25194WAT      O75823   7.782   1.581   3.887
25194WAT     H175824   7.756   1.677   3.874
25194WAT     H275825   7.863   1.576   3.945
25195WAT      O75826   0.744   6.241   7.239
25195WAT     H175827   0.759   6.189   7.155
25195WAT     H275828   0.815   6.311   7.248
25196WAT      O75829   2.092   9.549   2.159
25196WAT     H175830   2.079   9.569   2.062
25196WAT     H275831   2.159   9.476   2.169
25197WAT      O75832   2.677   4.076   5.757
25197WAT     H175833   2.732   3.993   5.766
25197WAT     H275834   2.582   4.055   5.780
25198WAT      O75835   4.101   0.569   0.616
25198WAT     H175836   4.114   0.632   0.540
25198WAT     H275837   4.185   0.564   0.670
25199WAT      O75838   6.247   4.765   4.552
25199WAT     H175839   6.233   4.669   4.531
25199WAT     H275840   6.318   4.802   4.491
25200WAT      O75841   5.504   6.743   3.400
25200WAT     H175842   5.561   6.813   3.444
25200WAT     H275843   5.516   6.749   3.301
25201WAT      O75844   0.849   2.214   1.968
25201WAT     H175845   0.846   2.114   1.973
25201WAT     H275846   0.785   2.246   1.899
25202WAT      O75847   5.455   6.209   0.225
25202WAT     H175848   5.457   6.306   0.198
25202WAT     H275849   5.415   6.200   0.316
25203WAT      O75850   2.646   4.417   9.267
25203WAT     H175851   2.726   4.477   9.260
25203WAT     H275852   2.676   4.327   9.299
25204WAT      O75853   8.731   9.532   1.525
25204WAT     H175854   8.730   9.534   1.425
25204WAT     H275855   8.826   9.534   1.558
25205WAT      O75856   7.818   6.393   1.783
25205WAT     H175857   7.838   6.338   1.863
25205WAT     H275858   7.773   6.478   1.811
25206WAT      O75859   3.089   0.298   2.064
25206WAT     H175860   3.039   0.298   1.977
25206WAT     H275861   3.164   0.232   2.059
25207WAT      O75862   8.256   6.691   2.037
25207WAT     H175863   8.269   6.603   2.083
25207WAT     H275864   8.211   6.676   1.949
25208WAT      O75865   9.155   2.703   1.734
25208WAT     H175866   9.182   2.637   1.664
25208WAT     H275867   9.150   2.657   1.822
25209WAT      O75868   5.568   6.568   9.026
25209WAT     H175869   5.658   6.525   9.016
25209WAT     H275870   5.496   6.500   9.011
25210WAT      O75871   2.276   2.721   3.897
25210WAT     H175872   2.354   2.719   3.834
25210WAT     H275873   2.291   2.793   3.965
25211WAT      O75874   7.215   0.555   1.406
25211WAT     H175875   7.170   0.589   1.488
25211WAT     H275876   7.286   0.488   1.431
25212WAT      O75877   5.702   3.536   7.698
25212WAT     H175878   5.767   3.460   7.686
25212WAT     H275879   5.746   3.610   7.749
25213WAT      O75880   1.231   6.184   7.257
25213WAT     H175881   1.214   6.154   7.351
25213WAT     H275882   1.198   6.278   7.245
25214WAT      O75883   9.534   4.442   5.692
25214WAT     H175884   9.588   4.409   5.770
25214WAT     H275885   9.567   4.398   5.608
25215WAT      O75886   4.096   9.110   3.465
25215WAT     H175887   4.004   9.128   3.500
25215WAT     H275888   4.097   9.022   3.418
25216WAT      O75889   9.182   1.972   1.637
25216WAT     H175890   9.211   1.966   1.542
25216WAT     H275891   9.095   1.923   1.648
25217WAT      O75892   5.758   0.619   5.636
25217WAT     H175893   5.763   0.552   5.711
25217WAT     H275894   5.828   0.598   5.568
25218WAT      O75895   1.031   2.277   7.693
25218WAT     H175896   1.128   2.295   7.712
25218WAT     H275897   0.990   2.232   7.773
25219WAT      O75898   4.114   0.044   9.258
25219WAT     H175899   4.121   0.089   9.169
25219WAT     H275900   4.066   0.104   9.322
25220WAT      O75901   3.931   8.864   5.848
25220WAT     H175902   3.900   8.769   5.840
25220WAT     H275903   3.852   8.924   5.851
25221WAT      O75904   1.589   2.885   0.354
25221WAT     H175905   1.579   2.877   0.453
25221WAT     H275906   1.606   2.794   0.315
25222WAT      O75907   2.933   4.003   2.528
25222WAT     H175908   2.863   4.072   2.551
25222WAT     H275909   2.977   4.028   2.442
25223WAT      O75910   8.509   2.213   3.587
25223WAT     H175911   8.439   2.226   3.658
25223WAT     H275912   8.565   2.133   3.610
25224WAT      O75913   4.569   7.727   4.509
25224WAT     H175914   4.625   7.696   4.586
25224WAT     H275915   4.614   7.804   4.464
25225WAT      O75916   4.724   0.829   0.163
25225WAT     H175917   4.672   0.859   0.083
25225WAT     H275918   4.677   0.856   0.247
25226WAT      O75919   2.278   9.110   3.027
25226WAT     H175920   2.316   9.029   3.070
25226WAT     H275921   2.200   9.084   2.969
25227WAT      O75922   1.698   3.327   7.918
25227WAT     H175923   1.768   3.389   7.883
25227WAT     H275924   1.648   3.372   7.991
25228WAT      O75925   5.229   4.915   7.650
25228WAT     H175926   5.142   4.868   7.633
25228WAT     H275927   5.303   4.848   7.651
25229WAT      O75928   1.683   5.711   2.240
25229WAT     H175929   1.740   5.661   2.174
25229WAT     H275930   1.593   5.726   2.200
25230WAT      O75931   5.359   7.375   2.103
25230WAT     H175932   5.340   7.342   2.011
25230WAT     H275933   5.389   7.470   2.100
25231WAT      O75934   1.281   5.200   7.478
25231WAT     H175935   1.267   5.192   7.380
25231WAT     H275936   1.377   5.223   7.496
25232WAT      O75937   1.020   3.529   9.052
25232WAT     H175938   0.932   3.574   9.036
25232WAT     H275939   1.086   3.595   9.086
25233WAT      O75940   3.847   6.318   8.114
25233WAT     H175941   3.858   6.285   8.020
25233WAT     H275942   3.921   6.381   8.136
25234WAT      O75943   6.707   3.352   4.766
25234WAT     H175944   6.614   3.324   4.740
25234WAT     H275945   6.704   3.440   4.813
25235WAT      O75946   6.950   5.825   7.001
25235WAT     H175947   6.936   5.820   7.100
25235WAT     H275948   7.047   5.841   6.982
25236WAT      O75949   3.818   0.523   5.804
25236WAT     H175950   3.736   0.468   5.785
25236WAT     H275951   3.871   0.533   5.720
25237WAT      O75952   7.611   7.427   0.270
25237WAT     H175953   7.699   7.473   0.257
25237WAT     H275954   7.538   7.495   0.275
25238WAT      O75955   2.087   3.159   3.129
25238WAT     H175956   2.161   3.128   3.189
25238WAT     H275957   2.120   3.234   3.071
25239WAT      O75958   8.640   5.762   1.989
25239WAT     H175959   8.605   5.700   2.059
25239WAT     H275960   8.725   5.803   2.021
25240WAT      O75961   1.760   6.794   1.469
25240WAT     H175962   1.858   6.775   1.480
25240WAT     H275963   1.726   6.747   1.387
25241WAT      O75964   7.557   2.844   9.799
25241WAT     H175965   7.643   2.896   9.799
25241WAT     H275966   7.485   2.899   9.840
25242WAT      O75967   2.172   7.395   4.658
25242WAT     H175968   2.241   7.415   4.728
25242WAT     H275969   2.209   7.330   4.592
25243WAT      O75970   6.430   6.964   7.889
25243WAT     H175971   6.366   6.986   7.816
25243WAT     H275972   6.392   6.994   7.977
25244WAT      O75973   8.430   7.393   1.284
25244WAT     H175974   8.456   7.423   1.376
25244WAT     H275975   8.476   7.307   1.263
25245WAT      O75976   5.743   4.130   9.826
25245WAT     H175977   5.785   4.215   9.859
25245WAT     H275978   5.796   4.052   9.859
25246WAT      O75979   0.725   0.167   6.402
25246WAT     H175980   0.682   0.094   6.348
25246WAT     H275981   0.822   0.146   6.416
25247WAT      O75982   7.479   6.182   3.489
25247WAT     H175983   7.439   6.103   3.443
25247WAT     H275984   7.528   6.238   3.422
25248WAT      O75985   8.686   7.902   2.431
25248WAT     H175986   8.667   8.000   2.444
25248WAT     H275987   8.621   7.864   2.366
25249WAT      O75988   9.060   4.426   2.525
25249WAT     H175989   9.032   4.334   2.552
25249WAT     H275990   9.151   4.446   2.562
25250WAT      O75991   5.407   5.364   6.818
25250WAT     H175992   5.445   5.457   6.819
25250WAT     H275993   5.375   5.340   6.910
25251WAT      O75994   1.932   0.919   4.724
25251WAT     H175995   1.934   0.819   4.730
25251WAT     H275996   1.838   0.950   4.712
25252WAT      O75997   5.219   0.970   4.271
25252WAT     H175998   5.126   0.935   4.260
25252WAT     H275999   5.282   0.894   4.287
25253WAT      O76000   9.764   3.301   0.065
25253WAT     H176001   9.834   3.283  -0.003
25253WAT     H276002   9.794   3.266   0.154
25254WAT      O76003   1.961   6.007   1.226
25254WAT     H176004   1.918   5.930   1.274
25254WAT     H276005   2.029   6.049   1.286
25255WAT      O76006   5.992   3.504   6.905
25255WAT     H176007   5.977   3.536   6.811
25255WAT     H276008   5.983   3.582   6.968
25256WAT      O76009   5.441   9.383   0.622
25256WAT     H176010   5.525   9.425   0.588
25256WAT     H276011   5.408   9.433   0.702
25257WAT      O76012   8.308   9.589   9.244
25257WAT     H176013   8.392   9.538   9.226
25257WAT     H276014   8.327   9.666   9.304
25258WAT      O76015   3.450   9.694   4.799
25258WAT     H176016   3.477   9.628   4.729
25258WAT     H276017   3.423   9.780   4.755
25259WAT      O76018   3.815   7.991   2.790
25259WAT     H176019   3.898   7.947   2.824
25259WAT     H276020   3.736   7.936   2.815
25260WAT      O76021   4.668   3.584   5.638
25260WAT     H176022   4.654   3.586   5.737
25260WAT     H276023   4.634   3.668   5.597
25261WAT      O76024   3.120   7.694   8.494
25261WAT     H176025   3.172   7.638   8.558
25261WAT     H276026   3.027   7.705   8.527
25262WAT      O76027   5.720   2.336   5.267
25262WAT     H176028   5.814   2.369   5.252
25262WAT     H276029   5.656   2.412   5.256
25263WAT      O76030   4.729   2.992   6.760
25263WAT     H176031   4.738   3.049   6.677
25263WAT     H276032   4.723   3.051   6.840
25264WAT      O76033   4.729   9.712   8.504
25264WAT     H176034   4.630   9.711   8.489
25264WAT     H276035   4.767   9.797   8.468
25265WAT      O76036   3.686   0.488   9.799
25265WAT     H176037   3.681   0.397   9.759
25265WAT     H276038   3.779   0.505   9.831
25266WAT      O76039   2.587   7.226   4.758
25266WAT     H176040   2.610   7.322   4.765
25266WAT     H276041   2.659   7.170   4.799
25267WAT      O76042   6.590   2.901   0.732
25267WAT     H176043   6.565   2.863   0.821
25267WAT     H276044   6.552   2.844   0.660
25268WAT      O76045   0.559   8.482   8.306
25268WAT     H176046   0.609   8.491   8.392
25268WAT     H276047   0.500   8.561   8.293
25269WAT      O76048   2.460   3.173   9.091
25269WAT     H176049   2.525   3.249   9.087
25269WAT     H276050   2.409   3.169   9.004
25270WAT      O76051   1.895   2.107   7.744
25270WAT     H176052   1.918   2.174   7.814
25270WAT     H276053   1.979   2.077   7.699
25271WAT      O76054   8.476   1.767   5.286
25271WAT     H176055   8.401   1.829   5.261
25271WAT     H276056   8.562   1.803   5.249
25272WAT      O76057   0.898   2.545   4.220
25272WAT     H176058   0.984   2.495   4.233
25272WAT     H276059   0.917   2.642   4.210
25273WAT      O76060   6.575   2.012   5.579
25273WAT     H176061   6.521   1.985   5.500
25273WAT     H276062   6.546   2.103   5.610
25274WAT      O76063   4.913   6.274   2.803
25274WAT     H176064   4.963   6.199   2.761
25274WAT     H276065   4.963   6.308   2.883
25275WAT      O76066   4.035   6.509   5.233
25275WAT     H176067   4.075   6.568   5.303
25275WAT     H276068   4.074   6.417   5.241
25276WAT      O76069   9.861   9.507   8.467
25276WAT     H176070   9.819   9.502   8.558
25276WAT     H276071   9.933   9.577   8.467
25277WAT      O76072   5.970   6.253   2.953
25277WAT     H176073   5.949   6.343   2.915
25277WAT     H276074   5.982   6.261   3.052
25278WAT      O76075   6.347   8.819   2.098
25278WAT     H176076   6.431   8.817   2.152
25278WAT     H276077   6.270   8.839   2.157
25279WAT      O76078   7.371   9.082   0.483
25279WAT     H176079   7.457   9.034   0.494
25279WAT     H276080   7.365   9.122   0.392
25280WAT      O76081   9.206   1.415   2.839
25280WAT     H176082   9.238   1.392   2.931
25280WAT     H276083   9.259   1.365   2.772
25281WAT      O76084   1.994   4.644   2.469
25281WAT     H176085   1.913   4.619   2.415
25281WAT     H276086   2.034   4.562   2.508
25282WAT      O76087   9.408   7.199   1.692
25282WAT     H176088   9.331   7.167   1.747
25282WAT     H276089   9.404   7.155   1.602
25283WAT      O76090   1.667   4.094   0.040
25283WAT     H176091   1.763   4.092   0.013
25283WAT     H276092   1.630   4.186   0.031
25284WAT      O76093   2.274   1.751   8.301
25284WAT     H176094   2.229   1.664   8.284
25284WAT     H276095   2.222   1.803   8.369
25285WAT      O76096   8.205   0.619   3.838
25285WAT     H176097   8.185   0.564   3.919
25285WAT     H276098   8.154   0.705   3.842
25286WAT      O76099   9.303   1.851   3.788
25286WAT     H176100   9.324   1.926   3.726
25286WAT     H276101   9.206   1.829   3.782
25287WAT      O76102   4.775   2.399   5.440
25287WAT     H176103   4.690   2.441   5.409
25287WAT     H276104   4.849   2.424   5.378
25288WAT      O76105   0.509   5.661   3.581
25288WAT     H176106   0.593   5.607   3.575
25288WAT     H276107   0.494   5.689   3.675
25289WAT      O76108   8.400   3.104   8.135
25289WAT     H176109   8.361   3.015   8.112
25289WAT     H276110   8.329   3.175   8.128
25290WAT      O76111   4.394   9.668   7.557
25290WAT     H176112   4.308   9.720   7.551
25290WAT     H276113   4.440   9.669   7.468
25291WAT      O76114   9.422   8.560   3.407
25291WAT     H176115   9.495   8.492   3.411
25291WAT     H276116   9.353   8.541   3.477
25292WAT      O76117   0.401   4.011   3.807
25292WAT     H176118   0.347   4.053   3.880
25292WAT     H276119   0.486   3.975   3.845
25293WAT      O76120   5.152   3.689   7.171
25293WAT     H176121   5.097   3.773   7.165
25293WAT     H276122   5.091   3.610   7.174
25294WAT      O76123   0.841   9.370   1.041
25294WAT     H176124   0.924   9.335   1.084
25294WAT     H276125   0.769   9.300   1.045
25295WAT      O76126   6.481   8.857   8.539
25295WAT     H176127   6.393   8.834   8.579
25295WAT     H276128   6.522   8.933   8.589
25296WAT      O76129   6.213   5.912   6.246
25296WAT     H176130   6.222   5.891   6.343
25296WAT     H276131   6.245   5.834   6.192
25297WAT      O76132   1.797   5.901   2.032
25297WAT     H176133   1.733   5.862   1.966
25297WAT     H276134   1.747   5.958   2.097
25298WAT      O76135   8.112   0.816   8.836
25298WAT     H176136   8.198   0.867   8.833
25298WAT     H276137   8.086   0.790   8.742
25299WAT      O76138   3.294   0.479   7.048
25299WAT     H176139   3.268   0.519   7.136
25299WAT     H276140   3.219   0.492   6.983
25300WAT      O76141   9.427   1.682   9.622
25300WAT     H176142   9.411   1.781   9.631
25300WAT     H276143   9.521   1.667   9.591
25301WAT      O76144   2.201   1.438   9.003
25301WAT     H176145   2.163   1.519   8.958
25301WAT     H276146   2.223   1.460   9.098
25302WAT      O76147   2.957   5.521   0.941
25302WAT     H176148   2.965   5.577   1.023
25302WAT     H276149   2.860   5.499   0.926
25303WAT      O76150   2.272   4.720   0.634
25303WAT     H176151   2.208   4.645   0.624
25303WAT     H276152   2.230   4.805   0.601
25304WAT      O76153   9.055   6.000   4.487
25304WAT     H176154   9.125   6.029   4.422
25304WAT     H276155   9.091   6.007   4.580
25305WAT      O76156   2.565   7.575   6.860
25305WAT     H176157   2.564   7.668   6.897
25305WAT     H276158   2.511   7.571   6.776
25306WAT      O76159   5.649   4.554   9.805
25306WAT     H176160   5.732   4.519   9.848
25306WAT     H276161   5.626   4.643   9.843
25307WAT      O76162   5.750   7.813   6.245
25307WAT     H176163   5.693   7.880   6.293
25307WAT     H276164   5.775   7.739   6.307
25308WAT      O76165   1.470   1.998   8.065
25308WAT     H176166   1.462   1.928   7.994
25308WAT     H276167   1.448   1.957   8.154
25309WAT      O76168   0.136   5.263   6.376
25309WAT     H176169   0.117   5.169   6.403
25309WAT     H276170   0.147   5.320   6.457
25310WAT      O76171   5.317   7.679   6.358
25310WAT     H176172   5.234   7.734   6.348
25310WAT     H276173   5.327   7.619   6.279
25311WAT      O76174   3.023   8.789   3.356
25311WAT     H176175   3.029   8.762   3.452
25311WAT     H276176   3.115   8.799   3.318
25312WAT      O76177   6.859   1.047   9.708
25312WAT     H176178   6.846   1.142   9.677
25312WAT     H276179   6.775   0.995   9.692
25313WAT      O76180   8.906   7.734   2.837
25313WAT     H176181   8.928   7.830   2.854
25313WAT     H276182   8.833   7.706   2.899
25314WAT      O76183   7.964   1.852   5.040
25314WAT     H176184   7.960   1.874   4.942
25314WAT     H276185   7.906   1.772   5.058
25315WAT      O76186   1.650   4.787   3.016
25315WAT     H176187   1.664   4.692   3.044
25315WAT     H276188   1.657   4.846   3.096
25316WAT      O76189   6.026   3.540   7.419
25316WAT     H176190   5.958   3.608   7.391
25316WAT     H276191   6.057   3.489   7.338
25317WAT      O76192   9.879   8.197   8.872
25317WAT     H176193   9.787   8.226   8.845
25317WAT     H276194   9.911   8.125   8.810
25318WAT      O76195   9.635   3.326   9.641
25318WAT     H176196   9.726   3.303   9.605
25318WAT     H276197   9.627   3.425   9.652
25319WAT      O76198   7.417   9.288   8.893
25319WAT     H176199   7.356   9.322   8.965
25319WAT     H276200   7.383   9.200   8.859
25320WAT      O76201   9.132   6.451   7.180
25320WAT     H176202   9.214   6.506   7.191
25320WAT     H276203   9.138   6.397   7.096
25321WAT      O76204   4.562   8.568   5.656
25321WAT     H176205   4.604   8.504   5.720
25321WAT     H276206   4.479   8.606   5.696
25322WAT      O76207   8.606   3.477   4.306
25322WAT     H176208   8.643   3.425   4.229
25322WAT     H276209   8.681   3.517   4.359
25323WAT      O76210   8.172   1.392   5.720
25323WAT     H176211   8.138   1.378   5.813
25323WAT     H276212   8.171   1.489   5.698
25324WAT      O76213   4.430   2.147   6.266
25324WAT     H176214   4.406   2.211   6.192
25324WAT     H276215   4.346   2.118   6.312
25325WAT      O76216   0.377   0.985   4.478
25325WAT     H176217   0.475   0.999   4.461
25325WAT     H276218   0.339   0.926   4.407
25326WAT      O76219   3.492   3.255   0.684
25326WAT     H176220   3.452   3.163   0.679
25326WAT     H276221   3.584   3.254   0.645
25327WAT      O76222   3.079   5.846   7.487
25327WAT     H176223   3.061   5.895   7.402
25327WAT     H276224   3.043   5.753   7.481
25328WAT      O76225   7.714   3.929   2.309
25328WAT     H176226   7.715   3.905   2.212
25328WAT     H276227   7.717   3.846   2.365
25329WAT      O76228   8.294   0.280   1.421
25329WAT     H176229   8.209   0.331   1.408
25329WAT     H276230   8.297   0.202   1.359
25330WAT      O76231   0.014   3.853   0.829
25330WAT     H176232   0.052   3.825   0.741
25330WAT     H276233   0.002   3.773   0.888
25331WAT      O76234   8.935   1.437   3.551
25331WAT     H176235   9.003   1.468   3.618
25331WAT     H276236   8.889   1.516   3.511
25332WAT      O76237   6.632   7.996   5.416
25332WAT     H176238   6.550   8.041   5.380
25332WAT     H276239   6.713   8.029   5.368
25333WAT      O76240   5.723   6.994   8.375
25333WAT     H176241   5.805   6.961   8.422
25333WAT     H276242   5.726   6.965   8.279
25334WAT      O76243   4.157   5.864   5.664
25334WAT     H176244   4.137   5.766   5.653
25334WAT     H276245   4.184   5.902   5.576
25335WAT      O76246   1.338   4.942   6.872
25335WAT     H176247   1.346   4.881   6.794
25335WAT     H276248   1.291   4.895   6.947
25336WAT      O76249   3.707   5.427   1.712
25336WAT     H176250   3.744   5.510   1.754
25336WAT     H276251   3.780   5.377   1.666
25337WAT      O76252   8.461   0.516   2.255
25337WAT     H176253   8.405   0.511   2.173
25337WAT     H276254   8.555   0.541   2.230
25338WAT      O76255   1.487   1.672   4.171
25338WAT     H176256   1.496   1.629   4.261
25338WAT     H276257   1.390   1.679   4.146
25339WAT      O76258   9.485   9.408   9.272
25339WAT     H176259   9.451   9.315   9.284
25339WAT     H276260   9.584   9.410   9.286
25340WAT      O76261   4.429   8.773   6.526
25340WAT     H176262   4.333   8.749   6.512
25340WAT     H276263   4.471   8.704   6.586
25341WAT      O76264   5.171   7.544   0.309
25341WAT     H176265   5.170   7.494   0.223
25341WAT     H276266   5.226   7.494   0.376
25342WAT      O76267   0.118   4.276   8.473
25342WAT     H176268   0.052   4.345   8.442
25342WAT     H276269   0.072   4.212   8.534
25343WAT      O76270   1.600   8.278   5.813
25343WAT     H176271   1.507   8.253   5.785
25343WAT     H276272   1.642   8.200   5.859
25344WAT      O76273   7.133   2.808   5.528
25344WAT     H176274   7.090   2.759   5.604
25344WAT     H276275   7.195   2.878   5.564
25345WAT      O76276   4.530   0.235   1.403
25345WAT     H176277   4.459   0.191   1.348
25345WAT     H276278   4.506   0.331   1.417
25346WAT      O76279   4.335   4.213   4.176
25346WAT     H176280   4.333   4.282   4.249
25346WAT     H276281   4.425   4.171   4.173
25347WAT      O76282   5.406   9.106   3.704
25347WAT     H176283   5.407   9.205   3.691
25347WAT     H276284   5.486   9.078   3.757
25348WAT      O76285   3.682   1.095   9.067
25348WAT     H176286   3.625   1.044   9.003
25348WAT     H276287   3.731   1.032   9.127
25349WAT      O76288   6.277   2.343   5.452
25349WAT     H176289   6.237   2.409   5.388
25349WAT     H276290   6.246   2.251   5.427
25350WAT      O76291   4.227   7.557   9.492
25350WAT     H176292   4.325   7.555   9.513
25350WAT     H276293   4.181   7.621   9.553
25351WAT      O76294   7.934   6.004   7.766
25351WAT     H176295   7.910   5.966   7.856
25351WAT     H276296   8.028   6.038   7.769
25352WAT      O76297   6.602   2.389   6.619
25352WAT     H176298   6.552   2.445   6.552
25352WAT     H276299   6.694   2.425   6.629
25353WAT      O76300   2.797   7.886   2.693
25353WAT     H176301   2.743   7.934   2.624
25353WAT     H276302   2.827   7.798   2.657
25354WAT      O76303   0.496   2.480   9.766
25354WAT     H176304   0.546   2.561   9.798
25354WAT     H276305   0.416   2.465   9.824
25355WAT      O76306   8.359   6.268   5.377
25355WAT     H176307   8.305   6.329   5.435
25355WAT     H276308   8.321   6.176   5.382
25356WAT      O76309   0.770   2.978   1.737
25356WAT     H176310   0.676   3.010   1.726
25356WAT     H276311   0.833   3.054   1.725
25357WAT      O76312   8.462   0.111   8.677
25357WAT     H176313   8.503   0.103   8.768
25357WAT     H276314   8.378   0.165   8.683
25358WAT      O76315   7.882   6.979   9.345
25358WAT     H176316   7.925   6.969   9.435
25358WAT     H276317   7.947   6.952   9.274
25359WAT      O76318   5.990   8.123   8.713
25359WAT     H176319   5.964   8.036   8.754
25359WAT     H276320   5.932   8.196   8.750
25360WAT      O76321   5.279   1.674   0.310
25360WAT     H176322   5.315   1.707   0.222
25360WAT     H276323   5.204   1.734   0.339
25361WAT      O76324   1.065   4.235   5.009
25361WAT     H176325   0.997   4.177   5.053
25361WAT     H276326   1.156   4.195   5.021
25362WAT      O76327   3.160   2.114   9.595
25362WAT     H176328   3.103   2.194   9.576
25362WAT     H276329   3.108   2.031   9.574
25363WAT      O76330   6.469   1.461   1.306
25363WAT     H176331   6.434   1.470   1.399
25363WAT     H276332   6.548   1.522   1.294
25364WAT      O76333   7.098   9.334   0.151
25364WAT     H176334   7.195   9.358   0.157
25364WAT     H276335   7.078   9.260   0.216
25365WAT      O76336   0.576   8.005   6.735
25365WAT     H176337   0.507   8.077   6.722
25365WAT     H276338   0.562   7.933   6.667
25366WAT      O76339   5.313   8.734   4.955
25366WAT     H176340   5.324   8.807   4.888
25366WAT     H276341   5.283   8.650   4.909
25367WAT      O76342   6.508   7.240   0.854
25367WAT     H176343   6.524   7.168   0.922
25367WAT     H276344   6.532   7.205   0.763
25368WAT      O76345   1.127   2.907   9.346
25368WAT     H176346   1.207   2.928   9.289
25368WAT     H276347   1.054   2.871   9.289
25369WAT      O76348   1.537   2.068   0.272
25369WAT     H176349   1.480   2.109   0.200
25369WAT     H276350   1.544   2.131   0.349
25370WAT      O76351   8.762   3.045   1.832
25370WAT     H176352   8.732   2.977   1.899
25370WAT     H276353   8.861   3.054   1.835
25371WAT      O76354   3.905   9.708   6.322
25371WAT     H176355   3.810   9.676   6.323
25371WAT     H276356   3.956   9.663   6.395
25372WAT      O76357   7.988   8.697   2.265
25372WAT     H176358   8.025   8.648   2.344
25372WAT     H276359   7.958   8.788   2.294
25373WAT      O76360   1.042   6.018   8.706
25373WAT     H176361   1.120   5.965   8.675
25373WAT     H276362   1.073   6.093   8.764
25374WAT      O76363   7.703   2.982   7.187
25374WAT     H176364   7.692   3.076   7.153
25374WAT     H276365   7.656   2.974   7.275
25375WAT      O76366   8.811   0.258   5.271
25375WAT     H176367   8.809   0.276   5.369
25375WAT     H276368   8.739   0.312   5.226
25376WAT      O76369   0.003   7.265   4.932
25376WAT     H176370  -0.010   7.209   5.013
25376WAT     H276371   0.101   7.278   4.916
25377WAT      O76372   9.237   3.661   7.814
25377WAT     H176373   9.238   3.738   7.879
25377WAT     H276374   9.328   3.621   7.808
25378WAT      O76375   9.505   8.930   1.260
25378WAT     H176376   9.415   8.923   1.216
25378WAT     H276377   9.504   8.879   1.346
25379WAT      O76378   4.508   6.022   4.544
25379WAT     H176379   4.546   5.930   4.535
25379WAT     H276380   4.410   6.019   4.523
25380WAT      O76381   1.235   3.062   1.185
25380WAT     H176382   1.261   2.977   1.231
25380WAT     H276383   1.268   3.060   1.090
25381WAT      O76384   4.697   3.987   9.198
25381WAT     H176385   4.751   3.931   9.262
25381WAT     H276386   4.740   4.077   9.188
25382WAT      O76387   4.417   1.170   6.165
25382WAT     H176388   4.430   1.153   6.068
25382WAT     H276389   4.335   1.121   6.197
25383WAT      O76390   3.585   6.933   8.310
25383WAT     H176391   3.580   6.997   8.233
25383WAT     H276392   3.637   6.852   8.282
25384WAT      O76393   4.200   4.554   5.525
25384WAT     H176394   4.101   4.540   5.528
25384WAT     H276395   4.246   4.468   5.547
25385WAT      O76396   6.643   9.289   3.927
25385WAT     H176397   6.567   9.340   3.968
25385WAT     H276398   6.661   9.325   3.836
25386WAT      O76399   1.474   0.113   8.598
25386WAT     H176400   1.432   0.123   8.508
25386WAT     H276401   1.427   0.040   8.648
25387WAT      O76402   4.556   5.775   0.167
25387WAT     H176403   4.580   5.872   0.158
25387WAT     H276404   4.622   5.730   0.227
25388WAT      O76405   4.501   7.173   9.571
25388WAT     H176406   4.432   7.226   9.620
25388WAT     H276407   4.459   7.091   9.533
25389WAT      O76408   3.675   3.606   9.436
25389WAT     H176409   3.644   3.534   9.374
25389WAT     H276410   3.676   3.694   9.388
25390WAT      O76411   5.450   4.065   1.899
25390WAT     H176412   5.536   4.025   1.929
25390WAT     H276413   5.427   4.033   1.807
25391WAT      O76414   9.546   0.709   9.281
25391WAT     H176415   9.582   0.648   9.352
25391WAT     H276416   9.450   0.729   9.300
25392WAT      O76417   6.459   9.552   1.561
25392WAT     H176418   6.463   9.459   1.525
25392WAT     H276419   6.482   9.617   1.489
25393WAT      O76420   6.389   2.961   7.327
25393WAT     H176421   6.385   2.901   7.407
25393WAT     H276422   6.463   3.027   7.338
25394WAT      O76423   7.625   2.629   9.130
25394WAT     H176424   7.606   2.578   9.045
25394WAT     H276425   7.709   2.595   9.171
25395WAT      O76426   7.892   2.651   5.239
25395WAT     H176427   7.809   2.684   5.284
25395WAT     H276428   7.943   2.729   5.201
25396WAT      O76429   5.120   2.559   5.181
25396WAT     H176430   5.038   2.605   5.147
25396WAT     H276431   5.101   2.518   5.270
25397WAT      O76432   4.877   2.797   3.175
25397WAT     H176433   4.871   2.890   3.140
25397WAT     H276434   4.873   2.733   3.099
25398WAT      O76435   0.495   6.800   6.178
25398WAT     H176436   0.422   6.789   6.111
25398WAT     H276437   0.570   6.737   6.158
25399WAT      O76438   3.438   2.999   0.690
25399WAT     H176439   3.494   2.989   0.609
25399WAT     H276440   3.433   2.911   0.739
25400WAT      O76441   3.557   3.977   1.475
25400WAT     H176442   3.626   4.048   1.461
25400WAT     H276443   3.597   3.901   1.525
25401WAT      O76444   1.750   5.117   3.502
25401WAT     H176445   1.798   5.176   3.437
25401WAT     H276446   1.812   5.048   3.538
25402WAT      O76447   5.081   4.363   5.034
25402WAT     H176448   5.143   4.364   5.113
25402WAT     H276449   5.071   4.455   4.998
25403WAT      O76450   5.690   3.326   3.763
25403WAT     H176451   5.596   3.307   3.736
25403WAT     H276452   5.690   3.395   3.836
25404WAT      O76453   1.227   3.154   9.852
25404WAT     H176454   1.324   3.135   9.835
25404WAT     H276455   1.203   3.125   9.944
25405WAT      O76456   7.022   9.614   5.596
25405WAT     H176457   7.044   9.528   5.642
25405WAT     H276458   7.077   9.622   5.513
25406WAT      O76459   0.430   4.577   3.957
25406WAT     H176460   0.369   4.632   3.901
25406WAT     H276461   0.499   4.534   3.899
25407WAT      O76462   2.778   3.837   1.663
25407WAT     H176463   2.803   3.891   1.743
25407WAT     H276464   2.827   3.750   1.665
25408WAT      O76465   5.037   4.504   1.270
25408WAT     H176466   5.078   4.529   1.182
25408WAT     H276467   4.946   4.464   1.254
25409WAT      O76468   4.028   9.562   6.517
25409WAT     H176469   3.992   9.472   6.491
25409WAT     H276470   4.126   9.554   6.534
25410WAT      O76471   2.624   3.759   3.586
25410WAT     H176472   2.645   3.696   3.511
25410WAT     H276473   2.626   3.853   3.552
25411WAT      O76474   0.241   6.637   3.201
25411WAT     H176475   0.294   6.692   3.266
25411WAT     H276476   0.202   6.557   3.247
25412WAT      O76477   7.002   5.991   1.106
25412WAT     H176478   7.001   5.927   1.183
25412WAT     H276479   6.922   5.976   1.048
25413WAT      O76480   8.726   9.581   7.903
25413WAT     H176481   8.807   9.563   7.959
25413WAT     H276482   8.746   9.654   7.837
25414WAT      O76483   1.979   3.090   6.337
25414WAT     H176484   1.951   3.142   6.256
25414WAT     H276485   2.074   3.111   6.359
25415WAT      O76486   9.237   3.732   1.406
25415WAT     H176487   9.165   3.670   1.437
25415WAT     H276488   9.266   3.708   1.314
25416WAT      O76489   6.203   5.670   4.277
25416WAT     H176490   6.272   5.621   4.225
25416WAT     H276491   6.155   5.606   4.338
25417WAT      O76492   7.532   4.848   2.366
25417WAT     H176493   7.603   4.786   2.332
25417WAT     H276494   7.554   4.942   2.338
25418WAT      O76495   6.639   8.922   9.430
25418WAT     H176496   6.708   8.927   9.502
25418WAT     H276497   6.561   8.867   9.462
25419WAT      O76498   0.844   6.504   5.185
25419WAT     H176499   0.792   6.589   5.172
25419WAT     H276500   0.868   6.495   5.282
25420WAT      O76501   3.266   6.518   2.837
25420WAT     H176502   3.229   6.611   2.842
25420WAT     H276503   3.201   6.458   2.792
25421WAT      O76504   2.796   3.134   0.184
25421WAT     H176505   2.839   3.150   0.273
25421WAT     H276506   2.785   3.036   0.169
25422WAT      O76507   0.145   4.588   6.445
25422WAT     H176508   0.122   4.516   6.379
25422WAT     H276509   0.086   4.579   6.525
25423WAT      O76510   9.859   6.028   3.852
25423WAT     H176511   9.881   6.126   3.855
25423WAT     H276512   9.931   5.977   3.900
25424WAT      O76513   2.711   4.383   7.847
25424WAT     H176514   2.778   4.431   7.791
25424WAT     H276515   2.747   4.373   7.940
25425WAT      O76516   2.031   2.256   9.182
25425WAT     H176517   2.063   2.338   9.133
25425WAT     H276518   2.005   2.186   9.116
25426WAT      O76519   4.424   0.673   3.656
25426WAT     H176520   4.360   0.711   3.723
25426WAT     H276521   4.397   0.579   3.634
25427WAT      O76522   6.006   0.537   4.281
25427WAT     H176523   6.066   0.617   4.290
25427WAT     H276524   5.927   0.561   4.224
25428WAT      O76525   7.447   4.774   9.354
25428WAT     H176526   7.481   4.735   9.440
25428WAT     H276527   7.521   4.775   9.286
25429WAT      O76528   3.393   3.163   1.366
25429WAT     H176529   3.467   3.176   1.299
25429WAT     H276530   3.375   3.250   1.413
25430WAT      O76531   3.826   7.033   1.391
25430WAT     H176532   3.862   7.037   1.298
25430WAT     H276533   3.863   6.953   1.437
25431WAT      O76534   6.289   8.573   1.411
25431WAT     H176535   6.368   8.540   1.359
25431WAT     H276536   6.231   8.495   1.436
25432WAT      O76537   3.298   3.668   5.442
25432WAT     H176538   3.282   3.730   5.365
25432WAT     H276539   3.337   3.719   5.518
25433WAT      O76540   0.562   0.301   2.814
25433WAT     H176541   0.586   0.344   2.727
25433WAT     H276542   0.537   0.371   2.880
25434WAT      O76543   1.174   9.348   6.963
25434WAT     H176544   1.150   9.251   6.950
25434WAT     H276545   1.271   9.361   6.946
25435WAT      O76546   2.722   9.747   8.640
25435WAT     H176547   2.810   9.699   8.648
25435WAT     H276548   2.652   9.682   8.610
25436WAT      O76549   8.594   2.666   4.536
25436WAT     H176550   8.638   2.756   4.546
25436WAT     H276551   8.496   2.675   4.556
25437WAT      O76552   0.397   8.784   5.587
25437WAT     H176553   0.352   8.870   5.612
25437WAT     H276554   0.346   8.739   5.515
25438WAT      O76555   7.290   8.605   6.136
25438WAT     H176556   7.303   8.683   6.075
25438WAT     H276557   7.354   8.612   6.213
25439WAT      O76558   2.472   7.700   4.727
25439WAT     H176559   2.551   7.704   4.665
25439WAT     H276560   2.388   7.691   4.674
25440WAT      O76561   8.760   3.569   1.821
25440WAT     H176562   8.666   3.534   1.824
25440WAT     H276563   8.768   3.640   1.751
25441WAT      O76564   9.181   7.760   0.249
25441WAT     H176565   9.108   7.729   0.188
25441WAT     H276566   9.211   7.683   0.305
25442WAT      O76567   1.215   8.244   2.099
25442WAT     H176568   1.241   8.276   2.190
25442WAT     H276569   1.223   8.318   2.033
25443WAT      O76570   5.239   4.234   8.858
25443WAT     H176571   5.286   4.287   8.787
25443WAT     H276572   5.146   4.269   8.868
25444WAT      O76573   0.167   1.204   8.459
25444WAT     H176574   0.197   1.263   8.384
25444WAT     H276575   0.073   1.226   8.483
25445WAT      O76576   2.048   4.988   6.694
25445WAT     H176577   2.081   5.080   6.670
25445WAT     H276578   2.113   4.945   6.757
25446WAT      O76579   7.144   5.421   8.258
25446WAT     H176580   7.122   5.511   8.295
25446WAT     H276581   7.214   5.429   8.187
25447WAT      O76582   6.228   4.071   5.959
25447WAT     H176583   6.133   4.093   5.937
25447WAT     H276584   6.270   4.024   5.881
25448WAT      O76585   9.315   7.680   2.790
25448WAT     H176586   9.405   7.638   2.780
25448WAT     H276587   9.326   7.775   2.820
25449WAT      O76588   8.938   3.509   3.096
25449WAT     H176589   8.950   3.569   3.175
25449WAT     H276590   9.000   3.537   3.023
25450WAT      O76591   2.168   1.037   5.191
25450WAT     H176592   2.129   1.029   5.099
25450WAT     H276593   2.129   0.965   5.249
25451WAT      O76594   3.213   1.091   6.342
25451WAT     H176595   3.308   1.102   6.313
25451WAT     H276596   3.153   1.141   6.279
25452WAT      O76597   3.769   6.122   2.195
25452WAT     H176598   3.700   6.180   2.237
25452WAT     H276599   3.744   6.105   2.099
25453WAT      O76600   8.491   5.303   2.494
25453WAT     H176601   8.428   5.350   2.432
25453WAT     H276602   8.536   5.228   2.445
25454WAT      O76603   0.739   4.728   4.745
25454WAT     H176604   0.671   4.655   4.732
25454WAT     H276605   0.827   4.688   4.768
25455WAT      O76606   1.041   3.055   1.794
25455WAT     H176607   1.112   3.039   1.725
25455WAT     H276608   1.075   3.028   1.884
25456WAT      O76609   7.254   1.329   0.205
25456WAT     H176610   7.201   1.251   0.172
25456WAT     H276611   7.213   1.362   0.290
25457WAT      O76612   3.056   3.661   0.825
25457WAT     H176613   2.987   3.707   0.880
25457WAT     H276614   3.139   3.717   0.823
25458WAT      O76615   1.654   6.980   1.022
25458WAT     H176616   1.690   6.931   0.942
25458WAT     H276617   1.600   7.059   0.992
25459WAT      O76618   0.407   7.140   3.197
25459WAT     H176619   0.338   7.181   3.257
25459WAT     H276620   0.485   7.109   3.252
25460WAT      O76621   3.996   9.257   3.045
25460WAT     H176622   3.915   9.237   2.990
25460WAT     H276623   4.068   9.191   3.025
25461WAT      O76624   6.838   0.160   7.774
25461WAT     H176625   6.881   0.202   7.693
25461WAT     H276626   6.757   0.213   7.799
25462WAT      O76627   7.172   1.440   5.814
25462WAT     H176628   7.096   1.449   5.750
25462WAT     H276629   7.197   1.343   5.822
25463WAT      O76630   1.249   3.306   1.319
25463WAT     H176631   1.170   3.368   1.323
25463WAT     H276632   1.224   3.224   1.268
25464WAT      O76633   8.604   3.931   4.546
25464WAT     H176634   8.538   3.998   4.580
25464WAT     H276635   8.675   3.915   4.615
25465WAT      O76636   9.658   4.213   4.105
25465WAT     H176637   9.629   4.249   4.017
25465WAT     H276638   9.741   4.259   4.135
25466WAT      O76639   6.747   8.001   2.305
25466WAT     H176640   6.665   7.958   2.268
25466WAT     H276641   6.751   8.097   2.277
25467WAT      O76642   4.680   0.267   1.623
25467WAT     H176643   4.632   0.204   1.562
25467WAT     H276644   4.767   0.293   1.580
25468WAT      O76645   1.812   3.800   0.482
25468WAT     H176646   1.745   3.785   0.554
25468WAT     H276647   1.788   3.743   0.402
25469WAT      O76648   5.152   7.478   0.053
25469WAT     H176649   5.117   7.570   0.069
25469WAT     H276650   5.202   7.476  -0.033
25470WAT      O76651   0.737   5.550   2.897
25470WAT     H176652   0.745   5.649   2.892
25470WAT     H276653   0.750   5.510   2.807
25471WAT      O76654   4.151   7.618   1.761
25471WAT     H176655   4.145   7.713   1.731
25471WAT     H276656   4.214   7.568   1.702
25472WAT      O76657   4.611   8.024   0.198
25472WAT     H176658   4.682   8.020   0.127
25472WAT     H276659   4.561   7.937   0.200
25473WAT      O76660   0.685   5.534   1.122
25473WAT     H176661   0.646   5.455   1.074
25473WAT     H276662   0.623   5.612   1.115
25474WAT      O76663   2.434   1.791   3.602
25474WAT     H176664   2.337   1.815   3.610
25474WAT     H276665   2.442   1.694   3.579
25475WAT      O76666   1.681   3.656   4.148
25475WAT     H176667   1.660   3.662   4.246
25475WAT     H276668   1.740   3.577   4.131
25476WAT      O76669   3.005   6.755   9.865
25476WAT     H176670   2.971   6.694   9.937
25476WAT     H276671   3.016   6.704   9.780
25477WAT      O76672   7.942   7.456   7.342
25477WAT     H176673   7.876   7.387   7.310
25477WAT     H276674   7.915   7.546   7.308
25478WAT      O76675   2.354   9.061   2.693
25478WAT     H176676   2.312   9.133   2.748
25478WAT     H276677   2.420   9.101   2.630
25479WAT      O76678   1.688   5.898   4.402
25479WAT     H176679   1.728   5.985   4.432
25479WAT     H276680   1.754   5.825   4.414
25480WAT      O76681   2.659   7.932   5.116
25480WAT     H176682   2.562   7.949   5.135
25480WAT     H276683   2.711   7.931   5.201
25481WAT      O76684   9.221   9.318   8.996
25481WAT     H176685   9.170   9.292   9.078
25481WAT     H276686   9.156   9.334   8.921
25482WAT      O76687   7.374   2.378   0.539
25482WAT     H176688   7.377   2.475   0.564
25482WAT     H276689   7.288   2.338   0.571
25483WAT      O76690   5.047   2.279   6.742
25483WAT     H176691   5.103   2.209   6.698
25483WAT     H276692   5.018   2.246   6.832
25484WAT      O76693   7.351   8.246   0.498
25484WAT     H176694   7.277   8.178   0.498
25484WAT     H276695   7.439   8.199   0.495
25485WAT      O76696   6.813   3.987   4.141
25485WAT     H176697   6.886   3.919   4.130
25485WAT     H276698   6.736   3.963   4.083
25486WAT      O76699   5.202   8.148   1.192
25486WAT     H176700   5.272   8.211   1.225
25486WAT     H276701   5.139   8.126   1.266
25487WAT      O76702   6.652   5.426   6.353
25487WAT     H176703   6.599   5.342   6.346
25487WAT     H276704   6.609   5.498   6.299
25488WAT      O76705   1.032   8.128   6.121
25488WAT     H176706   1.065   8.074   6.199
25488WAT     H276707   0.936   8.107   6.105
25489WAT      O76708   6.713   2.267   2.933
25489WAT     H176709   6.634   2.295   2.988
25489WAT     H276710   6.682   2.239   2.842
25490WAT      O76711   6.526   6.824   0.665
25490WAT     H176712   6.553   6.833   0.569
25490WAT     H276713   6.427   6.836   0.673
25491WAT      O76714   3.624   4.077   3.875
25491WAT     H176715   3.585   4.157   3.829
25491WAT     H276716   3.553   4.032   3.929
25492WAT      O76717   7.917   7.457   5.792
25492WAT     H176718   7.914   7.370   5.743
25492WAT     H276719   7.856   7.453   5.871
25493WAT      O76720   4.354   6.843   7.217
25493WAT     H176721   4.386   6.825   7.124
25493WAT     H276722   4.256   6.864   7.215
25494WAT      O76723   1.687   0.618   1.129
25494WAT     H176724   1.786   0.627   1.119
25494WAT     H276725   1.659   0.644   1.221
25495WAT      O76726   7.448   4.573   6.842
25495WAT     H176727   7.366   4.543   6.792
25495WAT     H276728   7.526   4.574   6.780
25496WAT      O76729   4.743   2.673   7.468
25496WAT     H176730   4.735   2.732   7.388
25496WAT     H276731   4.749   2.730   7.550
25497WAT      O76732   6.774   9.452   3.725
25497WAT     H176733   6.743   9.400   3.645
25497WAT     H276734   6.718   9.534   3.736
25498WAT      O76735   6.721   1.287   3.208
25498WAT     H176736   6.660   1.338   3.269
25498WAT     H276737   6.678   1.281   3.118
25499WAT      O76738   1.016   5.593   0.530
25499WAT     H176739   0.992   5.517   0.470
25499WAT     H276740   0.941   5.659   0.531
25500WAT      O76741   9.247   4.131   0.849
25500WAT     H176742   9.197   4.149   0.764
25500WAT     H276743   9.223   4.200   0.917
25501WAT      O76744   2.502   3.516   7.591
25501WAT     H176745   2.569   3.579   7.552
25501WAT     H276746   2.417   3.520   7.539
25502WAT      O76747   7.328   4.066   9.187
25502WAT     H176748   7.291   4.159   9.185
25502WAT     H276749   7.259   4.002   9.154
25503WAT      O76750   0.917   9.684   8.433
25503WAT     H176751   0.832   9.728   8.461
25503WAT     H276752   0.907   9.647   8.341
25504WAT      O76753   1.909   9.124   1.212
25504WAT     H176754   1.897   9.173   1.298
25504WAT     H276755   1.836   9.150   1.149
25505WAT      O76756   4.277   8.798   8.055
25505WAT     H176757   4.218   8.745   7.993
25505WAT     H276758   4.232   8.807   8.144
25506WAT      O76759   0.721   3.284   6.615
25506WAT     H176760   0.738   3.380   6.594
25506WAT     H276761   0.802   3.245   6.658
25507WAT      O76762   1.775   3.129   9.123
25507WAT     H176763   1.761   3.115   9.221
25507WAT     H276764   1.728   3.056   9.073
25508WAT      O76765   9.074   8.592   5.873
25508WAT     H176766   9.008   8.540   5.927
25508WAT     H276767   9.059   8.690   5.886
25509WAT      O76768   4.274   2.208   2.024
25509WAT     H176769   4.215   2.226   2.103
25509WAT     H276770   4.300   2.112   2.023
25510WAT      O76771   7.035   3.532   3.651
25510WAT     H176772   7.011   3.481   3.568
25510WAT     H276773   7.106   3.600   3.629
25511WAT      O76774   6.353   8.268   4.857
25511WAT     H176775   6.279   8.285   4.922
25511WAT     H276776   6.399   8.183   4.882
25512WAT      O76777   9.499   1.170   3.690
25512WAT     H176778   9.515   1.268   3.700
25512WAT     H276779   9.460   1.152   3.600
25513WAT      O76780   6.398   3.948   0.340
25513WAT     H176781   6.402   4.038   0.297
25513WAT     H276782   6.482   3.898   0.322
25514WAT      O76783   2.273   8.933   9.144
25514WAT     H176784   2.285   8.880   9.060
25514WAT     H276785   2.360   8.935   9.195
25515WAT      O76786   3.684   5.995   9.532
25515WAT     H176787   3.666   6.071   9.470
25515WAT     H276788   3.779   6.000   9.563
25516WAT      O76789   4.304   2.217   9.162
25516WAT     H176790   4.225   2.207   9.102
25516WAT     H276791   4.365   2.288   9.125
25517WAT      O76792   6.402   8.179   1.053
25517WAT     H176793   6.451   8.093   1.065
25517WAT     H276794   6.311   8.161   1.016
25518WAT      O76795   1.728   8.657   3.193
25518WAT     H176796   1.656   8.669   3.125
25518WAT     H276797   1.740   8.743   3.244
25519WAT      O76798   4.063   7.687   6.791
25519WAT     H176799   4.122   7.608   6.808
25519WAT     H276800   4.119   7.768   6.775
25520WAT      O76801   8.466   1.632   4.343
25520WAT     H176802   8.545   1.576   4.322
25520WAT     H276803   8.413   1.590   4.417
25521WAT      O76804   8.307   1.044   9.113
25521WAT     H176805   8.254   1.117   9.071
25521WAT     H276806   8.247   0.965   9.130
25522WAT      O76807   5.185   0.572   7.344
25522WAT     H176808   5.119   0.644   7.323
25522WAT     H276809   5.142   0.483   7.331
25523WAT      O76810   5.542   0.356   0.629
25523WAT     H176811   5.597   0.397   0.702
25523WAT     H276812   5.602   0.307   0.566
25524WAT      O76813   5.249   1.311   9.800
25524WAT     H176814   5.211   1.378   9.865
25524WAT     H276815   5.249   1.220   9.843
25525WAT      O76816   2.039   5.676   6.795
25525WAT     H176817   1.962   5.659   6.856
25525WAT     H276818   2.053   5.774   6.785
25526WAT      O76819   4.213   9.749   0.640
25526WAT     H176820   4.128   9.763   0.691
25526WAT     H276821   4.229   9.827   0.580
25527WAT      O76822   5.068   4.812   8.546
25527WAT     H176823   5.023   4.766   8.470
25527WAT     H276824   5.005   4.820   8.623
25528WAT      O76825   5.724   0.031   3.589
25528WAT     H176826   5.801  -0.022   3.623
25528WAT     H276827   5.752   0.085   3.510
25529WAT      O76828   6.484   6.850   6.844
25529WAT     H176829   6.475   6.864   6.943
25529WAT     H276830   6.404   6.886   6.797
25530WAT      O76831   2.707   5.936   4.058
25530WAT     H176832   2.687   5.875   3.982
25530WAT     H276833   2.653   6.020   4.049
25531WAT      O76834   2.208   1.755   3.133
25531WAT     H176835   2.203   1.838   3.077
25531WAT     H276836   2.117   1.730   3.164
25532WAT      O76837   7.995   3.380   0.567
25532WAT     H176838   7.930   3.385   0.491
25532WAT     H276839   7.980   3.456   0.630
25533WAT      O76840   9.037   1.152   4.147
25533WAT     H176841   9.085   1.214   4.084
25533WAT     H276842   9.104   1.104   4.203
25534WAT      O76843   0.799   5.713   0.903
25534WAT     H176844   0.784   5.627   0.951
25534WAT     H276845   0.897   5.732   0.899
25535WAT      O76846   5.401   2.476   4.446
25535WAT     H176847   5.490   2.432   4.452
25535WAT     H276848   5.329   2.409   4.465
25536WAT      O76849   0.889   7.579   7.162
25536WAT     H176850   0.874   7.555   7.258
25536WAT     H276851   0.920   7.499   7.112
25537WAT      O76852   1.950   9.264   1.452
25537WAT     H176853   1.871   9.283   1.509
25537WAT     H276854   2.021   9.219   1.506
25538WAT      O76855   1.913   1.024   3.154
25538WAT     H176856   1.848   1.016   3.229
25538WAT     H276857   1.914   0.938   3.102
25539WAT      O76858   0.039   3.951   6.552
25539WAT     H176859   0.038   3.945   6.452
25539WAT     H276860   0.021   3.860   6.590
25540WAT      O76861   3.759   4.786   0.102
25540WAT     H176862   3.774   4.811   0.007
25540WAT     H276863   3.833   4.728   0.134
25541WAT      O76864   7.995   0.409   5.768
25541WAT     H176865   8.050   0.472   5.823
25541WAT     H276866   7.905   0.449   5.752
25542WAT      O76867   9.085   8.034   4.347
25542WAT     H176868   9.153   8.104   4.371
25542WAT     H276869   9.129   7.963   4.292
25543WAT      O76870   8.504   9.350   6.771
25543WAT     H176871   8.525   9.410   6.695
25543WAT     H276872   8.572   9.277   6.776
25544WAT      O76873   6.216   7.161   7.468
25544WAT     H176874   6.144   7.210   7.418
25544WAT     H276875   6.306   7.196   7.441
25545WAT      O76876   1.307   0.896   9.018
25545WAT     H176877   1.337   0.986   9.051
25545WAT     H276878   1.253   0.851   9.089
25546WAT      O76879   8.563   7.912   7.923
25546WAT     H176880   8.588   7.992   7.869
25546WAT     H276881   8.626   7.837   7.903
25547WAT      O76882   2.291   3.346   6.667
25547WAT     H176883   2.232   3.268   6.687
25547WAT     H276884   2.260   3.426   6.718
25548WAT      O76885   2.701   2.754   5.666
25548WAT     H176886   2.778   2.730   5.606
25548WAT     H276887   2.727   2.737   5.761
25549WAT      O76888   8.568   8.116   7.255
25549WAT     H176889   8.510   8.196   7.272
25549WAT     H276890   8.511   8.034   7.248
25550WAT      O76891   6.925   6.927   4.223
25550WAT     H176892   6.848   6.973   4.181
25550WAT     H276893   6.905   6.909   4.320
25551WAT      O76894   9.839   2.452   6.410
25551WAT     H176895   9.921   2.402   6.438
25551WAT     H276896   9.760   2.420   6.462
25552WAT      O76897   1.790   8.876   2.336
25552WAT     H176898   1.789   8.910   2.430
25552WAT     H276899   1.832   8.945   2.276
25553WAT      O76900   8.703   8.373   6.448
25553WAT     H176901   8.674   8.429   6.526
25553WAT     H276902   8.793   8.404   6.417
25554WAT      O76903   6.327   5.105   8.017
25554WAT     H176904   6.235   5.074   7.993
25554WAT     H276905   6.387   5.093   7.938
25555WAT      O76906   2.507   1.130   8.261
25555WAT     H176907   2.444   1.153   8.187
25555WAT     H276908   2.490   1.035   8.290
25556WAT      O76909   4.071   8.985   9.173
25556WAT     H176910   4.015   9.007   9.093
25556WAT     H276911   4.026   8.913   9.226
25557WAT      O76912   7.244   7.610   5.678
25557WAT     H176913   7.307   7.545   5.721
25557WAT     H276914   7.183   7.561   5.615
25558WAT      O76915   2.430   4.399   7.095
25558WAT     H176916   2.418   4.324   7.159
25558WAT     H276917   2.465   4.479   7.143
25559WAT      O76918   9.217   5.543   1.861
25559WAT     H176919   9.127   5.580   1.841
25559WAT     H276920   9.216   5.444   1.845
25560WAT      O76921   5.856   7.759   8.602
25560WAT     H176922   5.874   7.796   8.693
25560WAT     H276923   5.814   7.669   8.610
25561WAT      O76924   3.299   3.345   7.881
25561WAT     H176925   3.207   3.307   7.883
25561WAT     H276926   3.351   3.304   7.807
25562WAT      O76927   1.234   1.198   3.044
25562WAT     H176928   1.149   1.174   3.090
25562WAT     H276929   1.243   1.298   3.039
25563WAT      O76930   3.318   7.146   0.034
25563WAT     H176931   3.313   7.056   0.079
25563WAT     H276932   3.410   7.183   0.043
25564WAT      O76933   1.924   7.950   9.472
25564WAT     H176934   1.925   7.856   9.507
25564WAT     H276935   2.000   8.001   9.512
25565WAT      O76936   4.105   6.965   7.267
25565WAT     H176937   4.128   7.057   7.234
25565WAT     H276938   4.017   6.968   7.314
25566WAT      O76939   5.733   2.953   3.245
25566WAT     H176940   5.816   2.931   3.194
25566WAT     H276941   5.654   2.949   3.184
25567WAT      O76942   2.493   4.207   4.331
25567WAT     H176943   2.546   4.191   4.414
25567WAT     H276944   2.547   4.259   4.266
25568WAT      O76945   7.576   6.062   9.793
25568WAT     H176946   7.483   6.046   9.760
25568WAT     H276947   7.627   5.976   9.793
25569WAT      O76948   7.278   8.192   8.231
25569WAT     H176949   7.347   8.128   8.266
25569WAT     H276950   7.322   8.260   8.173
25570WAT      O76951   3.589   9.172   4.696
25570WAT     H176952   3.579   9.080   4.734
25570WAT     H276953   3.686   9.197   4.692
25571WAT      O76954   5.480   5.711   1.663
25571WAT     H176955   5.489   5.776   1.739
25571WAT     H276956   5.525   5.747   1.582
25572WAT      O76957   3.141   8.477   6.227
25572WAT     H176958   3.054   8.517   6.200
25572WAT     H276959   3.153   8.486   6.326
25573WAT      O76960   3.106   1.259   7.104
25573WAT     H176961   3.040   1.186   7.120
25573WAT     H276962   3.081   1.339   7.160
25574WAT      O76963   1.857   3.374   6.203
25574WAT     H176964   1.904   3.328   6.128
25574WAT     H276965   1.759   3.377   6.185
25575WAT      O76966   9.455   6.548   2.412
25575WAT     H176967   9.545   6.506   2.413
25575WAT     H276968   9.385   6.479   2.429
25576WAT      O76969   4.146   2.523   5.160
25576WAT     H176970   4.196   2.455   5.214
25576WAT     H276971   4.071   2.479   5.111
25577WAT      O76972   9.144   0.331   6.702
25577WAT     H176973   9.167   0.269   6.626
25577WAT     H276974   9.226   0.348   6.757
25578WAT      O76975   7.899   5.619   6.397
25578WAT     H176976   7.847   5.673   6.463
25578WAT     H276977   7.931   5.535   6.440
25579WAT      O76978   5.544   5.825   4.696
25579WAT     H176979   5.521   5.889   4.622
25579WAT     H276980   5.640   5.837   4.720
25580WAT      O76981   8.679   6.396   2.580
25580WAT     H176982   8.697   6.477   2.637
25580WAT     H276983   8.688   6.313   2.635
25581WAT      O76984   6.786   1.832   1.984
25581WAT     H176985   6.798   1.768   1.908
25581WAT     H276986   6.799   1.783   2.070
25582WAT      O76987   3.487   7.348   2.058
25582WAT     H176988   3.551   7.422   2.075
25582WAT     H276989   3.414   7.380   1.997
25583WAT      O76990   2.567   3.095   9.578
25583WAT     H176991   2.529   3.025   9.639
25583WAT     H276992   2.663   3.076   9.560
25584WAT      O76993   6.025   7.672   5.189
25584WAT     H176994   6.013   7.586   5.138
25584WAT     H276995   6.042   7.746   5.124
25585WAT      O76996   2.934   8.996   9.054
25585WAT     H176997   2.998   9.065   9.087
25585WAT     H276998   2.983   8.929   8.999
25586WAT      O76999   2.562   8.664   0.689
25586WAT     H177000   2.620   8.646   0.610
25586WAT     H277001   2.474   8.701   0.658
25587WAT      O77002   3.162   4.905   0.461
25587WAT     H177003   3.246   4.886   0.409
25587WAT     H277004   3.138   4.824   0.515
25588WAT      O77005   4.764   2.128   5.466
25588WAT     H177006   4.783   2.225   5.472
25588WAT     H277007   4.748   2.103   5.370
25589WAT      O77008   2.911   8.856   8.762
25589WAT     H177009   2.977   8.872   8.835
25589WAT     H277010   2.864   8.770   8.777
25590WAT      O77011   5.997   5.442   4.372
25590WAT     H177012   6.072   5.377   4.357
25590WAT     H277013   5.961   5.472   4.284
25591WAT      O77014   5.127   6.115   6.117
25591WAT     H177015   5.223   6.091   6.126
25591WAT     H277016   5.113   6.211   6.143
25592WAT      O77017   4.464   7.345   8.186
25592WAT     H177018   4.462   7.367   8.088
25592WAT     H277019   4.477   7.246   8.197
25593WAT      O77020   3.010   2.991   4.468
25593WAT     H177021   2.954   2.921   4.513
25593WAT     H277022   2.977   3.082   4.494
25594WAT      O77023   2.557   9.382   5.637
25594WAT     H177024   2.556   9.431   5.550
25594WAT     H277025   2.526   9.288   5.623
25595WAT      O77026   1.811   7.365   5.504
25595WAT     H177027   1.739   7.327   5.447
25595WAT     H277028   1.804   7.327   5.596
25596WAT      O77029   7.944   6.341   8.816
25596WAT     H177030   8.010   6.292   8.873
25596WAT     H277031   7.941   6.437   8.843
25597WAT      O77032   7.347   1.575   8.444
25597WAT     H177033   7.412   1.641   8.482
25597WAT     H277034   7.257   1.618   8.437
25598WAT      O77035   7.560   2.268   8.511
25598WAT     H177036   7.616   2.286   8.593
25598WAT     H277037   7.563   2.170   8.490
25599WAT      O77038   4.352   8.593   0.781
25599WAT     H177039   4.334   8.690   0.793
25599WAT     H277040   4.348   8.570   0.684
25600WAT      O77041   7.551   7.490   5.503
25600WAT     H177042   7.589   7.583   5.504
25600WAT     H277043   7.515   7.468   5.594
25601WAT      O77044   0.882   6.303   1.312
25601WAT     H177045   0.798   6.250   1.300
25601WAT     H277046   0.870   6.395   1.274
25602WAT      O77047   4.133   2.570   7.291
25602WAT     H177048   4.171   2.580   7.383
25602WAT     H277049   4.145   2.476   7.260
25603WAT      O77050   7.643   2.216   9.825
25603WAT     H177051   7.544   2.201   9.821
25603WAT     H277052   7.670   2.238   9.918
25604WAT      O77053   3.423   0.695   1.754
25604WAT     H177054   3.382   0.749   1.828
25604WAT     H277055   3.519   0.720   1.743
25605WAT      O77056   7.254   4.187   7.671
25605WAT     H177057   7.265   4.219   7.577
25605WAT     H277058   7.181   4.238   7.716
25606WAT      O77059   0.878   7.634   8.843
25606WAT     H177060   0.815   7.710   8.830
25606WAT     H277061   0.908   7.600   8.753
25607WAT      O77062   4.610   5.979   1.636
25607WAT     H177063   4.561   6.043   1.576
25607WAT     H277064   4.694   5.948   1.591
25608WAT      O77065   5.361   8.363   8.619
25608WAT     H177066   5.394   8.348   8.712
25608WAT     H277067   5.395   8.290   8.560
25609WAT      O77068   9.343   8.819   0.069
25609WAT     H177069   9.358   8.722   0.049
25609WAT     H277070   9.427   8.859   0.106
25610WAT      O77071   3.265   3.075   8.085
25610WAT     H177072   3.179   3.079   8.136
25610WAT     H277073   3.324   3.006   8.125
25611WAT      O77074   5.364   8.455   0.082
25611WAT     H177075   5.440   8.391   0.071
25611WAT     H277076   5.321   8.471  -0.006
25612WAT      O77077   6.155   5.109   4.122
25612WAT     H177078   6.120   5.047   4.193
25612WAT     H277079   6.169   5.200   4.162
25613WAT      O77080   4.656   5.224   5.010
25613WAT     H177081   4.690   5.173   4.931
25613WAT     H277082   4.571   5.182   5.042
25614WAT      O77083   6.737   8.360   1.604
25614WAT     H177084   6.651   8.410   1.593
25614WAT     H277085   6.722   8.280   1.663
25615WAT      O77086   6.940   8.200   6.956
25615WAT     H177087   6.981   8.267   6.894
25615WAT     H277088   6.930   8.241   7.047
25616WAT      O77089   1.102   3.992   0.652
25616WAT     H177090   1.191   3.987   0.607
25616WAT     H277091   1.093   3.916   0.716
25617WAT      O77092   4.034   4.578   7.559
25617WAT     H177093   3.941   4.568   7.525
25617WAT     H277094   4.094   4.606   7.483
25618WAT      O77095   4.552   6.675   1.783
25618WAT     H177096   4.650   6.657   1.773
25618WAT     H277097   4.515   6.704   1.695
25619WAT      O77098   8.233   8.083   7.186
25619WAT     H177099   8.254   8.052   7.093
25619WAT     H277100   8.212   8.181   7.185
25620WAT      O77101   7.826   0.070   9.839
25620WAT     H177102   7.830   0.100   9.744
25620WAT     H277103   7.749   0.114   9.885
25621WAT      O77104   1.646   1.799   4.862
25621WAT     H177105   1.717   1.732   4.844
25621WAT     H277106   1.662   1.881   4.807
25622WAT      O77107   4.171   0.353   3.303
25622WAT     H177108   4.152   0.429   3.241
25622WAT     H277109   4.089   0.296   3.313
25623WAT      O77110   0.625   9.230   6.080
25623WAT     H177111   0.674   9.218   6.166
25623WAT     H277112   0.529   9.205   6.094
25624WAT      O77113   7.491   6.131   2.647
25624WAT     H177114   7.560   6.196   2.615
25624WAT     H277115   7.418   6.181   2.693
25625WAT      O77116   8.444   8.915   3.919
25625WAT     H177117   8.422   8.959   3.832
25625WAT     H277118   8.446   8.816   3.907
25626WAT      O77119   7.518   2.106   4.325
25626WAT     H177120   7.609   2.073   4.349
25626WAT     H277121   7.452   2.030   4.332
25627WAT      O77122   0.012   9.265   1.048
25627WAT     H177123   0.086   9.207   1.081
25627WAT     H277124   0.005   9.347   1.105
25628WAT      O77125   0.784   2.019   8.066
25628WAT     H177126   0.795   1.952   8.139
25628WAT     H277127   0.847   1.998   7.992
25629WAT      O77128   4.053   5.236   8.344
25629WAT     H177129   4.088   5.226   8.251
25629WAT     H277130   3.969   5.290   8.342
25630WAT      O77131   7.634   4.652   1.215
25630WAT     H177132   7.659   4.653   1.312
25630WAT     H277133   7.560   4.586   1.201
25631WAT      O77134   5.142   3.442   3.649
25631WAT     H177135   5.116   3.400   3.736
25631WAT     H277136   5.089   3.526   3.636
25632WAT      O77137   8.120   9.321   3.322
25632WAT     H177138   8.073   9.330   3.410
25632WAT     H277139   8.114   9.408   3.273
25633WAT      O77140   1.649   9.202   9.874
25633WAT     H177141   1.555   9.237   9.873
25633WAT     H277142   1.651   9.114   9.922
25634WAT      O77143   3.311   6.085   6.081
25634WAT     H177144   3.342   6.118   5.992
25634WAT     H277145   3.349   5.994   6.097
25635WAT      O77146   2.439   2.615   6.457
25635WAT     H177147   2.358   2.633   6.400
25635WAT     H277148   2.518   2.663   6.418
25636WAT      O77149   6.136   0.985   6.806
25636WAT     H177150   6.111   1.073   6.766
25636WAT     H277151   6.064   0.954   6.867
25637WAT      O77152   8.517   4.754   6.893
25637WAT     H177153   8.494   4.751   6.796
25637WAT     H277154   8.485   4.840   6.932
25638WAT      O77155   4.586   6.954   3.348
25638WAT     H177156   4.594   7.052   3.334
25638WAT     H277157   4.677   6.914   3.359
25639WAT      O77158   8.214   3.199   3.213
25639WAT     H177159   8.284   3.268   3.232
25639WAT     H277160   8.145   3.201   3.286
25640WAT      O77161   5.109   8.934   4.632
25640WAT     H177162   5.076   8.946   4.726
25640WAT     H277163   5.077   9.010   4.576
25641WAT      O77164   2.873   2.544   1.186
25641WAT     H177165   2.872   2.624   1.247
25641WAT     H277166   2.932   2.473   1.225
25642WAT      O77167   0.923   9.590   7.221
25642WAT     H177168   0.966   9.668   7.176
25642WAT     H277169   0.830   9.577   7.186
25643WAT      O77170   5.924   3.162   8.875
25643WAT     H177171   5.858   3.192   8.806
25643WAT     H277172   5.888   3.179   8.966
25644WAT      O77173   0.191   4.475   1.055
25644WAT     H177174   0.128   4.549   1.081
25644WAT     H277175   0.144   4.388   1.062
25645WAT      O77176   6.962   2.071   2.917
25645WAT     H177177   6.874   2.069   2.869
25645WAT     H277178   7.024   2.134   2.870
25646WAT      O77179   3.903   6.746   4.304
25646WAT     H177180   3.948   6.672   4.254
25646WAT     H277181   3.810   6.759   4.269
25647WAT      O77182   9.211   2.265   4.910
25647WAT     H177183   9.231   2.336   4.978
25647WAT     H277184   9.231   2.301   4.819
25648WAT      O77185   6.922   6.670   0.781
25648WAT     H177186   7.001   6.647   0.838
25648WAT     H277187   6.872   6.586   0.758
25649WAT      O77188   5.343   3.575   9.766
25649WAT     H177189   5.390   3.487   9.761
25649WAT     H277190   5.401   3.640   9.815
25650WAT      O77191   4.561   6.822   8.608
25650WAT     H177192   4.636   6.868   8.562
25650WAT     H277193   4.482   6.884   8.614
25651WAT      O77194   8.051   3.480   3.761
25651WAT     H177195   8.089   3.440   3.677
25651WAT     H277196   8.125   3.521   3.814
25652WAT      O77197   0.593   9.596   9.099
25652WAT     H177198   0.595   9.496   9.103
25652WAT     H277199   0.514   9.626   9.046
25653WAT      O77200   9.205   5.386   6.594
25653WAT     H177201   9.221   5.402   6.692
25653WAT     H277202   9.107   5.375   6.577
25654WAT      O77203   6.615   5.416   9.600
25654WAT     H177204   6.571   5.355   9.666
25654WAT     H277205   6.545   5.464   9.547
25655WAT      O77206   0.148   5.472   8.310
25655WAT     H177207   0.214   5.399   8.331
25655WAT     H277208   0.197   5.552   8.276
25656WAT      O77209   4.327   8.387   6.530
25656WAT     H177210   4.392   8.426   6.465
25656WAT     H277211   4.370   8.377   6.619
25657WAT      O77212   0.520   0.982   1.388
25657WAT     H177213   0.479   0.906   1.437
25657WAT     H277214   0.470   0.998   1.303
25658WAT      O77215   8.080   5.830   4.774
25658WAT     H177216   8.004   5.858   4.716
25658WAT     H277217   8.060   5.852   4.869
25659WAT      O77218   0.698   3.915   6.594
25659WAT     H177219   0.745   3.845   6.648
25659WAT     H277220   0.747   4.001   6.601
25660WAT      O77221   3.497   0.443   2.257
25660WAT     H177222   3.399   0.465   2.259
25660WAT     H277223   3.510   0.346   2.276
25661WAT      O77224   4.301   8.688   0.259
25661WAT     H177225   4.391   8.729   0.248
25661WAT     H277226   4.232   8.745   0.215
25662WAT      O77227   4.850   0.354   8.050
25662WAT     H177228   4.950   0.350   8.054
25662WAT     H277229   4.819   0.316   7.963
25663WAT      O77230   3.256   7.264   7.201
25663WAT     H177231   3.302   7.311   7.277
25663WAT     H277232   3.165   7.303   7.189
25664WAT      O77233   6.181   7.989   1.625
25664WAT     H177234   6.162   8.042   1.708
25664WAT     H277235   6.253   8.035   1.573
25665WAT      O77236   1.880   3.925   4.446
25665WAT     H177237   1.967   3.950   4.488
25665WAT     H277238   1.897   3.865   4.367
25666WAT      O77239   3.617   8.717   7.246
25666WAT     H177240   3.572   8.643   7.196
25666WAT     H277241   3.630   8.689   7.342
25667WAT      O77242   4.951   7.872   0.390
25667WAT     H177243   4.930   7.795   0.329
25667WAT     H277244   5.011   7.840   0.463
25668WAT      O77245   9.813   3.931   7.801
25668WAT     H177246   9.735   3.870   7.795
25668WAT     H277247   9.843   3.936   7.897
25669WAT      O77248   2.678   3.199   4.637
25669WAT     H177249   2.776   3.218   4.628
25669WAT     H277250   2.664   3.101   4.651
25670WAT      O77251   8.128   2.589   4.672
25670WAT     H177252   8.152   2.494   4.649
25670WAT     H277253   8.089   2.592   4.764
25671WAT      O77254   6.414   4.736   7.726
25671WAT     H177255   6.421   4.638   7.708
25671WAT     H277256   6.330   4.754   7.778
25672WAT      O77257   9.851   6.523   5.199
25672WAT     H177258   9.806   6.612   5.208
25672WAT     H277259   9.812   6.474   5.121
25673WAT      O77260   1.977   2.333   7.917
25673WAT     H177261   1.891   2.378   7.891
25673WAT     H277262   2.054   2.390   7.890
25674WAT      O77263   5.670   4.436   5.495
25674WAT     H177264   5.610   4.455   5.573
25674WAT     H277265   5.717   4.520   5.468
25675WAT      O77266   7.559   1.810   8.495
25675WAT     H177267   7.560   1.887   8.432
25675WAT     H277268   7.513   1.837   8.580
25676WAT      O77269   3.975   1.205   2.941
25676WAT     H177270   3.922   1.276   2.893
25676WAT     H277271   4.009   1.242   3.028
25677WAT      O77272   2.871   2.871   0.089
25677WAT     H177273   2.871   2.791   0.149
25677WAT     H277274   2.789   2.870   0.032
25678WAT      O77275   3.842   3.894   7.720
25678WAT     H177276   3.745   3.873   7.728
25678WAT     H277277   3.871   3.947   7.800
25679WAT      O77278   3.325   6.977   0.336
25679WAT     H177279   3.409   6.977   0.282
25679WAT     H277280   3.253   6.928   0.287
25680WAT      O77281   5.516   3.691   2.059
25680WAT     H177282   5.481   3.777   2.094
25680WAT     H277283   5.514   3.692   1.959
25681WAT      O77284   9.249   5.393   9.056
25681WAT     H177285   9.220   5.393   9.152
25681WAT     H277286   9.181   5.344   9.001
25682WAT      O77287   8.607   1.223   4.511
25682WAT     H177288   8.519   1.212   4.464
25682WAT     H277289   8.655   1.302   4.472
25683WAT      O77290   8.220   5.668   7.563
25683WAT     H177291   8.206   5.682   7.661
25683WAT     H277292   8.318   5.657   7.544
25684WAT      O77293   8.214   7.167   4.920
25684WAT     H177294   8.162   7.238   4.968
25684WAT     H277295   8.306   7.162   4.958
25685WAT      O77296   4.153   4.631   4.810
25685WAT     H177297   4.065   4.584   4.812
25685WAT     H277298   4.212   4.595   4.883
25686WAT      O77299   6.291   2.076   9.413
25686WAT     H177300   6.225   2.120   9.354
25686WAT     H277301   6.252   1.992   9.452
25687WAT      O77302   4.437   6.167   8.513
25687WAT     H177303   4.386   6.206   8.436
25687WAT     H277304   4.533   6.193   8.505
25688WAT      O77305   0.323   1.483   7.631
25688WAT     H177306   0.290   1.515   7.720
25688WAT     H277307   0.371   1.557   7.584
25689WAT      O77308   5.320   8.130   6.886
25689WAT     H177309   5.361   8.204   6.833
25689WAT     H277310   5.255   8.168   6.952
25690WAT      O77311   0.380   7.747   4.321
25690WAT     H177312   0.301   7.741   4.260
25690WAT     H277313   0.349   7.736   4.416
25691WAT      O77314   1.950   2.687   6.005
25691WAT     H177315   1.936   2.735   6.092
25691WAT     H277316   1.890   2.727   5.936
25692WAT      O77317   8.630   2.705   2.497
25692WAT     H177318   8.570   2.685   2.420
25692WAT     H277319   8.589   2.776   2.554
25693WAT      O77320   8.090   6.262   8.441
25693WAT     H177321   8.015   6.207   8.477
25693WAT     H277322   8.102   6.344   8.497
25694WAT      O77323   5.876   5.578   2.900
25694WAT     H177324   5.838   5.539   2.816
25694WAT     H277325   5.870   5.678   2.896
25695WAT      O77326   1.317   1.640   7.463
25695WAT     H177327   1.299   1.666   7.558
25695WAT     H277328   1.232   1.607   7.421
25696WAT      O77329   4.233   8.468   4.392
25696WAT     H177330   4.243   8.546   4.329
25696WAT     H277331   4.208   8.502   4.483
25697WAT      O77332   5.604   6.612   1.532
25697WAT     H177333   5.540   6.538   1.511
25697WAT     H277334   5.625   6.611   1.630
25698WAT      O77335   8.651   0.759   6.362
25698WAT     H177336   8.596   0.831   6.404
25698WAT     H277337   8.590   0.695   6.315
25699WAT      O77338   9.410   8.676   5.274
25699WAT     H177339   9.476   8.693   5.347
25699WAT     H277340   9.319   8.704   5.304
25700WAT      O77341   6.731   3.870   9.263
25700WAT     H177342   6.815   3.878   9.317
25700WAT     H277343   6.739   3.791   9.201
25701WAT      O77344   8.904   7.453   6.770
25701WAT     H177345   8.953   7.490   6.691
25701WAT     H277346   8.828   7.514   6.794
25702WAT      O77347   6.949   4.957   2.049
25702WAT     H177348   6.950   4.981   1.952
25702WAT     H277349   7.003   5.024   2.101
25703WAT      O77350   6.834   0.489   7.675
25703WAT     H177351   6.826   0.587   7.656
25703WAT     H277352   6.802   0.437   7.596
25704WAT      O77353   7.765   9.176   1.602
25704WAT     H177354   7.807   9.213   1.520
25704WAT     H277355   7.673   9.143   1.581
25705WAT      O77356   9.028   8.323   9.636
25705WAT     H177357   8.945   8.268   9.629
25705WAT     H277358   9.094   8.277   9.694
25706WAT      O77359   1.954   9.314   7.700
25706WAT     H177360   1.878   9.344   7.758
25706WAT     H277361   1.955   9.214   7.696
25707WAT      O77362   0.305   9.360   2.392
25707WAT     H177363   0.366   9.320   2.325
25707WAT     H277364   0.214   9.321   2.383
25708WAT      O77365   2.917   1.790   4.514
25708WAT     H177366   2.916   1.811   4.417
25708WAT     H277367   2.874   1.701   4.529
25709WAT      O77368   6.220   1.469   4.698
25709WAT     H177369   6.125   1.445   4.716
25709WAT     H277370   6.224   1.561   4.659
25710WAT      O77371   4.724   1.819   4.401
25710WAT     H177372   4.808   1.815   4.347
25710WAT     H277373   4.730   1.897   4.463
25711WAT      O77374   8.650   3.807   6.732
25711WAT     H177375   8.635   3.885   6.794
25711WAT     H277376   8.621   3.832   6.640
25712WAT      O77377   7.436   0.150   9.795
25712WAT     H177378   7.360   0.208   9.767
25712WAT     H277379   7.409   0.097   9.876
25713WAT      O77380   0.982   4.206   5.420
25713WAT     H177381   0.913   4.231   5.488
25713WAT     H277382   1.072   4.237   5.449
25714WAT      O77383   4.078   6.545   0.046
25714WAT     H177384   4.153   6.595   0.003
25714WAT     H277385   3.999   6.545  -0.016
25715WAT      O77386   2.698   5.957   1.418
25715WAT     H177387   2.754   5.896   1.475
25715WAT     H277388   2.615   5.981   1.468
25716WAT      O77389   1.824   0.189   0.216
25716WAT     H177390   1.863   0.105   0.177
25716WAT     H277391   1.748   0.220   0.159
25717WAT      O77392   1.924   4.538   3.418
25717WAT     H177393   2.022   4.540   3.400
25717WAT     H277394   1.888   4.631   3.417
25718WAT      O77395   2.324   3.565   4.441
25718WAT     H177396   2.410   3.604   4.475
25718WAT     H277397   2.278   3.515   4.515
25719WAT      O77398   2.484   9.143   0.762
25719WAT     H177399   2.483   9.212   0.835
25719WAT     H277400   2.390   9.111   0.746
25720WAT      O77401   5.914   0.781   2.157
25720WAT     H177402   5.896   0.868   2.205
25720WAT     H277403   5.884   0.789   2.062
25721WAT      O77404   6.591   3.149   1.410
25721WAT     H177405   6.506   3.140   1.462
25721WAT     H277406   6.606   3.245   1.386
25722WAT      O77407   9.648   4.382   7.133
25722WAT     H177408   9.589   4.303   7.114
25722WAT     H277409   9.605   4.440   7.203
25723WAT      O77410   3.359   1.234   8.449
25723WAT     H177411   3.328   1.214   8.542
25723WAT     H277412   3.312   1.315   8.415
25724WAT      O77413   1.363   8.822   8.641
25724WAT     H177414   1.286   8.813   8.578
25724WAT     H277415   1.362   8.746   8.705
25725WAT      O77416   5.325   0.243   0.763
25725WAT     H177417   5.358   0.155   0.796
25725WAT     H277418   5.396   0.287   0.708
25726WAT      O77419   1.777   6.579   8.868
25726WAT     H177420   1.876   6.579   8.854
25726WAT     H277421   1.734   6.516   8.803
25727WAT      O77422   1.704   7.663   6.573
25727WAT     H177423   1.692   7.700   6.481
25727WAT     H277424   1.629   7.600   6.593
25728WAT      O77425   0.318   8.224   1.331
25728WAT     H177426   0.265   8.146   1.364
25728WAT     H277427   0.413   8.214   1.359
25729WAT      O77428   6.081   6.438   7.359
25729WAT     H177429   6.142   6.405   7.287
25729WAT     H277430   6.115   6.407   7.448
25730WAT      O77431   4.887   0.234   2.206
25730WAT     H177432   4.806   0.188   2.243
25730WAT     H277433   4.902   0.201   2.112
25731WAT      O77434   8.072   6.308   5.168
25731WAT     H177435   8.156   6.273   5.128
25731WAT     H277436   8.009   6.233   5.184
25732WAT      O77437   3.388   8.169   0.635
25732WAT     H177438   3.469   8.113   0.618
25732WAT     H277439   3.306   8.119   0.607
25733WAT      O77440   6.932   1.733   6.317
25733WAT     H177441   7.025   1.755   6.289
25733WAT     H277442   6.895   1.809   6.370
25734WAT      O77443   3.766   3.863   6.891
25734WAT     H177444   3.789   3.807   6.811
25734WAT     H277445   3.671   3.892   6.885
25735WAT      O77446   7.329   0.665   5.414
25735WAT     H177447   7.238   0.634   5.386
25735WAT     H277448   7.336   0.662   5.514
25736WAT      O77449   3.909   6.112   5.081
25736WAT     H177450   3.959   6.163   5.012
25736WAT     H277451   3.933   6.015   5.077
25737WAT      O77452   3.013   4.103   7.726
25737WAT     H177453   2.960   4.166   7.669
25737WAT     H277454   3.110   4.107   7.700
25738WAT      O77455   3.059   8.130   8.940
25738WAT     H177456   3.032   8.034   8.946
25738WAT     H277457   3.001   8.176   8.873
25739WAT      O77458   5.220   2.140   0.982
25739WAT     H177459   5.309   2.174   0.951
25739WAT     H277460   5.148   2.200   0.947
25740WAT      O77461   4.914   1.573   3.925
25740WAT     H177462   4.878   1.493   3.974
25740WAT     H277463   4.903   1.559   3.826
25741WAT      O77464   2.061   9.446   6.117
25741WAT     H177465   2.104   9.455   6.028
25741WAT     H277466   2.011   9.529   6.139
25742WAT      O77467   8.661   5.504   5.337
25742WAT     H177468   8.754   5.485   5.304
25742WAT     H277469   8.644   5.602   5.332
25743WAT      O77470   0.758   3.838   6.321
25743WAT     H177471   0.835   3.775   6.332
25743WAT     H277472   0.717   3.857   6.410
25744WAT      O77473   9.479   4.497   8.001
25744WAT     H177474   9.498   4.421   8.063
25744WAT     H277475   9.386   4.488   7.966
25745WAT      O77476   8.627   4.054   4.295
25745WAT     H177477   8.670   4.142   4.318
25745WAT     H277478   8.611   4.003   4.380
25746WAT      O77479   4.028   2.880   8.589
25746WAT     H177480   4.084   2.866   8.508
25746WAT     H277481   3.975   2.964   8.579
25747WAT      O77482   2.255   8.169   1.370
25747WAT     H177483   2.304   8.238   1.317
25747WAT     H277484   2.216   8.101   1.308
25748WAT      O77485   2.459   8.900   7.186
25748WAT     H177486   2.523   8.844   7.132
25748WAT     H277487   2.397   8.948   7.124
25749WAT      O77488   9.504   9.646   8.345
25749WAT     H177489   9.550   9.563   8.314
25749WAT     H277490   9.406   9.637   8.330
25750WAT      O77491   0.518   5.410   4.390
25750WAT     H177492   0.505   5.509   4.380
25750WAT     H277493   0.524   5.368   4.300
25751WAT      O77494   1.015   4.290   3.242
25751WAT     H177495   0.951   4.319   3.313
25751WAT     H277496   1.096   4.251   3.285
25752WAT      O77497   8.772   0.606   3.943
25752WAT     H177498   8.694   0.647   3.894
25752WAT     H277499   8.772   0.639   4.037
25753WAT      O77500   7.962   4.405   6.957
25753WAT     H177501   7.908   4.488   6.969
25753WAT     H277502   7.904   4.325   6.973
25754WAT      O77503   8.944   7.683   3.738
25754WAT     H177504   8.987   7.633   3.663
25754WAT     H277505   8.879   7.749   3.701
25755WAT      O77506   4.548   2.433   1.348
25755WAT     H177507   4.534   2.359   1.282
25755WAT     H277508   4.476   2.501   1.339
25756WAT      O77509   8.326   2.827   0.244
25756WAT     H177510   8.234   2.788   0.239
25756WAT     H277511   8.392   2.755   0.268
25757WAT      O77512   2.648   7.933   4.399
25757WAT     H177513   2.692   7.977   4.321
25757WAT     H277514   2.642   7.834   4.383
25758WAT      O77515   5.234   1.452   9.565
25758WAT     H177516   5.250   1.392   9.643
25758WAT     H277517   5.184   1.533   9.595
25759WAT      O77518   5.663   1.589   7.782
25759WAT     H177519   5.708   1.676   7.763
25759WAT     H277520   5.624   1.591   7.874
25760WAT      O77521   6.841   9.320   1.932
25760WAT     H177522   6.857   9.371   1.847
25760WAT     H277523   6.811   9.383   2.003
25761WAT      O77524   4.501   9.539   7.794
25761WAT     H177525   4.463   9.593   7.719
25761WAT     H277526   4.432   9.528   7.865
25762WAT      O77527   6.279   3.901   9.677
25762WAT     H177528   6.287   3.981   9.735
25762WAT     H277529   6.197   3.910   9.620
25763WAT      O77530   0.473   6.693   2.275
25763WAT     H177531   0.392   6.635   2.288
25763WAT     H277532   0.455   6.783   2.314
25764WAT      O77533   9.860   9.803   5.066
25764WAT     H177534   9.798   9.821   4.989
25764WAT     H277535   9.947   9.769   5.032
25765WAT      O77536   4.366   9.580   6.586
25765WAT     H177537   4.384   9.600   6.490
25765WAT     H277538   4.446   9.535   6.626
25766WAT      O77539   6.352   8.237   4.521
25766WAT     H177540   6.341   8.259   4.618
25766WAT     H277541   6.447   8.253   4.494
25767WAT      O77542   1.132   5.278   6.040
25767WAT     H177543   1.200   5.262   6.111
25767WAT     H277544   1.158   5.228   5.957
25768WAT      O77545   8.654   8.453   7.726
25768WAT     H177546   8.655   8.402   7.640
25768WAT     H277547   8.581   8.418   7.785
25769WAT      O77548   1.734   5.407   7.648
25769WAT     H177549   1.791   5.332   7.681
25769WAT     H277550   1.712   5.468   7.724
25770WAT      O77551   2.296   7.014   2.273
25770WAT     H177552   2.317   7.007   2.176
25770WAT     H277553   2.203   6.982   2.290
25771WAT      O77554   4.095   7.503   0.390
25771WAT     H177555   4.182   7.471   0.427
25771WAT     H277556   4.110   7.543   0.299
25772WAT      O77557   9.522   5.700   0.085
25772WAT     H177558   9.521   5.694   0.185
25772WAT     H277559   9.506   5.795   0.058
25773WAT      O77560   9.446   6.106   8.064
25773WAT     H177561   9.402   6.034   8.010
25773WAT     H277562   9.441   6.083   8.161
25774WAT      O77563   4.614   3.193   3.590
25774WAT     H177564   4.661   3.105   3.594
25774WAT     H277565   4.682   3.267   3.594
25775WAT      O77566   3.968   3.638   9.163
25775WAT     H177567   3.965   3.606   9.257
25775WAT     H277568   3.958   3.738   9.162
25776WAT      O77569   2.027   4.571   0.568
25776WAT     H177570   2.025   4.605   0.474
25776WAT     H277571   1.941   4.594   0.613
25777WAT      O77572   1.166   8.433   6.261
25777WAT     H177573   1.075   8.409   6.295
25777WAT     H277574   1.160   8.453   6.164
25778WAT      O77575   8.319   0.531   2.039
25778WAT     H177576   8.360   0.573   1.958
25778WAT     H277577   8.258   0.596   2.083
25779WAT      O77578   7.935   2.100   7.704
25779WAT     H177579   7.986   2.074   7.622
25779WAT     H277580   7.840   2.069   7.694
25780WAT      O77581   7.074   3.327   7.212
25780WAT     H177582   7.128   3.406   7.240
25780WAT     H277583   6.990   3.358   7.168
25781WAT      O77584   6.041   9.159   6.730
25781WAT     H177585   6.045   9.060   6.736
25781WAT     H277586   6.009   9.185   6.639
25782WAT      O77587   7.484   8.953   5.345
25782WAT     H177588   7.545   8.875   5.329
25782WAT     H277589   7.513   9.030   5.289
25783WAT      O77590   7.232   2.023   0.931
25783WAT     H177591   7.248   1.979   0.843
25783WAT     H277592   7.176   2.105   0.918
25784WAT      O77593   1.243   0.703   7.568
25784WAT     H177594   1.243   0.800   7.592
25784WAT     H277595   1.158   0.681   7.519
25785WAT      O77596   9.170   4.039   3.688
25785WAT     H177597   9.078   4.076   3.685
25785WAT     H277598   9.230   4.101   3.738
25786WAT      O77599   0.136   7.491   1.417
25786WAT     H177600   0.100   7.411   1.371
25786WAT     H277601   0.150   7.471   1.514
25787WAT      O77602   1.238   8.245   6.982
25787WAT     H177603   1.263   8.238   6.885
25787WAT     H277604   1.252   8.156   7.026
25788WAT      O77605   2.118   5.477   7.553
25788WAT     H177606   2.137   5.410   7.625
25788WAT     H277607   2.049   5.543   7.586
25789WAT      O77608   4.379   6.012   8.224
25789WAT     H177609   4.329   5.929   8.250
25789WAT     H277610   4.326   6.063   8.157
25790WAT      O77611   7.739   9.526   2.475
25790WAT     H177612   7.773   9.619   2.461
25790WAT     H277613   7.816   9.465   2.496
25791WAT      O77614   7.030   5.931   7.825
25791WAT     H177615   7.083   5.854   7.789
25791WAT     H277616   6.978   5.973   7.751
25792WAT      O77617   1.715   7.498   9.348
25792WAT     H177618   1.642   7.510   9.415
25792WAT     H277619   1.731   7.585   9.300
25793WAT      O77620   7.592   5.651   0.516
25793WAT     H177621   7.599   5.672   0.614
25793WAT     H277622   7.556   5.731   0.468
25794WAT      O77623   7.223   7.977   3.488
25794WAT     H177624   7.131   7.978   3.527
25794WAT     H277625   7.264   8.067   3.497
25795WAT      O77626   3.209   0.913   8.516
25795WAT     H177627   3.203   0.824   8.471
25795WAT     H277628   3.279   0.911   8.587
25796WAT      O77629   4.133   8.648   1.189
25796WAT     H177630   4.053   8.644   1.129
25796WAT     H277631   4.210   8.603   1.144
25797WAT      O77632   8.032   2.282   0.804
25797WAT     H177633   8.121   2.324   0.784
25797WAT     H277634   8.047   2.187   0.833
25798WAT      O77635   6.584   3.000   5.020
25798WAT     H177636   6.681   3.024   5.016
25798WAT     H277637   6.551   2.979   4.928
25799WAT      O77638   2.682   0.261   6.324
25799WAT     H177639   2.692   0.344   6.379
25799WAT     H277640   2.646   0.187   6.380
25800WAT      O77641   0.701   2.449   0.355
25800WAT     H177642   0.684   2.352   0.343
25800WAT     H277643   0.617   2.494   0.387
25801WAT      O77644   6.951   9.321   2.370
25801WAT     H177645   6.883   9.323   2.444
25801WAT     H277646   6.920   9.260   2.298
25802WAT      O77647   6.893   5.030   9.032
25802WAT     H177648   6.893   5.103   9.101
25802WAT     H277649   6.810   5.036   8.978
25803WAT      O77650   3.364   2.130   4.322
25803WAT     H177651   3.278   2.150   4.274
25803WAT     H277652   3.359   2.167   4.415
25804WAT      O77653   4.390   4.589   3.770
25804WAT     H177654   4.301   4.609   3.729
25804WAT     H277655   4.406   4.490   3.770
25805WAT      O77656   2.346   7.292   7.293
25805WAT     H177657   2.331   7.362   7.222
25805WAT     H277658   2.425   7.318   7.348
25806WAT      O77659   6.679   7.958   4.717
25806WAT     H177660   6.767   8.004   4.723
25806WAT     H277661   6.613   8.001   4.779
25807WAT      O77662   2.652   7.278   1.084
25807WAT     H177663   2.626   7.237   0.997
25807WAT     H277664   2.602   7.364   1.096
25808WAT      O77665   1.045   6.543   9.830
25808WAT     H177666   1.134   6.503   9.812
25808WAT     H277667   1.043   6.637   9.794
25809WAT      O77668   3.084   8.793   3.635
25809WAT     H177669   3.056   8.713   3.688
25809WAT     H277670   3.181   8.810   3.650
25810WAT      O77671   8.952   8.086   7.490
25810WAT     H177672   8.871   8.037   7.458
25810WAT     H277673   8.974   8.158   7.424
25811WAT      O77674   6.329   6.505   3.977
25811WAT     H177675   6.284   6.533   3.892
25811WAT     H277676   6.349   6.407   3.973
25812WAT      O77677   5.899   1.806   7.968
25812WAT     H177678   5.820   1.814   8.028
25812WAT     H277679   5.869   1.785   7.876
25813WAT      O77680   3.814   4.724   9.144
25813WAT     H177681   3.847   4.800   9.088
25813WAT     H277682   3.771   4.656   9.084
25814WAT      O77683   2.469   3.875   5.977
25814WAT     H177684   2.452   3.852   5.881
25814WAT     H277685   2.537   3.812   6.015
25815WAT      O77686   8.672   3.196   7.294
25815WAT     H177687   8.680   3.228   7.388
25815WAT     H277688   8.618   3.112   7.291
25816WAT      O77689   1.234   1.546   1.787
25816WAT     H177690   1.142   1.581   1.769
25816WAT     H277691   1.300   1.621   1.778
25817WAT      O77692   3.928   5.576   8.473
25817WAT     H177693   3.974   5.488   8.484
25817WAT     H277694   3.830   5.562   8.461
25818WAT      O77695   6.879   3.042   6.599
25818WAT     H177696   6.781   3.052   6.615
25818WAT     H277697   6.900   2.947   6.577
25819WAT      O77698   6.933   1.469   5.700
25819WAT     H177699   6.865   1.401   5.674
25819WAT     H277700   6.910   1.505   5.791
25820WAT      O77701   8.785   5.554   8.364
25820WAT     H177702   8.689   5.559   8.390
25820WAT     H277703   8.843   5.579   8.442
25821WAT      O77704   3.852   6.521   7.205
25821WAT     H177705   3.805   6.605   7.232
25821WAT     H277706   3.808   6.443   7.250
25822WAT      O77707   1.969   5.773   2.546
25822WAT     H177708   1.881   5.813   2.569
25822WAT     H277709   2.026   5.766   2.628
25823WAT      O77710   3.257   5.175   3.480
25823WAT     H177711   3.220   5.217   3.397
25823WAT     H277712   3.203   5.204   3.559
25824WAT      O77713   7.808   8.217   3.694
25824WAT     H177714   7.902   8.184   3.683
25824WAT     H277715   7.744   8.144   3.671
25825WAT      O77716   4.095   0.860   3.102
25825WAT     H177717   4.051   0.839   3.014
25825WAT     H277718   4.185   0.900   3.085
25826WAT      O77719   6.472   3.146   0.805
25826WAT     H177720   6.490   3.214   0.734
25826WAT     H277721   6.513   3.059   0.779
25827WAT      O77722   3.099   0.118   1.291
25827WAT     H177723   3.079   0.162   1.378
25827WAT     H277724   3.051   0.166   1.218
25828WAT      O77725   1.981   5.531   0.418
25828WAT     H177726   2.024   5.473   0.349
25828WAT     H277727   1.966   5.478   0.501
25829WAT      O77728   4.093   9.651   7.881
25829WAT     H177729   4.191   9.639   7.900
25829WAT     H277730   4.060   9.732   7.930
25830WAT      O77731   0.249   9.271   1.332
25830WAT     H177732   0.210   9.362   1.322
25830WAT     H277733   0.223   9.215   1.254
25831WAT      O77734   8.746   4.226   0.245
25831WAT     H177735   8.802   4.176   0.311
25831WAT     H277736   8.740   4.173   0.160
25832WAT      O77737   9.495   4.620   3.510
25832WAT     H177738   9.468   4.639   3.604
25832WAT     H277739   9.496   4.706   3.458
25833WAT      O77740   8.845   5.827   0.268
25833WAT     H177741   8.808   5.883   0.193
25833WAT     H277742   8.943   5.814   0.255
25834WAT      O77743   7.878   9.279   5.725
25834WAT     H177744   7.827   9.361   5.697
25834WAT     H277745   7.973   9.304   5.741
25835WAT      O77746   8.843   6.583   0.895
25835WAT     H177747   8.878   6.553   0.984
25835WAT     H277748   8.844   6.683   0.890
25836WAT      O77749   7.862   4.019   7.108
25836WAT     H177750   7.888   4.085   7.037
25836WAT     H277751   7.805   4.064   7.177
25837WAT      O77752   0.787   5.898   2.012
25837WAT     H177753   0.819   5.899   2.107
25837WAT     H277754   0.706   5.955   2.004
25838WAT      O77755   6.993   2.572   2.309
25838WAT     H177756   6.929   2.515   2.257
25838WAT     H277757   6.968   2.668   2.299
25839WAT      O77758   4.052   5.562   3.413
25839WAT     H177759   4.024   5.658   3.411
25839WAT     H277760   4.001   5.514   3.485
25840WAT      O77761   7.827   7.595   8.866
25840WAT     H177762   7.777   7.575   8.781
25840WAT     H277763   7.794   7.534   8.938
25841WAT      O77764   8.061   6.088   3.438
25841WAT     H177765   8.154   6.073   3.402
25841WAT     H277766   8.014   6.155   3.381
25842WAT      O77767   9.165   6.675   0.928
25842WAT     H177768   9.248   6.699   0.878
25842WAT     H277769   9.095   6.744   0.911
25843WAT      O77770   8.132   6.747   4.398
25843WAT     H177771   8.112   6.764   4.494
25843WAT     H277772   8.098   6.823   4.342
25844WAT      O77773   4.331   0.555   4.654
25844WAT     H177774   4.245   0.520   4.617
25844WAT     H277775   4.325   0.655   4.661
25845WAT      O77776   3.528   9.523   9.056
25845WAT     H177777   3.438   9.552   9.022
25845WAT     H277778   3.520   9.496   9.152
25846WAT      O77779   5.339   8.115   8.219
25846WAT     H177780   5.397   8.036   8.234
25846WAT     H277781   5.269   8.119   8.291
25847WAT      O77782   6.721   5.776   4.186
25847WAT     H177783   6.811   5.738   4.206
25847WAT     H277784   6.711   5.787   4.087
25848WAT      O77785   7.505   5.891   2.168
25848WAT     H177786   7.485   5.794   2.155
25848WAT     H277787   7.438   5.930   2.231
25849WAT      O77788   7.986   8.223   9.276
25849WAT     H177789   8.055   8.212   9.205
25849WAT     H277790   8.031   8.227   9.365
25850WAT      O77791   7.365   5.946   5.444
25850WAT     H177792   7.277   5.959   5.399
25850WAT     H277793   7.431   5.907   5.380
25851WAT      O77794   7.221   3.315   8.493
25851WAT     H177795   7.186   3.370   8.417
25851WAT     H277796   7.147   3.260   8.531
25852WAT      O77797   5.491   6.428   5.010
25852WAT     H177798   5.419   6.360   5.023
25852WAT     H277799   5.486   6.466   4.918
25853WAT      O77800   7.080   0.820   9.108
25853WAT     H177801   7.152   0.799   9.042
25853WAT     H277802   7.092   0.913   9.142
25854WAT      O77803   9.151   8.474   2.621
25854WAT     H177804   9.193   8.384   2.620
25854WAT     H277805   9.068   8.474   2.565
25855WAT      O77806   3.211   2.874   2.948
25855WAT     H177807   3.219   2.888   2.849
25855WAT     H277808   3.281   2.929   2.994
25856WAT      O77809   4.690   8.159   5.135
25856WAT     H177810   4.642   8.135   5.220
25856WAT     H277811   4.723   8.253   5.141
25857WAT      O77812   8.603   5.760   7.029
25857WAT     H177813   8.551   5.845   7.036
25857WAT     H277814   8.551   5.685   7.069
25858WAT      O77815   0.979   6.879   3.549
25858WAT     H177816   0.915   6.949   3.582
25858WAT     H277817   1.025   6.913   3.467
25859WAT      O77818   3.802   6.845   3.381
25859WAT     H177819   3.858   6.914   3.426
25859WAT     H277820   3.781   6.772   3.447
25860WAT      O77821   9.485   5.377   1.393
25860WAT     H177822   9.506   5.429   1.310
25860WAT     H277823   9.544   5.408   1.467
25861WAT      O77824   9.659   7.286   0.181
25861WAT     H177825   9.619   7.328   0.263
25861WAT     H277826   9.690   7.357   0.118
25862WAT      O77827   7.714   3.928   3.992
25862WAT     H177828   7.794   3.985   3.977
25862WAT     H277829   7.706   3.906   4.089
25863WAT      O77830   1.858   5.107   5.385
25863WAT     H177831   1.911   5.160   5.450
25863WAT     H277832   1.831   5.165   5.308
25864WAT      O77833   0.812   0.086   0.780
25864WAT     H177834   0.873   0.121   0.851
25864WAT     H277835   0.843  -0.005   0.752
25865WAT      O77836   9.479   4.514   7.327
25865WAT     H177837   9.397   4.553   7.286
25865WAT     H277838   9.464   4.417   7.347
25866WAT      O77839   3.527   0.409   6.926
25866WAT     H177840   3.514   0.315   6.895
25866WAT     H277841   3.448   0.437   6.981
25867WAT      O77842   0.183   1.775   5.008
25867WAT     H177843   0.155   1.792   4.914
25867WAT     H277844   0.125   1.702   5.047
25868WAT      O77845   2.634   8.968   1.765
25868WAT     H177846   2.648   9.057   1.723
25868WAT     H277847   2.723   8.924   1.780
25869WAT      O77848   2.436   8.631   0.015
25869WAT     H177849   2.422   8.533   0.000
25869WAT     H277850   2.534   8.651   0.013
25870WAT      O77851   7.136   2.344   7.288
25870WAT     H177852   7.048   2.374   7.252
25870WAT     H277853   7.171   2.412   7.353
25871WAT      O77854   0.149   4.838   9.856
25871WAT     H177855   0.077   4.844   9.787
25871WAT     H277856   0.238   4.852   9.812
25872WAT      O77857   8.298   6.615   7.742
25872WAT     H177858   8.371   6.672   7.779
25872WAT     H277859   8.213   6.633   7.793
25873WAT      O77860   3.769   2.593   4.014
25873WAT     H177861   3.762   2.579   4.113
25873WAT     H277862   3.803   2.685   3.996
25874WAT      O77863   5.328   1.788   0.079
25874WAT     H177864   5.256   1.840   0.033
25874WAT     H277865   5.401   1.767   0.013
25875WAT      O77866   5.028   0.565   4.387
25875WAT     H177867   5.009   0.620   4.468
25875WAT     H277868   5.124   0.539   4.386
25876WAT      O77869   2.020   1.559   2.104
25876WAT     H177870   1.961   1.514   2.037
25876WAT     H277871   1.977   1.555   2.194
25877WAT      O77872   0.795   0.611   2.138
25877WAT     H177873   0.715   0.671   2.148
25877WAT     H277874   0.774   0.538   2.074
25878WAT      O77875   4.729   3.570   0.079
25878WAT     H177876   4.725   3.482   0.127
25878WAT     H277877   4.783   3.559  -0.005
25879WAT      O77878   0.132   2.174   0.457
25879WAT     H177879   0.213   2.122   0.485
25879WAT     H277880   0.066   2.113   0.414
25880WAT      O77881   4.624   7.721   5.370
25880WAT     H177882   4.530   7.735   5.341
25880WAT     H277883   4.684   7.786   5.322
25881WAT      O77884   6.415   4.819   1.134
25881WAT     H177885   6.351   4.860   1.199
25881WAT     H277886   6.508   4.847   1.157
25882WAT      O77887   3.064   7.773   9.527
25882WAT     H177888   3.015   7.821   9.455
25882WAT     H277889   3.148   7.734   9.490
25883WAT      O77890   4.439   8.380   4.037
25883WAT     H177891   4.534   8.366   4.063
25883WAT     H277892   4.403   8.296   3.995
25884WAT      O77893   5.621   5.378   4.359
25884WAT     H177894   5.544   5.389   4.296
25884WAT     H277895   5.655   5.468   4.386
25885WAT      O77896   1.425   6.196   9.218
25885WAT     H177897   1.362   6.195   9.296
25885WAT     H277898   1.497   6.127   9.233
25886WAT      O77899   5.419   3.719   7.229
25886WAT     H177900   5.453   3.809   7.255
25886WAT     H277901   5.320   3.725   7.213
25887WAT      O77902   8.452   8.458   4.169
25887WAT     H177903   8.540   8.496   4.139
25887WAT     H277904   8.412   8.518   4.238
25888WAT      O77905   3.255   0.295   4.881
25888WAT     H177906   3.220   0.207   4.849
25888WAT     H277907   3.215   0.369   4.826
25889WAT      O77908   5.667   8.977   7.317
25889WAT     H177909   5.737   8.932   7.262
25889WAT     H277910   5.638   9.061   7.272
25890WAT      O77911   6.338   3.057   4.329
25890WAT     H177912   6.330   2.990   4.255
25890WAT     H277913   6.430   3.053   4.368
25891WAT      O77914   8.928   5.519   9.840
25891WAT     H177915   8.931   5.481   9.933
25891WAT     H277916   9.016   5.559   9.817
25892WAT      O77917   1.671   4.668   7.500
25892WAT     H177918   1.646   4.594   7.438
25892WAT     H277919   1.631   4.754   7.467
25893WAT      O77920   6.751   2.640   0.803
25893WAT     H177921   6.785   2.725   0.842
25893WAT     H277922   6.729   2.654   0.706
25894WAT      O77923   2.821   0.835   8.060
25894WAT     H177924   2.791   0.763   8.122
25894WAT     H277925   2.920   0.827   8.045
25895WAT      O77926   1.724   3.028   9.368
25895WAT     H177927   1.647   3.083   9.402
25895WAT     H277928   1.804   3.044   9.426
25896WAT      O77929   5.667   0.070   2.797
25896WAT     H177930   5.621   0.105   2.716
25896WAT     H277931   5.669  -0.030   2.794
25897WAT      O77932   5.567   4.241   6.609
25897WAT     H177933   5.524   4.203   6.527
25897WAT     H277934   5.500   4.297   6.658
25898WAT      O77935   1.088   6.116   3.507
25898WAT     H177936   1.019   6.160   3.449
25898WAT     H277937   1.150   6.186   3.544
25899WAT      O77938   7.621   3.371   4.410
25899WAT     H177939   7.656   3.387   4.318
25899WAT     H277940   7.526   3.338   4.405
25900WAT      O77941   0.197   7.782   3.901
25900WAT     H177942   0.104   7.793   3.866
25900WAT     H277943   0.194   7.741   3.992
25901WAT      O77944   9.019   8.868   0.168
25901WAT     H177945   9.067   8.935   0.225
25901WAT     H277946   9.063   8.863   0.079
25902WAT      O77947   7.566   2.049   1.831
25902WAT     H177948   7.654   2.092   1.809
25902WAT     H277949   7.537   2.078   1.922
25903WAT      O77950   6.873   5.907   3.094
25903WAT     H177951   6.954   5.852   3.074
25903WAT     H277952   6.901   5.993   3.137
25904WAT      O77953   6.638   7.759   5.518
25904WAT     H177954   6.615   7.847   5.476
25904WAT     H277955   6.643   7.689   5.447
25905WAT      O77956   6.465   4.612   8.351
25905WAT     H177957   6.437   4.647   8.262
25905WAT     H277958   6.521   4.530   8.339
25906WAT      O77959   6.669   6.718   0.876
25906WAT     H177960   6.760   6.695   0.843
25906WAT     H277961   6.611   6.744   0.799
25907WAT      O77962   1.979   4.904   3.195
25907WAT     H177963   2.068   4.880   3.234
25907WAT     H277964   1.978   4.881   3.097
25908WAT      O77965   7.420   3.948   0.411
25908WAT     H177966   7.502   3.916   0.457
25908WAT     H277967   7.341   3.936   0.470
25909WAT      O77968   6.991   2.261   3.751
25909WAT     H177969   6.893   2.244   3.739
25909WAT     H277970   7.034   2.182   3.793
25910WAT      O77971   0.325   2.616   2.251
25910WAT     H177972   0.361   2.565   2.329
25910WAT     H277973   0.387   2.691   2.228
25911WAT      O77974   4.584   2.998   0.859
25911WAT     H177975   4.635   3.055   0.923
25911WAT     H277976   4.621   3.010   0.767
25912WAT      O77977   4.578   5.252   2.967
25912WAT     H177978   4.514   5.235   3.042
25912WAT     H277979   4.614   5.164   2.934
25913WAT      O77980   2.243   4.094   2.413
25913WAT     H177981   2.143   4.105   2.412
25913WAT     H277982   2.269   4.036   2.490
25914WAT      O77983   6.634   5.040   9.526
25914WAT     H177984   6.549   5.027   9.476
25914WAT     H277985   6.615   5.049   9.624
25915WAT      O77986   5.098   0.229   8.413
25915WAT     H177987   5.178   0.169   8.408
25915WAT     H277988   5.114   0.310   8.357
25916WAT      O77989   8.167   6.358   3.590
25916WAT     H177990   8.157   6.406   3.503
25916WAT     H277991   8.091   6.294   3.602
25917WAT      O77992   6.588   4.812   6.807
25917WAT     H177993   6.657   4.841   6.872
25917WAT     H277994   6.500   4.802   6.854
25918WAT      O77995   4.428   5.484   9.459
25918WAT     H177996   4.456   5.404   9.512
25918WAT     H277997   4.439   5.567   9.514
25919WAT      O77998   4.334   0.858   2.451
25919WAT     H177999   4.342   0.796   2.530
25919WAT     H278000   4.408   0.839   2.387
25920WAT      O78001   4.120   1.351   4.425
25920WAT     H178002   4.117   1.437   4.476
25920WAT     H278003   4.163   1.280   4.480
25921WAT      O78004   0.556   8.174   1.447
25921WAT     H178005   0.649   8.179   1.409
25921WAT     H278006   0.546   8.091   1.501
25922WAT      O78007   7.646   5.620   1.662
25922WAT     H178008   7.551   5.650   1.654
25922WAT     H278009   7.656   5.563   1.744
25923WAT      O78010   6.921   5.724   9.201
25923WAT     H178011   6.931   5.814   9.243
25923WAT     H278012   6.831   5.716   9.159
25924WAT      O78013   1.465   7.616   5.550
25924WAT     H178014   1.548   7.642   5.501
25924WAT     H278015   1.436   7.691   5.610
25925WAT      O78016   1.712   4.330   8.136
25925WAT     H178017   1.616   4.329   8.166
25925WAT     H278018   1.743   4.424   8.128
25926WAT      O78019   1.480   0.185   9.657
25926WAT     H178020   1.388   0.208   9.624
25926WAT     H278021   1.546   0.251   9.623
25927WAT      O78022   1.549   6.445   0.219
25927WAT     H178023   1.637   6.491   0.228
25927WAT     H278024   1.553   6.356   0.265
25928WAT      O78025   9.012   7.371   6.336
25928WAT     H178026   9.040   7.393   6.242
25928WAT     H278027   8.936   7.307   6.333
25929WAT      O78028   4.414   6.196   6.569
25929WAT     H178029   4.441   6.128   6.500
25929WAT     H278030   4.390   6.149   6.654
25930WAT      O78031   9.046   5.914   8.852
25930WAT     H178032   9.106   5.948   8.924
25930WAT     H278033   9.016   5.990   8.795
25931WAT      O78034   7.690   1.115   6.958
25931WAT     H178035   7.673   1.192   6.896
25931WAT     H278036   7.680   1.145   7.052
25932WAT      O78037   2.999   5.218   5.612
25932WAT     H178038   2.973   5.296   5.555
25932WAT     H278039   3.042   5.148   5.556
25933WAT      O78040   0.204   8.507   6.705
25933WAT     H178041   0.242   8.564   6.777
25933WAT     H278042   0.156   8.429   6.745
25934WAT      O78043   1.561   5.257   9.205
25934WAT     H178044   1.579   5.204   9.288
25934WAT     H278045   1.497   5.207   9.147
25935WAT      O78046   2.839   0.896   8.925
25935WAT     H178047   2.772   0.960   8.963
25935WAT     H278048   2.856   0.823   8.991
25936WAT      O78049   3.220   2.364   2.459
25936WAT     H178050   3.242   2.316   2.374
25936WAT     H278051   3.161   2.443   2.438
25937WAT      O78052   8.311   1.252   7.505
25937WAT     H178053   8.376   1.300   7.446
25937WAT     H278054   8.361   1.189   7.564
25938WAT      O78055   5.799   1.167   6.915
25938WAT     H178056   5.731   1.139   6.983
25938WAT     H278057   5.889   1.169   6.957
25939WAT      O78058   9.011   2.616   4.551
25939WAT     H178059   9.001   2.597   4.649
25939WAT     H278060   9.025   2.531   4.501
25940WAT      O78061   9.316   5.439   8.461
25940WAT     H178062   9.260   5.374   8.513
25940WAT     H278063   9.370   5.389   8.393
25941WAT      O78064   4.626   2.645   0.186
25941WAT     H178065   4.689   2.569   0.178
25941WAT     H278066   4.677   2.729   0.205
25942WAT      O78067   1.140   9.677   3.932
25942WAT     H178068   1.094   9.624   3.860
25942WAT     H278069   1.107   9.648   4.022
25943WAT      O78070   6.280   4.223   2.294
25943WAT     H178071   6.184   4.246   2.278
25943WAT     H278072   6.287   4.127   2.322
25944WAT      O78073   2.881   6.851   4.171
25944WAT     H178074   2.867   6.761   4.212
25944WAT     H278075   2.856   6.848   4.074
25945WAT      O78076   3.348   7.529   5.915
25945WAT     H178077   3.360   7.513   5.817
25945WAT     H278078   3.251   7.541   5.935
25946WAT      O78079   6.269   1.868   8.119
25946WAT     H178080   6.347   1.858   8.057
25946WAT     H278081   6.281   1.807   8.198
25947WAT      O78082   2.680   0.590   1.453
25947WAT     H178083   2.657   0.683   1.425
25947WAT     H278084   2.765   0.590   1.505
25948WAT      O78085   3.625   4.675   2.389
25948WAT     H178086   3.531   4.670   2.424
25948WAT     H278087   3.664   4.583   2.383
25949WAT      O78088   2.719   5.226   2.572
25949WAT     H178089   2.638   5.188   2.618
25949WAT     H278090   2.736   5.318   2.606
25950WAT      O78091   9.397   6.915   2.148
25950WAT     H178092   9.347   6.874   2.224
25950WAT     H278093   9.414   7.012   2.168
25951WAT      O78094   9.186   9.732   8.000
25951WAT     H178095   9.125   9.662   7.963
25951WAT     H278096   9.279   9.694   8.008
25952WAT      O78097   3.834   7.586   3.763
25952WAT     H178098   3.927   7.614   3.788
25952WAT     H278099   3.772   7.607   3.838
25953WAT      O78100   1.983   1.941   6.357
25953WAT     H178101   2.080   1.968   6.359
25953WAT     H278102   1.974   1.856   6.305
25954WAT      O78103   5.370   9.335   2.228
25954WAT     H178104   5.280   9.321   2.268
25954WAT     H278105   5.361   9.363   2.133
25955WAT      O78106   3.751   5.163   6.942
25955WAT     H178107   3.847   5.143   6.961
25955WAT     H278108   3.699   5.078   6.940
25956WAT      O78109   9.247   7.967   0.427
25956WAT     H178110   9.237   7.895   0.359
25956WAT     H278111   9.340   7.967   0.462
25957WAT      O78112   5.402   3.385   3.731
25957WAT     H178113   5.314   3.415   3.695
25957WAT     H278114   5.418   3.289   3.706
25958WAT      O78115   6.545   2.329   6.915
25958WAT     H178116   6.512   2.278   6.836
25958WAT     H278117   6.565   2.423   6.889
25959WAT      O78118   9.702   0.323   9.327
25959WAT     H178119   9.698   0.247   9.392
25959WAT     H278120   9.760   0.395   9.364
25960WAT      O78121   5.777   9.195   2.719
25960WAT     H178122   5.809   9.191   2.814
25960WAT     H278123   5.839   9.142   2.661
25961WAT      O78124   3.088   0.533   6.863
25961WAT     H178125   3.060   0.622   6.898
25961WAT     H278126   3.008   0.478   6.843
25962WAT      O78127   6.707   1.679   8.756
25962WAT     H178128   6.666   1.614   8.691
25962WAT     H278129   6.765   1.629   8.820
25963WAT      O78130   8.573   2.109   4.462
25963WAT     H178131   8.614   2.198   4.441
25963WAT     H278132   8.497   2.093   4.398
25964WAT      O78133   8.634   5.649   2.281
25964WAT     H178134   8.667   5.587   2.352
25964WAT     H278135   8.677   5.738   2.292
25965WAT      O78136   9.512   5.847   9.375
25965WAT     H178137   9.612   5.848   9.374
25965WAT     H278138   9.480   5.779   9.442
25966WAT      O78139   7.772   6.666   6.766
25966WAT     H178140   7.815   6.682   6.854
25966WAT     H278141   7.675   6.692   6.770
25967WAT      O78142   5.922   9.087   9.732
25967WAT     H178143   5.963   9.014   9.678
25967WAT     H278144   5.953   9.176   9.697
25968WAT      O78145   2.345   6.946   9.850
25968WAT     H178146   2.372   6.889   9.773
25968WAT     H278147   2.423   6.958   9.912
25969WAT      O78148   1.259   1.974   2.098
25969WAT     H178149   1.200   2.055   2.104
25969WAT     H278150   1.204   1.892   2.110
25970WAT      O78151   0.068   4.557   4.623
25970WAT     H178152   0.101   4.468   4.591
25970WAT     H278153   0.067   4.622   4.547
25971WAT      O78154   0.055   4.453   1.753
25971WAT     H178155  -0.007   4.498   1.817
25971WAT     H278156   0.143   4.435   1.798
25972WAT      O78157   6.240   8.922   0.310
25972WAT     H178158   6.241   8.907   0.409
25972WAT     H278159   6.333   8.934   0.277
25973WAT      O78160   8.169   4.520   7.788
25973WAT     H178161   8.173   4.422   7.772
25973WAT     H278162   8.075   4.552   7.773
25974WAT      O78163   0.165   9.441   7.841
25974WAT     H178164   0.199   9.505   7.909
25974WAT     H278165   0.231   9.367   7.830
25975WAT      O78166   6.706   1.328   5.215
25975WAT     H178167   6.626   1.382   5.242
25975WAT     H278168   6.777   1.389   5.179
25976WAT      O78169   4.982   9.307   4.245
25976WAT     H178170   4.924   9.303   4.163
25976WAT     H278171   4.982   9.399   4.282
25977WAT      O78172   3.142   8.905   7.789
25977WAT     H178173   3.158   8.946   7.879
25977WAT     H278174   3.060   8.848   7.792
25978WAT      O78175   5.922   1.564   9.138
25978WAT     H178176   5.830   1.540   9.106
25978WAT     H278177   5.917   1.648   9.193
25979WAT      O78178   9.661   8.024   1.966
25979WAT     H178179   9.585   8.018   2.031
25979WAT     H278180   9.695   7.932   1.947
25980WAT      O78181   1.427   2.293   9.205
25980WAT     H178182   1.335   2.269   9.174
25980WAT     H278183   1.446   2.388   9.180
25981WAT      O78184   7.362   2.717   7.526
25981WAT     H178185   7.427   2.787   7.496
25981WAT     H278186   7.312   2.751   7.606
25982WAT      O78187   0.107   3.694   8.829
25982WAT     H178188   0.030   3.639   8.860
25982WAT     H278189   0.193   3.652   8.859
25983WAT      O78190   0.729   8.736   3.164
25983WAT     H178191   0.687   8.678   3.234
25983WAT     H278192   0.821   8.704   3.145
25984WAT      O78193   8.569   1.081   3.361
25984WAT     H178194   8.544   1.013   3.430
25984WAT     H278195   8.496   1.149   3.353
25985WAT      O78196   6.358   2.422   1.390
25985WAT     H178197   6.263   2.397   1.407
25985WAT     H278198   6.416   2.341   1.397
25986WAT      O78199   7.987   9.562   3.162
25986WAT     H178200   7.975   9.586   3.258
25986WAT     H278201   7.907   9.513   3.130
25987WAT      O78202   6.156   8.328   5.022
25987WAT     H178203   6.066   8.345   4.982
25987WAT     H278204   6.146   8.264   5.099
25988WAT      O78205   3.017   1.617   7.971
25988WAT     H178206   3.006   1.658   7.880
25988WAT     H278207   3.075   1.537   7.965
25989WAT      O78208   3.288   5.945   3.101
25989WAT     H178209   3.231   5.890   3.163
25989WAT     H278210   3.303   5.895   3.016
25990WAT      O78211   0.059   9.106   7.606
25990WAT     H178212   0.157   9.088   7.599
25990WAT     H278213   0.009   9.028   7.569
25991WAT      O78214   3.310   2.280   8.839
25991WAT     H178215   3.294   2.273   8.740
25991WAT     H278216   3.222   2.280   8.887
25992WAT      O78217   3.882   9.261   6.172
25992WAT     H178218   3.918   9.280   6.081
25992WAT     H278219   3.788   9.228   6.164
25993WAT      O78220   6.244   7.708   5.317
25993WAT     H178221   6.168   7.664   5.269
25993WAT     H278222   6.254   7.802   5.283
25994WAT      O78223   0.279   2.927   1.419
25994WAT     H178224   0.371   2.936   1.380
25994WAT     H278225   0.285   2.880   1.508
25995WAT      O78226   3.054   3.769   9.167
25995WAT     H178227   3.064   3.821   9.083
25995WAT     H278228   3.134   3.710   9.180
25996WAT      O78229   4.533   0.710   7.884
25996WAT     H178230   4.448   0.761   7.875
25996WAT     H278231   4.513   0.619   7.922
25997WAT      O78232   9.296   1.258   6.203
25997WAT     H178233   9.256   1.347   6.181
25997WAT     H278234   9.396   1.267   6.210
25998WAT      O78235   4.982   5.156   8.691
25998WAT     H178236   4.978   5.252   8.664
25998WAT     H278237   4.910   5.105   8.644
25999WAT      O78238   3.641   8.909   4.088
25999WAT     H178239   3.701   8.988   4.075
25999WAT     H278240   3.662   8.839   4.020
26000WAT      O78241   5.826   2.469   4.935
26000WAT     H178242   5.870   2.556   4.911
26000WAT     H278243   5.895   2.400   4.952
26001WAT      O78244   7.280   5.077   7.623
26001WAT     H178245   7.216   5.007   7.595
26001WAT     H278246   7.235   5.140   7.687
26002WAT      O78247   5.112   5.375   3.982
26002WAT     H178248   5.064   5.405   3.900
26002WAT     H278249   5.207   5.353   3.959
26003WAT      O78250   7.119   9.465   3.191
26003WAT     H178251   7.200   9.413   3.218
26003WAT     H278252   7.132   9.501   3.099
26004WAT      O78253   7.813   6.130   3.908
26004WAT     H178254   7.886   6.115   3.975
26004WAT     H278255   7.740   6.183   3.949
26005WAT      O78256   5.176   7.183   2.708
26005WAT     H178257   5.107   7.122   2.746
26005WAT     H278258   5.263   7.168   2.755
26006WAT      O78259   8.102   2.396   1.065
26006WAT     H178260   8.142   2.487   1.068
26006WAT     H278261   8.115   2.358   0.973
26007WAT      O78262   5.937   1.551   7.492
26007WAT     H178263   5.933   1.562   7.591
26007WAT     H278264   5.920   1.638   7.447
26008WAT      O78265   5.590   7.031   1.195
26008WAT     H178266   5.669   6.995   1.145
26008WAT     H278267   5.578   6.980   1.280
26009WAT      O78268   4.516   5.401   0.883
26009WAT     H178269   4.549   5.449   0.964
26009WAT     H278270   4.479   5.312   0.910
26010WAT      O78271   4.147   5.175   1.827
26010WAT     H178272   4.210   5.251   1.813
26010WAT     H278273   4.198   5.089   1.823
26011WAT      O78274   1.465   6.462   9.216
26011WAT     H178275   1.412   6.511   9.286
26011WAT     H278276   1.461   6.364   9.234
26012WAT      O78277   4.178   2.010   8.339
26012WAT     H178278   4.268   1.996   8.382
26012WAT     H278279   4.157   1.933   8.279
26013WAT      O78280   8.348   6.088   1.329
26013WAT     H178281   8.396   6.132   1.253
26013WAT     H278282   8.265   6.043   1.294
26014WAT      O78283   5.351   8.874   4.744
26014WAT     H178284   5.274   8.887   4.681
26014WAT     H278285   5.417   8.948   4.730
26015WAT      O78286   3.881   7.030   7.409
26015WAT     H178287   3.813   7.027   7.336
26015WAT     H278288   3.834   7.032   7.498
26016WAT      O78289   5.813   0.652   1.588
26016WAT     H178290   5.768   0.596   1.658
26016WAT     H278291   5.909   0.626   1.581
26017WAT      O78292   1.360   8.818   5.126
26017WAT     H178293   1.364   8.841   5.029
26017WAT     H278294   1.438   8.858   5.174
26018WAT      O78295   0.423   1.151   0.436
26018WAT     H178296   0.377   1.210   0.370
26018WAT     H278297   0.443   1.062   0.394
26019WAT      O78298   8.518   4.079   0.813
26019WAT     H178299   8.536   3.983   0.794
26019WAT     H278300   8.448   4.113   0.750
26020WAT      O78301   1.986   9.319   6.363
26020WAT     H178302   2.027   9.361   6.282
26020WAT     H278303   2.028   9.229   6.379
26021WAT      O78304   6.232   2.951   5.106
26021WAT     H178305   6.199   3.030   5.056
26021WAT     H278306   6.309   2.978   5.165
26022WAT      O78307   6.041   1.492   5.141
26022WAT     H178308   6.095   1.438   5.205
26022WAT     H278309   6.100   1.556   5.093
26023WAT      O78310   1.452   6.239   8.724
26023WAT     H178311   1.367   6.281   8.755
26023WAT     H278312   1.434   6.146   8.692
26024WAT      O78313   3.701   8.956   9.408
26024WAT     H178314   3.715   9.018   9.484
26024WAT     H278315   3.649   9.002   9.336
26025WAT      O78316   5.962   5.100   9.742
26025WAT     H178317   5.905   5.145   9.812
26025WAT     H278318   5.937   5.004   9.736
26026WAT      O78319   6.748   8.367   3.778
26026WAT     H178320   6.772   8.464   3.788
26026WAT     H278321   6.773   8.318   3.861
26027WAT      O78322   0.267   2.530   7.251
26027WAT     H178323   0.322   2.614   7.255
26027WAT     H278324   0.184   2.543   7.305
26028WAT      O78325   2.197   0.931   2.129
26028WAT     H178326   2.106   0.963   2.153
26028WAT     H278327   2.191   0.869   2.051
26029WAT      O78328   3.775   1.779   6.522
26029WAT     H178329   3.691   1.728   6.541
26029WAT     H278330   3.804   1.761   6.428
26030WAT      O78331   5.556   4.645   1.634
26030WAT     H178332   5.539   4.678   1.541
26030WAT     H278333   5.486   4.579   1.659
26031WAT      O78334   3.605   9.725   6.399
26031WAT     H178335   3.550   9.707   6.317
26031WAT     H278336   3.592   9.650   6.464
26032WAT      O78337   3.444   1.944   0.952
26032WAT     H178338   3.358   1.952   1.001
26032WAT     H278339   3.433   1.974   0.857
26033WAT      O78340   5.067   0.271   9.123
26033WAT     H178341   5.036   0.217   9.202
26033WAT     H278342   5.165   0.288   9.131
26034WAT      O78343   2.513   7.973   1.294
26034WAT     H178344   2.542   8.066   1.272
26034WAT     H278345   2.414   7.964   1.280
26035WAT      O78346   9.085   8.088   8.094
26035WAT     H178347   9.129   8.047   8.015
26035WAT     H278348   8.988   8.103   8.075
26036WAT      O78349   4.734   4.848   5.460
26036WAT     H178350   4.749   4.887   5.369
26036WAT     H278351   4.786   4.763   5.468
26037WAT      O78352   1.990   1.978   7.405
26037WAT     H178353   1.971   2.076   7.415
26037WAT     H278354   2.084   1.959   7.435
26038WAT      O78355   1.195   6.638   5.601
26038WAT     H178356   1.288   6.611   5.624
26038WAT     H278357   1.182   6.633   5.502
26039WAT      O78358   5.246   5.210   1.918
26039WAT     H178359   5.330   5.262   1.933
26039WAT     H278360   5.239   5.185   1.821
26040WAT      O78361   4.383   4.005   3.252
26040WAT     H178362   4.298   3.972   3.211
26040WAT     H278363   4.425   4.073   3.191
26041WAT      O78364   9.857   0.827   9.482
26041WAT     H178365   9.801   0.904   9.450
26041WAT     H278366   9.952   0.856   9.489
26042WAT      O78367   7.293   2.924   3.816
26042WAT     H178368   7.196   2.929   3.839
26042WAT     H278369   7.338   2.858   3.877
26043WAT      O78370   5.394   5.989   3.232
26043WAT     H178371   5.296   5.999   3.212
26043WAT     H278372   5.431   6.079   3.256
26044WAT      O78373   6.393   9.193   4.459
26044WAT     H178374   6.391   9.138   4.376
26044WAT     H278375   6.415   9.136   4.537
26045WAT      O78376   0.736   1.120   7.899
26045WAT     H178377   0.668   1.096   7.830
26045WAT     H278378   0.748   1.044   7.962
26046WAT      O78379   0.038   1.743   6.667
26046WAT     H178380   0.025   1.842   6.680
26046WAT     H278381   0.127   1.717   6.703
26047WAT      O78382   6.619   7.147   7.158
26047WAT     H178383   6.714   7.119   7.169
26047WAT     H278384   6.589   7.195   7.240
26048WAT      O78385   1.749   9.730   6.957
26048WAT     H178386   1.752   9.829   6.966
26048WAT     H278387   1.839   9.691   6.978
26049WAT      O78388   5.454   3.686   3.171
26049WAT     H178389   5.480   3.627   3.094
26049WAT     H278390   5.377   3.744   3.145
26050WAT      O78391   5.061   7.459   3.878
26050WAT     H178392   5.075   7.538   3.819
26050WAT     H278393   4.968   7.461   3.916
26051WAT      O78394   7.281   0.710   1.944
26051WAT     H178395   7.277   0.796   1.893
26051WAT     H278396   7.290   0.633   1.880
26052WAT      O78397   7.782   8.024   5.405
26052WAT     H178398   7.683   8.028   5.418
26052WAT     H278399   7.820   8.116   5.406
26053WAT      O78400   8.753   5.136   8.912
26053WAT     H178401   8.807   5.105   8.834
26053WAT     H278402   8.658   5.106   8.901
26054WAT      O78403   2.732   8.283   6.488
26054WAT     H178404   2.762   8.366   6.440
26054WAT     H278405   2.792   8.207   6.464
26055WAT      O78406   2.199   0.636   4.879
26055WAT     H178407   2.257   0.693   4.938
26055WAT     H278408   2.257   0.580   4.819
26056WAT      O78409   9.608   8.623   7.888
26056WAT     H178410   9.514   8.593   7.870
26056WAT     H278411   9.672   8.562   7.840
26057WAT      O78412   6.575   8.443   7.212
26057WAT     H178413   6.491   8.433   7.266
26057WAT     H278414   6.651   8.464   7.274
26058WAT      O78415   1.163   0.115   4.039
26058WAT     H178416   1.072   0.157   4.037
26058WAT     H278417   1.162   0.030   3.987
26059WAT      O78418   6.926   8.858   8.417
26059WAT     H178419   6.828   8.862   8.399
26059WAT     H278420   6.976   8.855   8.330
26060WAT      O78421   1.562   7.703   8.764
26060WAT     H178422   1.498   7.735   8.834
26060WAT     H278423   1.603   7.782   8.718
26061WAT      O78424   8.433   0.039   7.343
26061WAT     H178425   8.395   0.060   7.253
26061WAT     H278426   8.428  -0.059   7.361
26062WAT      O78427   7.967   7.972   1.015
26062WAT     H178428   7.971   8.013   1.107
26062WAT     H278429   7.900   7.898   1.015
26063WAT      O78430   5.641   9.538   8.284
26063WAT     H178431   5.615   9.477   8.209
26063WAT     H278432   5.740   9.546   8.288
26064WAT      O78433   0.341   2.367   1.604
26064WAT     H178434   0.287   2.393   1.685
26064WAT     H278435   0.403   2.293   1.627
26065WAT      O78436   9.671   9.191   7.874
26065WAT     H178437   9.718   9.275   7.845
26065WAT     H278438   9.724   9.112   7.846
26066WAT      O78439   2.005   0.615   9.140
26066WAT     H178440   1.980   0.578   9.230
26066WAT     H278441   1.982   0.712   9.137
26067WAT      O78442   1.343   6.892   5.130
26067WAT     H178443   1.340   6.932   5.221
26067WAT     H278444   1.250   6.873   5.099
26068WAT      O78445   0.282   3.196   3.093
26068WAT     H178446   0.285   3.138   3.175
26068WAT     H278447   0.368   3.187   3.043
26069WAT      O78448   8.237   9.130   3.114
26069WAT     H178449   8.169   9.062   3.142
26069WAT     H278450   8.206   9.221   3.143
26070WAT      O78451   7.346   4.701   3.204
26070WAT     H178452   7.410   4.742   3.268
26070WAT     H278453   7.266   4.667   3.254
26071WAT      O78454   5.725   7.719   5.992
26071WAT     H178455   5.714   7.801   5.935
26071WAT     H278456   5.738   7.746   6.088
26072WAT      O78457   8.854   7.220   1.272
26072WAT     H178458   8.832   7.298   1.330
26072WAT     H278459   8.952   7.219   1.252
26073WAT      O78460   2.228   5.031   3.576
26073WAT     H178461   2.315   4.991   3.606
26073WAT     H278462   2.216   5.120   3.619
26074WAT      O78463   9.731   4.986   6.614
26074WAT     H178464   9.701   5.081   6.626
26074WAT     H278465   9.713   4.935   6.698
26075WAT      O78466   7.924   8.502   8.031
26075WAT     H178467   7.926   8.584   7.973
26075WAT     H278468   7.987   8.515   8.108
26076WAT      O78469   6.044   7.004   2.457
26076WAT     H178470   6.103   6.924   2.449
26076WAT     H278471   6.079   7.078   2.400
26077WAT      O78472   8.754   8.545   8.484
26077WAT     H178473   8.686   8.592   8.427
26077WAT     H278474   8.837   8.529   8.431
26078WAT      O78475   1.168   6.395   5.174
26078WAT     H178476   1.129   6.422   5.086
26078WAT     H278477   1.240   6.461   5.201
26079WAT      O78478   4.131   1.138   8.344
26079WAT     H178479   4.155   1.213   8.405
26079WAT     H278480   4.164   1.051   8.382
26080WAT      O78481   8.303   9.661   7.432
26080WAT     H178482   8.261   9.650   7.522
26080WAT     H278483   8.308   9.573   7.386
26081WAT      O78484   1.448   1.614   2.921
26081WAT     H178485   1.395   1.566   2.851
26081WAT     H278486   1.493   1.693   2.880
26082WAT      O78487   9.086   5.182   8.703
26082WAT     H178488   9.128   5.175   8.612
26082WAT     H278489   9.060   5.090   8.734
26083WAT      O78490   2.053   4.339   9.154
26083WAT     H178491   1.967   4.291   9.138
26083WAT     H278492   2.052   4.426   9.105
26084WAT      O78493   5.958   2.069   7.635
26084WAT     H178494   5.899   2.138   7.591
26084WAT     H278495   6.029   2.040   7.571
26085WAT      O78496   1.400   4.226   6.970
26085WAT     H178497   1.333   4.152   6.978
26085WAT     H278498   1.471   4.201   6.904
26086WAT      O78499   0.409   2.571   5.345
26086WAT     H178500   0.385   2.474   5.348
26086WAT     H278501   0.501   2.583   5.383
26087WAT      O78502   5.481   6.686   3.773
26087WAT     H178503   5.454   6.653   3.682
26087WAT     H278504   5.536   6.768   3.764
26088WAT      O78505   6.225   3.285   1.196
26088WAT     H178506   6.275   3.315   1.116
26088WAT     H278507   6.266   3.325   1.278
26089WAT      O78508   4.581   0.850   9.838
26089WAT     H178509   4.571   0.822   9.742
26089WAT     H278510   4.522   0.795   9.896
26090WAT      O78511   1.957   1.754   1.819
26090WAT     H178512   1.965   1.818   1.895
26090WAT     H278513   1.999   1.795   1.737
26091WAT      O78514   2.164   6.371   0.488
26091WAT     H178515   2.132   6.276   0.489
26091WAT     H278516   2.264   6.373   0.480
26092WAT      O78517   0.964   3.542   6.746
26092WAT     H178518   1.051   3.501   6.717
26092WAT     H278519   0.900   3.539   6.669
26093WAT      O78520   9.424   2.672   2.033
26093WAT     H178521   9.438   2.589   2.088
26093WAT     H278522   9.481   2.666   1.951
26094WAT      O78523   8.961   7.375   7.043
26094WAT     H178524   9.016   7.428   7.107
26094WAT     H278525   8.981   7.403   6.950
26095WAT      O78526   2.171   5.840   0.733
26095WAT     H178527   2.261   5.819   0.769
26095WAT     H278528   2.105   5.845   0.808
26096WAT      O78529   2.861   7.933   0.007
26096WAT     H178530   2.770   7.893   0.020
26096WAT     H278531   2.858   8.031   0.027
26097WAT      O78532   5.909   3.683   8.627
26097WAT     H178533   5.892   3.759   8.564
26097WAT     H278534   5.829   3.623   8.630
26098WAT      O78535   3.671   4.428   7.764
26098WAT     H178536   3.616   4.493   7.817
26098WAT     H278537   3.614   4.352   7.735
26099WAT      O78538   4.544   1.035   6.384
26099WAT     H178539   4.638   1.025   6.352
26099WAT     H278540   4.492   1.091   6.319
26100WAT      O78541   3.289   9.804   1.412
26100WAT     H178542   3.243   9.755   1.486
26100WAT     H278543   3.225   9.870   1.372
26101WAT      O78544   7.372   7.744   8.874
26101WAT     H178545   7.425   7.686   8.936
26101WAT     H278546   7.275   7.728   8.889
26102WAT      O78547   6.776   7.042   1.602
26102WAT     H178548   6.844   7.010   1.536
26102WAT     H278549   6.798   7.136   1.629
26103WAT      O78550   9.219   5.697   2.179
26103WAT     H178551   9.137   5.641   2.191
26103WAT     H278552   9.299   5.638   2.169
26104WAT      O78553   2.491   6.922   0.962
26104WAT     H178554   2.482   6.861   0.884
26104WAT     H278555   2.518   7.013   0.931
26105WAT      O78556   0.528   1.281   5.600
26105WAT     H178557   0.485   1.302   5.688
26105WAT     H278558   0.459   1.247   5.536
26106WAT      O78559   4.209   6.446   1.776
26106WAT     H178560   4.169   6.419   1.689
26106WAT     H278561   4.249   6.366   1.821
26107WAT      O78562   0.904   4.394   3.925
26107WAT     H178563   0.957   4.395   4.009
26107WAT     H278564   0.908   4.303   3.884
26108WAT      O78565   3.163   6.742   9.503
26108WAT     H178566   3.106   6.680   9.557
26108WAT     H278567   3.219   6.798   9.564
26109WAT      O78568   9.208   4.380   3.425
26109WAT     H178569   9.300   4.369   3.388
26109WAT     H278570   9.205   4.461   3.484
26110WAT      O78571   3.977   8.782   4.568
26110WAT     H178572   3.950   8.787   4.472
26110WAT     H278573   3.899   8.805   4.626
26111WAT      O78574   5.787   3.733   5.896
26111WAT     H178575   5.886   3.728   5.903
26111WAT     H278576   5.762   3.803   5.829
26112WAT      O78577   4.381   8.523   3.296
26112WAT     H178578   4.297   8.553   3.250
26112WAT     H278579   4.378   8.553   3.392
26113WAT      O78580   2.107   2.380   0.916
26113WAT     H178581   2.112   2.468   0.869
26113WAT     H278582   2.013   2.345   0.910
26114WAT      O78583   0.264   7.697   9.170
26114WAT     H178584   0.320   7.627   9.126
26114WAT     H278585   0.249   7.773   9.106
26115WAT      O78586   4.282   2.019   5.875
26115WAT     H178587   4.185   2.016   5.850
26115WAT     H278588   4.335   2.057   5.799
26116WAT      O78589   8.238   1.054   3.151
26116WAT     H178590   8.188   1.073   3.067
26116WAT     H278591   8.288   1.136   3.180
26117WAT      O78592   3.151   4.649   0.275
26117WAT     H178593   3.124   4.572   0.217
26117WAT     H278594   3.081   4.663   0.345
26118WAT      O78595   6.702   2.158   5.198
26118WAT     H178596   6.709   2.071   5.246
26118WAT     H278597   6.607   2.172   5.170
26119WAT      O78598   3.942   2.652   1.105
26119WAT     H178599   4.042   2.641   1.105
26119WAT     H278600   3.919   2.749   1.097
26120WAT      O78601   8.220   4.706   3.585
26120WAT     H178602   8.296   4.647   3.613
26120WAT     H278603   8.236   4.799   3.618
26121WAT      O78604   7.020   6.802   6.491
26121WAT     H178605   6.985   6.826   6.582
26121WAT     H278606   6.949   6.820   6.422
26122WAT      O78607   0.858   1.894   3.716
26122WAT     H178608   0.924   1.922   3.645
26122WAT     H278609   0.899   1.823   3.773
26123WAT      O78610   9.174   8.914   2.232
26123WAT     H178611   9.170   9.014   2.242
26123WAT     H278612   9.231   8.890   2.154
26124WAT      O78613   5.030   1.077   1.282
26124WAT     H178614   5.116   1.125   1.297
26124WAT     H278615   5.045   0.978   1.290
26125WAT      O78616   0.789   2.380   8.641
26125WAT     H178617   0.704   2.329   8.626
26125WAT     H278618   0.855   2.322   8.689
26126WAT      O78619   5.861   1.341   5.006
26126WAT     H178620   5.780   1.314   5.058
26126WAT     H278621   5.917   1.402   5.061
26127WAT      O78622   0.462   8.242   8.277
26127WAT     H178623   0.456   8.219   8.374
26127WAT     H278624   0.485   8.339   8.267
26128WAT      O78625   0.037   7.184   6.845
26128WAT     H178626   0.005   7.171   6.939
26128WAT     H278627   0.121   7.131   6.831
26129WAT      O78628   4.361   3.280   8.288
26129WAT     H178629   4.383   3.325   8.375
26129WAT     H278630   4.262   3.272   8.280
26130WAT      O78631   5.085   5.355   9.075
26130WAT     H178632   5.138   5.388   8.997
26130WAT     H278633   5.035   5.431   9.116
26131WAT      O78634   4.087   7.167   1.968
26131WAT     H178635   4.025   7.126   1.902
26131WAT     H278636   4.060   7.262   1.984
26132WAT      O78637   1.387   6.240   3.379
26132WAT     H178638   1.374   6.307   3.451
26132WAT     H278639   1.482   6.242   3.348
26133WAT      O78640   4.620   6.395   3.460
26133WAT     H178641   4.655   6.394   3.366
26133WAT     H278642   4.657   6.475   3.508
26134WAT      O78643   5.575   7.977   0.890
26134WAT     H178644   5.578   7.956   0.792
26134WAT     H278645   5.669   7.988   0.923
26135WAT      O78646   7.200   6.926   7.514
26135WAT     H178647   7.226   6.959   7.605
26135WAT     H278648   7.262   6.964   7.446
26136WAT      O78649   5.951   8.015   5.082
26136WAT     H178650   5.916   8.089   5.025
26136WAT     H278651   5.995   7.946   5.025
26137WAT      O78652   1.938   3.439   3.787
26137WAT     H178653   1.899   3.530   3.798
26137WAT     H278654   1.875   3.381   3.736
26138WAT      O78655   0.012   1.915   9.391
26138WAT     H178656  -0.042   1.982   9.340
26138WAT     H278657  -0.015   1.823   9.363
26139WAT      O78658   0.654   3.541   2.653
26139WAT     H178659   0.590   3.557   2.578
26139WAT     H278660   0.726   3.610   2.649
26140WAT      O78661   3.562   0.925   1.536
26140WAT     H178662   3.631   0.973   1.482
26140WAT     H278663   3.524   0.850   1.482
26141WAT      O78664   3.179   8.026   1.317
26141WAT     H178665   3.099   7.989   1.269
26141WAT     H278666   3.158   8.118   1.350
26142WAT      O78667   1.495   5.400   2.811
26142WAT     H178668   1.515   5.371   2.904
26142WAT     H278669   1.573   5.451   2.774
26143WAT      O78670   5.487   1.087   9.061
26143WAT     H178671   5.457   1.137   8.980
26143WAT     H278672   5.421   1.100   9.135
26144WAT      O78673   4.779   6.771   4.217
26144WAT     H178674   4.775   6.870   4.227
26144WAT     H278675   4.821   6.731   4.299
26145WAT      O78676   4.355   2.169   4.383
26145WAT     H178677   4.432   2.198   4.326
26145WAT     H278678   4.272   2.217   4.352
26146WAT      O78679   6.252   1.037   8.083
26146WAT     H178680   6.263   1.006   7.989
26146WAT     H278681   6.255   0.959   8.145
26147WAT      O78682   1.288   8.756   5.465
26147WAT     H178683   1.247   8.810   5.538
26147WAT     H278684   1.370   8.801   5.431
26148WAT      O78685   7.101   0.482   0.291
26148WAT     H178686   7.155   0.557   0.254
26148WAT     H278687   7.142   0.394   0.266
26149WAT      O78688   0.753   9.081   2.939
26149WAT     H178689   0.791   9.100   3.029
26149WAT     H278690   0.771   8.986   2.914
26150WAT      O78691   2.919   8.212   8.295
26150WAT     H178692   3.011   8.241   8.268
26150WAT     H278693   2.854   8.238   8.223
26151WAT      O78694   5.970   4.990   3.594
26151WAT     H178695   6.057   4.997   3.643
26151WAT     H278696   5.899   4.962   3.658
26152WAT      O78697   3.732   7.807   9.492
26152WAT     H178698   3.695   7.851   9.411
26152WAT     H278699   3.718   7.866   9.572
26153WAT      O78700   8.965   7.087   7.034
26153WAT     H178701   8.961   7.187   7.033
26153WAT     H278702   8.892   7.050   6.977
26154WAT      O78703   2.185   0.647   1.277
26154WAT     H178704   2.131   0.719   1.320
26154WAT     H278705   2.125   0.591   1.220
26155WAT      O78706   0.474   6.427   5.583
26155WAT     H178707   0.548   6.382   5.632
26155WAT     H278708   0.492   6.526   5.578
26156WAT      O78709   1.173   8.611   5.087
26156WAT     H178710   1.224   8.694   5.110
26156WAT     H278711   1.169   8.551   5.167
26157WAT      O78712   0.236   2.056   6.439
26157WAT     H178713   0.232   2.135   6.378
26157WAT     H278714   0.194   1.977   6.395
26158WAT      O78715   9.814   1.267   5.892
26158WAT     H178716   9.746   1.209   5.848
26158WAT     H278717   9.780   1.299   5.980
26159WAT      O78718   1.420   5.817   3.136
26159WAT     H178719   1.435   5.785   3.229
26159WAT     H278720   1.324   5.806   3.111
26160WAT      O78721   0.699   7.156   1.977
26160WAT     H178722   0.601   7.170   1.989
26160WAT     H278723   0.742   7.242   1.951
26161WAT      O78724   1.153   8.499   8.144
26161WAT     H178725   1.224   8.450   8.095
26161WAT     H278726   1.162   8.597   8.127
26162WAT      O78727   0.369   6.525   0.006
26162WAT     H178728   0.460   6.538  -0.035
26162WAT     H278729   0.326   6.613   0.022
26163WAT      O78730   7.873   4.335   8.527
26163WAT     H178731   7.820   4.260   8.568
26163WAT     H278732   7.960   4.299   8.492
26164WAT      O78733   4.056   4.390   0.466
26164WAT     H178734   4.071   4.439   0.552
26164WAT     H278735   3.959   4.367   0.456
26165WAT      O78736   1.461   6.916   2.666
26165WAT     H178737   1.438   7.002   2.712
26165WAT     H278738   1.377   6.865   2.649
26166WAT      O78739   7.416   0.146   4.477
26166WAT     H178740   7.514   0.158   4.494
26166WAT     H278741   7.366   0.220   4.522
26167WAT      O78742   9.748   5.449   6.881
26167WAT     H178743   9.703   5.536   6.902
26167WAT     H278744   9.697   5.374   6.924
26168WAT      O78745   0.576   2.378   2.948
26168WAT     H178746   0.645   2.444   2.979
26168WAT     H278747   0.621   2.293   2.920
26169WAT      O78748   2.071   0.600   0.008
26169WAT     H178749   1.976   0.591  -0.022
26169WAT     H278750   2.116   0.511   0.009
26170WAT      O78751   7.725   1.133   2.993
26170WAT     H178752   7.699   1.041   3.022
26170WAT     H278753   7.729   1.193   3.072
26171WAT      O78754   5.699   0.962   6.751
26171WAT     H178755   5.689   0.884   6.812
26171WAT     H278756   5.758   1.031   6.793
26172WAT      O78757   0.925   9.336   5.902
26172WAT     H178758   0.935   9.305   5.808
26172WAT     H278759   0.971   9.273   5.963
26173WAT      O78760   8.497   6.747   3.119
26173WAT     H178761   8.468   6.825   3.063
26173WAT     H278762   8.487   6.769   3.216
26174WAT      O78763   9.640   5.780   4.971
26174WAT     H178764   9.553   5.812   4.934
26174WAT     H278765   9.705   5.856   4.971
26175WAT      O78766   6.045   8.763   6.484
26175WAT     H178767   6.008   8.818   6.409
26175WAT     H278768   6.111   8.697   6.448
26176WAT      O78769   6.553   0.419   5.263
26176WAT     H178770   6.516   0.506   5.298
26176WAT     H278771   6.523   0.344   5.321
26177WAT      O78772   3.986   2.961   2.695
26177WAT     H178773   4.054   3.032   2.677
26177WAT     H278774   4.026   2.891   2.754
26178WAT      O78775   3.657   5.213   0.843
26178WAT     H178776   3.649   5.147   0.769
26178WAT     H278777   3.644   5.305   0.806
26179WAT      O78778   1.884   4.514   7.900
26179WAT     H178779   1.864   4.506   7.998
26179WAT     H278780   1.798   4.524   7.850
26180WAT      O78781   3.330   6.021   8.756
26180WAT     H178782   3.411   5.963   8.760
26180WAT     H278783   3.304   6.049   8.849
26181WAT      O78784   0.681   0.470   1.477
26181WAT     H178785   0.747   0.427   1.416
26181WAT     H278786   0.719   0.554   1.514
26182WAT      O78787   6.240   7.075   4.809
26182WAT     H178788   6.202   7.129   4.734
26182WAT     H278789   6.207   7.112   4.896
26183WAT      O78790   0.832   7.731   6.446
26183WAT     H178791   0.807   7.675   6.367
26183WAT     H278792   0.930   7.723   6.462
26184WAT      O78793   4.664   6.145   4.184
26184WAT     H178794   4.598   6.110   4.250
26184WAT     H278795   4.622   6.152   4.094
26185WAT      O78796   9.526   9.584   0.015
26185WAT     H178797   9.563   9.575   0.107
26185WAT     H278798   9.584   9.645  -0.039
26186WAT      O78799   7.537   8.767   7.084
26186WAT     H178800   7.480   8.848   7.098
26186WAT     H278801   7.585   8.775   6.996
26187WAT      O78802   8.110   8.637   7.005
26187WAT     H178803   8.017   8.647   6.969
26187WAT     H278804   8.117   8.551   7.055
26188WAT      O78805   4.545   2.210   1.766
26188WAT     H178806   4.614   2.172   1.705
26188WAT     H278807   4.454   2.183   1.734
26189WAT      O78808   5.561   6.202   3.307
26189WAT     H178809   5.597   6.203   3.213
26189WAT     H278810   5.635   6.221   3.371
26190WAT      O78811   1.629   9.404   6.639
26190WAT     H178812   1.655   9.347   6.717
26190WAT     H278813   1.710   9.423   6.583
26191WAT      O78814   0.168   6.055   6.945
26191WAT     H178815   0.101   6.120   6.908
26191WAT     H278816   0.253   6.103   6.966
26192WAT      O78817   8.844   8.005   4.678
26192WAT     H178818   8.908   8.056   4.734
26192WAT     H278819   8.827   8.055   4.593
26193WAT      O78820   0.137   8.159   2.000
26193WAT     H178821   0.194   8.126   2.075
26193WAT     H278822   0.147   8.258   1.992
26194WAT      O78823   2.609   3.312   4.390
26194WAT     H178824   2.683   3.371   4.357
26194WAT     H278825   2.632   3.277   4.481
26195WAT      O78826   5.348   1.246   5.561
26195WAT     H178827   5.295   1.200   5.632
26195WAT     H278828   5.357   1.186   5.481
26196WAT      O78829   7.044   4.562   8.223
26196WAT     H178830   7.020   4.652   8.186
26196WAT     H278831   7.143   4.547   8.215
26197WAT      O78832   5.955   6.536   8.538
26197WAT     H178833   6.036   6.590   8.561
26197WAT     H278834   5.979   6.438   8.542
26198WAT      O78835   2.294   4.537   5.002
26198WAT     H178836   2.375   4.565   5.054
26198WAT     H278837   2.302   4.567   4.907
26199WAT      O78838   5.617   7.344   3.544
26199WAT     H178839   5.534   7.297   3.572
26199WAT     H278840   5.676   7.280   3.494
26200WAT      O78841   6.459   0.554   6.156
26200WAT     H178842   6.512   0.514   6.081
26200WAT     H278843   6.454   0.489   6.232
26201WAT      O78844   6.291   5.391   3.474
26201WAT     H178845   6.223   5.427   3.410
26201WAT     H278846   6.256   5.307   3.515
26202WAT      O78847   3.393   5.768   2.882
26202WAT     H178848   3.317   5.736   2.826
26202WAT     H278849   3.472   5.708   2.870
26203WAT      O78850   4.657   2.337   0.516
26203WAT     H178851   4.746   2.375   0.491
26203WAT     H278852   4.668   2.275   0.593
26204WAT      O78853   0.328   1.014   9.030
26204WAT     H178854   0.276   0.942   9.075
26204WAT     H278855   0.409   1.036   9.085
26205WAT      O78856   4.405   7.792   5.246
26205WAT     H178857   4.414   7.868   5.182
26205WAT     H278858   4.312   7.791   5.283
26206WAT      O78859   5.817   8.491   1.724
26206WAT     H178860   5.815   8.460   1.629
26206WAT     H278861   5.890   8.558   1.735
26207WAT      O78862   9.850   3.626   2.473
26207WAT     H178863   9.927   3.564   2.460
26207WAT     H278864   9.817   3.658   2.385
26208WAT      O78865   4.055   7.039   8.200
26208WAT     H178866   4.075   7.099   8.277
26208WAT     H278867   4.136   7.028   8.143
26209WAT      O78868   4.588   0.960   4.119
26209WAT     H178869   4.559   0.872   4.081
26209WAT     H278870   4.614   0.947   4.215
26210WAT      O78871   1.679   2.829   3.172
26210WAT     H178872   1.721   2.916   3.148
26210WAT     H278873   1.741   2.754   3.148
26211WAT      O78874   9.588   8.522   2.362
26211WAT     H178875   9.501   8.568   2.345
26211WAT     H278876   9.573   8.424   2.370
26212WAT      O78877   1.785   1.256   0.574
26212WAT     H178878   1.723   1.310   0.631
26212WAT     H278879   1.841   1.318   0.518
26213WAT      O78880   5.425   0.548   6.414
26213WAT     H178881   5.455   0.456   6.439
26213WAT     H278882   5.325   0.552   6.415
26214WAT      O78883   6.404   0.869   0.491
26214WAT     H178884   6.445   0.781   0.515
26214WAT     H278885   6.332   0.855   0.422
26215WAT      O78886   7.826   3.049   8.791
26215WAT     H178887   7.861   3.026   8.700
26215WAT     H278888   7.841   3.146   8.810
26216WAT      O78889   8.210   7.053   1.234
26216WAT     H178890   8.120   7.072   1.274
26216WAT     H278891   8.199   7.025   1.138
26217WAT      O78892   6.058   0.449   6.352
26217WAT     H178893   6.013   0.399   6.278
26217WAT     H278894   6.052   0.396   6.436
26218WAT      O78895   3.065   5.563   0.689
26218WAT     H178896   3.026   5.556   0.780
26218WAT     H278897   3.012   5.507   0.625
26219WAT      O78898   9.208   3.257   2.231
26219WAT     H178899   9.177   3.343   2.190
26219WAT     H278900   9.210   3.186   2.161
26220WAT      O78901   8.945   8.173   6.521
26220WAT     H178902   8.918   8.225   6.440
26220WAT     H278903   8.864   8.141   6.569
26221WAT      O78904   3.124   4.895   8.085
26221WAT     H178905   3.100   4.805   8.122
26221WAT     H278906   3.110   4.965   8.156
26222WAT      O78907   8.593   5.030   2.460
26222WAT     H178908   8.511   4.974   2.470
26222WAT     H278909   8.670   4.985   2.505
26223WAT      O78910   3.985   8.322   6.759
26223WAT     H178911   3.935   8.372   6.830
26223WAT     H278912   3.996   8.381   6.679
26224WAT      O78913   0.656   8.112   1.811
26224WAT     H178914   0.735   8.159   1.772
26224WAT     H278915   0.575   8.170   1.804
26225WAT      O78916   5.446   4.130   8.973
26225WAT     H178917   5.471   4.042   8.932
26225WAT     H278918   5.361   4.163   8.933
26226WAT      O78919   6.908   0.794   0.244
26226WAT     H178920   6.935   0.720   0.182
26226WAT     H278921   6.887   0.756   0.334
26227WAT      O78922   2.605   8.659   4.686
26227WAT     H178923   2.675   8.668   4.615
26227WAT     H278924   2.574   8.565   4.692
26228WAT      O78925   1.882   8.377   6.190
26228WAT     H178926   1.935   8.368   6.274
26228WAT     H278927   1.788   8.347   6.206
26229WAT      O78928   8.696   4.347   6.422
26229WAT     H178929   8.769   4.338   6.490
26229WAT     H278930   8.608   4.357   6.468
26230WAT      O78931   0.766   8.255   3.557
26230WAT     H178932   0.675   8.227   3.525
26230WAT     H278933   0.800   8.330   3.500
26231WAT      O78934   6.344   0.778   3.907
26231WAT     H178935   6.345   0.857   3.968
26231WAT     H278936   6.417   0.787   3.840
26232WAT      O78937   6.879   7.818   0.467
26232WAT     H178938   6.836   7.905   0.493
26232WAT     H278939   6.873   7.807   0.368
26233WAT      O78940   3.589   9.304   1.901
26233WAT     H178941   3.509   9.327   1.846
26233WAT     H278942   3.671   9.310   1.845
26234WAT      O78943   9.706   6.456   8.593
26234WAT     H178944   9.710   6.375   8.534
26234WAT     H278945   9.799   6.482   8.619
26235WAT      O78946   4.597   9.217   6.508
26235WAT     H178947   4.537   9.138   6.519
26235WAT     H278948   4.591   9.276   6.589
26236WAT      O78949   8.472   6.684   1.640
26236WAT     H178950   8.537   6.757   1.618
26236WAT     H278951   8.471   6.668   1.739
26237WAT      O78952   3.299   5.465   5.211
26237WAT     H178953   3.395   5.454   5.183
26237WAT     H278954   3.244   5.395   5.165
26238WAT      O78955   2.677   6.729   7.555
26238WAT     H178956   2.622   6.803   7.517
26238WAT     H278957   2.678   6.652   7.491
26239WAT      O78958   7.706   0.654   1.284
26239WAT     H178959   7.632   0.720   1.293
26239WAT     H278960   7.669   0.561   1.282
26240WAT      O78961   5.172   4.331   7.817
26240WAT     H178962   5.127   4.268   7.880
26240WAT     H278963   5.173   4.423   7.856
26241WAT      O78964   6.973   7.532   1.434
26241WAT     H178965   6.916   7.460   1.396
26241WAT     H278966   6.936   7.562   1.522
26242WAT      O78967   7.863   5.522   8.451
26242WAT     H178968   7.901   5.486   8.536
26242WAT     H278969   7.878   5.456   8.378
26243WAT      O78970   7.681   8.848   8.306
26243WAT     H178971   7.686   8.840   8.406
26243WAT     H278972   7.671   8.944   8.281
26244WAT      O78973   8.752   6.478   5.240
26244WAT     H178974   8.777   6.394   5.288
26244WAT     H278975   8.666   6.465   5.190
26245WAT      O78976   8.173   6.368   4.618
26245WAT     H178977   8.185   6.278   4.661
26245WAT     H278978   8.259   6.394   4.574
26246WAT      O78979   3.889   1.901   4.334
26246WAT     H178980   3.797   1.908   4.374
26246WAT     H278981   3.899   1.968   4.261
26247WAT      O78982   3.602   9.449   3.328
26247WAT     H178983   3.644   9.533   3.292
26247WAT     H278984   3.666   9.373   3.315
26248WAT      O78985   1.133   4.380   4.551
26248WAT     H178986   1.189   4.407   4.630
26248WAT     H278987   1.110   4.461   4.498
26249WAT      O78988   1.460   4.721   1.665
26249WAT     H178989   1.531   4.678   1.610
26249WAT     H278990   1.382   4.746   1.606
26250WAT      O78991   5.406   7.692   4.745
26250WAT     H178992   5.499   7.658   4.759
26250WAT     H278993   5.385   7.763   4.813
26251WAT      O78994   6.413   5.810   7.027
26251WAT     H178995   6.390   5.894   6.978
26251WAT     H278996   6.507   5.815   7.060
26252WAT      O78997   0.903   9.370   5.173
26252WAT     H178998   0.984   9.364   5.116
26252WAT     H278999   0.827   9.323   5.128
26253WAT      O79000   2.189   8.624   0.678
26253WAT     H179001   2.258   8.551   0.679
26253WAT     H279002   2.120   8.604   0.608
26254WAT      O79003   7.904   3.488   4.390
26254WAT     H179004   7.855   3.437   4.460
26254WAT     H279005   7.854   3.484   4.304
26255WAT      O79006   8.487   9.160   9.147
26255WAT     H179007   8.502   9.115   9.059
26255WAT     H279008   8.388   9.170   9.163
26256WAT      O79009   4.251   2.917   3.460
26256WAT     H179010   4.319   2.886   3.393
26256WAT     H279011   4.227   2.840   3.520
26257WAT      O79012   8.289   0.949   8.012
26257WAT     H179013   8.279   0.865   8.065
26257WAT     H279014   8.260   1.027   8.068
26258WAT      O79015   4.986   0.953   9.588
26258WAT     H179016   5.047   0.874   9.581
26258WAT     H279017   4.940   0.953   9.677
26259WAT      O79018   1.993   4.442   7.421
26259WAT     H179019   1.928   4.398   7.360
26259WAT     H279020   1.953   4.525   7.460
26260WAT      O79021   9.858   2.383   9.850
26260WAT     H179022   9.868   2.391   9.949
26260WAT     H279023   9.801   2.458   9.815
26261WAT      O79024   2.748   3.519   3.074
26261WAT     H179025   2.716   3.614   3.084
26261WAT     H279026   2.670   3.457   3.078
26262WAT      O79027   2.380   6.564   2.727
26262WAT     H179028   2.461   6.608   2.766
26262WAT     H279029   2.311   6.634   2.708
26263WAT      O79030   1.700   7.586   8.240
26263WAT     H179031   1.766   7.565   8.311
26263WAT     H279032   1.701   7.513   8.171
26264WAT      O79033   5.415   6.714   0.646
26264WAT     H179034   5.374   6.775   0.578
26264WAT     H279035   5.352   6.704   0.723
26265WAT      O79036   6.926   1.414   7.798
26265WAT     H179037   6.968   1.497   7.834
26265WAT     H279038   6.959   1.396   7.706
26266WAT      O79039   3.180   1.071   7.849
26266WAT     H179040   3.192   0.976   7.877
26266WAT     H279041   3.136   1.074   7.759
26267WAT      O79042   3.398   9.618   3.382
26267WAT     H179043   3.449   9.533   3.392
26267WAT     H279044   3.443   9.677   3.314
26268WAT      O79045   1.284   1.154   3.770
26268WAT     H179046   1.361   1.118   3.823
26268WAT     H279047   1.207   1.090   3.775
26269WAT      O79048   4.006   6.924   4.012
26269WAT     H179049   4.025   6.972   4.098
26269WAT     H279050   4.038   6.830   4.019
26270WAT      O79051   1.400   5.535   7.936
26270WAT     H179052   1.470   5.602   7.964
26270WAT     H279053   1.406   5.521   7.837
26271WAT      O79054   7.082   6.340   1.324
26271WAT     H179055   7.172   6.381   1.310
26271WAT     H279056   7.015   6.411   1.341
26272WAT      O79057   9.411   8.258   6.350
26272WAT     H179058   9.328   8.210   6.377
26272WAT     H279059   9.451   8.214   6.270
26273WAT      O79060   0.791   4.810   9.458
26273WAT     H179061   0.848   4.754   9.398
26273WAT     H279062   0.739   4.751   9.519
26274WAT      O79063   2.626   1.426   6.606
26274WAT     H179064   2.530   1.451   6.620
26274WAT     H279065   2.669   1.494   6.546
26275WAT      O79066   6.985   7.273   3.829
26275WAT     H179067   7.062   7.232   3.877
26275WAT     H279068   7.014   7.307   3.740
26276WAT      O79069   0.064   2.922   5.365
26276WAT     H179070   0.071   2.965   5.275
26276WAT     H279071   0.103   2.830   5.361
26277WAT      O79072   7.628   4.650   7.944
26277WAT     H179073   7.652   4.738   7.904
26277WAT     H279074   7.692   4.628   8.018
26278WAT      O79075   3.476   6.240   4.945
26278WAT     H179076   3.402   6.256   4.880
26278WAT     H279077   3.526   6.157   4.920
26279WAT      O79078   9.572   3.802   6.160
26279WAT     H179079   9.527   3.762   6.240
26279WAT     H279080   9.560   3.741   6.082
26280WAT      O79081   8.572   1.580   3.559
26280WAT     H179082   8.663   1.556   3.526
26280WAT     H279083   8.576   1.600   3.657
26281WAT      O79084   6.135   2.801   3.612
26281WAT     H179085   6.110   2.738   3.686
26281WAT     H279086   6.086   2.776   3.529
26282WAT      O79087   3.144   8.045   1.684
26282WAT     H179088   3.226   7.990   1.670
26282WAT     H279089   3.063   7.990   1.661
26283WAT      O79090   8.676   4.595   4.051
26283WAT     H179091   8.727   4.678   4.073
26283WAT     H279092   8.738   4.528   4.010
26284WAT      O79093   7.331   9.076   1.702
26284WAT     H179094   7.366   8.982   1.706
26284WAT     H279095   7.308   9.099   1.608
26285WAT      O79096   9.181   2.380   2.032
26285WAT     H179097   9.162   2.286   2.003
26285WAT     H279098   9.277   2.387   2.060
26286WAT      O79099   1.923   3.418   9.351
26286WAT     H179100   1.990   3.378   9.288
26286WAT     H279101   1.946   3.392   9.445
26287WAT      O79102   8.377   3.291   0.759
26287WAT     H179103   8.448   3.237   0.804
26287WAT     H279104   8.287   3.256   0.786
26288WAT      O79105   1.479   2.773   7.085
26288WAT     H179106   1.507   2.864   7.115
26288WAT     H279107   1.407   2.782   7.016
26289WAT      O79108   4.462   6.196   1.545
26289WAT     H179109   4.397   6.240   1.484
26289WAT     H279110   4.415   6.170   1.630
26290WAT      O79111   7.134   8.387   4.150
26290WAT     H179112   7.071   8.444   4.204
26290WAT     H279113   7.115   8.291   4.169
26291WAT      O79114   8.324   7.865   0.416
26291WAT     H179115   8.266   7.935   0.373
26291WAT     H279116   8.292   7.775   0.389
26292WAT      O79117   6.219   3.868   4.065
26292WAT     H179118   6.176   3.780   4.085
26292WAT     H279119   6.268   3.900   4.145
26293WAT      O79120   8.718   9.184   3.039
26293WAT     H179121   8.686   9.161   2.947
26293WAT     H279122   8.678   9.271   3.068
26294WAT      O79123   7.285   9.485   3.584
26294WAT     H179124   7.198   9.508   3.627
26294WAT     H279125   7.359   9.534   3.632
26295WAT      O79126   4.033   5.217   3.084
26295WAT     H179127   4.011   5.155   3.159
26295WAT     H279128   3.986   5.304   3.097
26296WAT      O79129   5.181   0.048   7.054
26296WAT     H179130   5.268  -0.001   7.050
26296WAT     H279131   5.198   0.146   7.060
26297WAT      O79132   0.777   2.762   1.895
26297WAT     H179133   0.783   2.842   1.836
26297WAT     H279134   0.861   2.755   1.949
26298WAT      O79135   5.854   5.670   8.543
26298WAT     H179136   5.926   5.612   8.579
26298WAT     H279137   5.894   5.747   8.493
26299WAT      O79138   1.130   9.514   1.509
26299WAT     H179139   1.113   9.482   1.602
26299WAT     H279140   1.045   9.511   1.456
26300WAT      O79141   2.250   5.439   6.018
26300WAT     H179142   2.219   5.488   5.937
26300WAT     H279143   2.346   5.462   6.036
26301WAT      O79144   3.440   4.540   6.504
26301WAT     H179145   3.503   4.615   6.486
26301WAT     H279146   3.347   4.577   6.510
26302WAT      O79147   4.132   6.691   3.377
26302WAT     H179148   4.216   6.738   3.352
26302WAT     H279149   4.080   6.670   3.294
26303WAT      O79150   7.669   8.407   9.629
26303WAT     H179151   7.575   8.434   9.653
26303WAT     H279152   7.678   8.404   9.530
26304WAT      O79153   6.843   5.882   6.022
26304WAT     H179154   6.904   5.953   6.059
26304WAT     H279155   6.789   5.843   6.096
26305WAT      O79156   8.144   2.566   3.657
26305WAT     H179157   8.166   2.495   3.590
26305WAT     H279158   8.108   2.647   3.610
26306WAT      O79159   1.287   3.099   3.077
26306WAT     H179160   1.288   3.099   2.977
26306WAT     H279161   1.340   3.177   3.110
26307WAT      O79162   8.948   7.632   5.437
26307WAT     H179163   9.039   7.659   5.467
26307WAT     H279164   8.954   7.575   5.355
26308WAT      O79165   1.034   6.625   4.118
26308WAT     H179166   1.117   6.661   4.076
26308WAT     H279167   0.965   6.610   4.048
26309WAT      O79168   1.535   4.849   7.769
26309WAT     H179169   1.552   4.879   7.675
26309WAT     H279170   1.583   4.910   7.832
26310WAT      O79171   8.742   5.515   6.925
26310WAT     H179172   8.684   5.484   6.850
26310WAT     H279173   8.708   5.602   6.960
26311WAT      O79174   9.838   2.515   4.127
26311WAT     H179175   9.918   2.563   4.163
26311WAT     H279176   9.763   2.520   4.194
26312WAT      O79177   6.561   2.229   9.328
26312WAT     H179178   6.566   2.196   9.234
26312WAT     H279179   6.486   2.182   9.376
26313WAT      O79180   0.371   6.639   4.777
26313WAT     H179181   0.287   6.689   4.795
26313WAT     H279182   0.387   6.573   4.850
26314WAT      O79183   2.377   3.910   6.215
26314WAT     H179184   2.419   3.893   6.126
26314WAT     H279185   2.353   3.824   6.258
26315WAT      O79186   3.515   8.332   9.482
26315WAT     H179187   3.468   8.410   9.524
26315WAT     H279188   3.580   8.293   9.548
26316WAT      O79189   7.971   3.494   8.360
26316WAT     H179190   7.913   3.415   8.340
26316WAT     H279191   7.916   3.565   8.405
26317WAT      O79192   4.021   8.003   5.277
26317WAT     H179193   4.060   8.051   5.198
26317WAT     H279194   3.930   8.040   5.297
26318WAT      O79195   8.976   7.837   7.836
26318WAT     H179196   8.924   7.919   7.811
26318WAT     H279197   9.069   7.864   7.862
26319WAT      O79198   2.658   7.454   4.889
26319WAT     H179199   2.655   7.503   4.976
26319WAT     H279200   2.734   7.488   4.834
26320WAT      O79201   6.523   2.963   1.193
26320WAT     H179202   6.448   2.898   1.204
26320WAT     H279203   6.526   3.024   1.272
26321WAT      O79204   2.328   4.516   3.833
26321WAT     H179205   2.351   4.501   3.737
26321WAT     H279206   2.379   4.450   3.890
26322WAT      O79207   3.749   2.890   5.967
26322WAT     H179208   3.823   2.948   5.934
26322WAT     H279209   3.662   2.920   5.926
26323WAT      O79210   6.376   7.523   0.334
26323WAT     H179211   6.369   7.467   0.417
26323WAT     H279212   6.469   7.555   0.323
26324WAT      O79213   1.522   0.514   0.805
26324WAT     H179214   1.575   0.500   0.889
26324WAT     H279215   1.435   0.557   0.827
26325WAT      O79216   5.647   4.227   3.104
26325WAT     H179217   5.688   4.136   3.097
26325WAT     H279218   5.570   4.223   3.167
26326WAT      O79219   0.599   3.860   1.230
26326WAT     H179220   0.505   3.854   1.196
26326WAT     H279221   0.649   3.777   1.206
26327WAT      O79222   8.334   1.441   0.287
26327WAT     H179223   8.264   1.397   0.231
26327WAT     H279224   8.360   1.381   0.362
26328WAT      O79225   9.660   6.822   8.939
26328WAT     H179226   9.585   6.758   8.959
26328WAT     H279227   9.624   6.902   8.890
26329WAT      O79228   3.960   9.446   2.527
26329WAT     H179229   3.972   9.348   2.547
26329WAT     H279230   4.050   9.490   2.523
26330WAT      O79231   4.764   0.751   1.794
26330WAT     H179232   4.861   0.746   1.771
26330WAT     H279233   4.750   0.722   1.888
26331WAT      O79234   5.168   2.308   8.632
26331WAT     H179235   5.162   2.221   8.584
26331WAT     H279236   5.236   2.301   8.705
26332WAT      O79237   8.905   2.269   7.343
26332WAT     H179238   8.987   2.275   7.400
26332WAT     H279239   8.927   2.300   7.250
26333WAT      O79240   0.307   1.511   6.671
26333WAT     H179241   0.217   1.476   6.644
26333WAT     H279242   0.343   1.568   6.598
26334WAT      O79243   8.096   7.660   1.442
26334WAT     H179244   8.103   7.570   1.484
26334WAT     H279245   8.153   7.725   1.492
26335WAT      O79246   8.351   8.322   1.191
26335WAT     H179247   8.328   8.418   1.208
26335WAT     H279248   8.443   8.304   1.225
26336WAT      O79249   4.735   6.746   7.678
26336WAT     H179250   4.647   6.730   7.722
26336WAT     H279251   4.783   6.820   7.725
26337WAT      O79252   0.374   6.079   4.279
26337WAT     H179253   0.333   6.025   4.352
26337WAT     H279254   0.420   6.158   4.318
26338WAT      O79255   4.159   5.424   9.387
26338WAT     H179256   4.140   5.351   9.321
26338WAT     H279257   4.256   5.446   9.387
26339WAT      O79258   6.234   0.500   6.686
26339WAT     H179259   6.227   0.591   6.646
26339WAT     H279260   6.175   0.437   6.636
26340WAT      O79261   6.581   2.500   4.803
26340WAT     H179262   6.576   2.580   4.742
26340WAT     H279263   6.625   2.527   4.889
26341WAT      O79264   3.248   6.502   0.528
26341WAT     H179265   3.234   6.544   0.438
26341WAT     H279266   3.226   6.405   0.522
26342WAT      O79267   9.555   6.702   6.219
26342WAT     H179268   9.581   6.631   6.153
26342WAT     H279269   9.584   6.674   6.311
26343WAT      O79270   9.171   9.694   4.068
26343WAT     H179271   9.077   9.666   4.090
26343WAT     H279272   9.192   9.667   3.974
26344WAT      O79273   2.863   6.062   2.251
26344WAT     H179274   2.855   6.095   2.345
26344WAT     H279275   2.785   6.004   2.230
26345WAT      O79276   4.687   6.908   0.175
26345WAT     H179277   4.666   7.004   0.161
26345WAT     H279278   4.784   6.891   0.153
26346WAT      O79279   1.071   6.216   5.515
26346WAT     H179280   1.074   6.160   5.432
26346WAT     H279281   1.133   6.177   5.583
26347WAT      O79282   7.201   8.612   3.700
26347WAT     H179283   7.231   8.700   3.736
26347WAT     H279284   7.129   8.626   3.632
26348WAT      O79285   3.572   7.922   9.080
26348WAT     H179286   3.622   7.841   9.112
26348WAT     H279287   3.480   7.922   9.119
26349WAT      O79288   2.369   3.136   1.155
26349WAT     H179289   2.359   3.099   1.062
26349WAT     H279290   2.428   3.217   1.152
26350WAT      O79291   8.229   3.251   6.449
26350WAT     H179292   8.170   3.317   6.495
26350WAT     H279293   8.282   3.201   6.518
26351WAT      O79294   9.866   6.113   8.755
26351WAT     H179295   9.900   6.190   8.809
26351WAT     H279296   9.767   6.116   8.749
26352WAT      O79297   8.964   5.362   7.396
26352WAT     H179298   8.950   5.285   7.334
26352WAT     H279299   9.049   5.409   7.372
26353WAT      O79300   6.867   8.048   9.052
26353WAT     H179301   6.899   8.075   8.961
26353WAT     H279302   6.769   8.069   9.060
26354WAT      O79303   3.412   9.814   8.551
26354WAT     H179304   3.361   9.774   8.475
26354WAT     H279305   3.496   9.855   8.516
26355WAT      O79306   3.149   4.058   9.636
26355WAT     H179307   3.153   4.039   9.538
26355WAT     H279308   3.070   4.011   9.676
26356WAT      O79309   3.758   5.567   2.459
26356WAT     H179310   3.777   5.531   2.368
26356WAT     H279311   3.817   5.646   2.478
26357WAT      O79312   3.720   8.123   1.677
26357WAT     H179313   3.772   8.102   1.594
26357WAT     H279314   3.746   8.215   1.710
26358WAT      O79315   1.671   6.602   9.125
26358WAT     H179316   1.677   6.597   9.025
26358WAT     H279317   1.604   6.536   9.158
26359WAT      O79318   5.924   6.914   1.775
26359WAT     H179319   5.897   7.010   1.770
26359WAT     H279320   5.880   6.871   1.854
26360WAT      O79321   3.838   1.808   5.744
26360WAT     H179322   3.739   1.792   5.743
26360WAT     H279323   3.876   1.780   5.655
26361WAT      O79324   4.575   8.794   9.093
26361WAT     H179325   4.631   8.840   9.162
26361WAT     H279326   4.492   8.758   9.137
26362WAT      O79327   8.187   6.113   7.789
26362WAT     H179328   8.171   6.205   7.823
26362WAT     H279329   8.260   6.115   7.720
26363WAT      O79330   7.526   7.316   1.545
26363WAT     H179331   7.481   7.351   1.462
26363WAT     H279332   7.625   7.330   1.537
26364WAT      O79333   2.820   5.112   2.095
26364WAT     H179334   2.745   5.090   2.032
26364WAT     H279335   2.791   5.096   2.189
26365WAT      O79336   5.763   4.844   9.189
26365WAT     H179337   5.819   4.763   9.210
26365WAT     H279338   5.670   4.830   9.223
26366WAT      O79339   9.247   0.174   7.368
26366WAT     H179340   9.199   0.223   7.441
26366WAT     H279341   9.276   0.085   7.401
26367WAT      O79342   5.931   1.434   1.562
26367WAT     H179343   5.995   1.367   1.524
26367WAT     H279344   5.859   1.453   1.495
26368WAT      O79345   7.534   8.369   2.944
26368WAT     H179346   7.568   8.287   2.898
26368WAT     H279347   7.465   8.343   3.011
26369WAT      O79348   6.248   2.420   2.903
26369WAT     H179349   6.211   2.506   2.867
26369WAT     H279350   6.283   2.365   2.827
26370WAT      O79351   4.435   6.598   1.345
26370WAT     H179352   4.413   6.501   1.335
26370WAT     H279353   4.446   6.639   1.254
26371WAT      O79354   2.771   2.953   1.093
26371WAT     H179355   2.824   2.907   1.164
26371WAT     H279356   2.714   3.024   1.135
26372WAT      O79357   9.490   9.351   9.710
26372WAT     H179358   9.523   9.403   9.789
26372WAT     H279359   9.438   9.412   9.650
26373WAT      O79360   4.103   7.513   1.023
26373WAT     H179361   4.049   7.569   1.086
26373WAT     H279362   4.084   7.416   1.041
26374WAT      O79363   7.601   7.768   7.260
26374WAT     H179364   7.572   7.717   7.180
26374WAT     H279365   7.521   7.796   7.313
26375WAT      O79366   8.121   9.455   9.127
26375WAT     H179367   8.047   9.446   9.194
26375WAT     H279368   8.194   9.513   9.166
26376WAT      O79369   5.245   0.781   0.730
26376WAT     H179370   5.169   0.795   0.793
26376WAT     H279371   5.231   0.695   0.680
26377WAT      O79372   7.551   5.959   7.693
26377WAT     H179373   7.563   6.014   7.775
26377WAT     H279374   7.457   5.927   7.687
26378WAT      O79375   1.568   1.392   6.344
26378WAT     H179376   1.503   1.460   6.309
26378WAT     H279377   1.527   1.342   6.420
26379WAT      O79378   1.446   6.491   6.398
26379WAT     H179379   1.425   6.581   6.435
26379WAT     H279380   1.361   6.444   6.374
26380WAT      O79381   8.750   5.468   7.512
26380WAT     H179382   8.830   5.417   7.483
26380WAT     H279383   8.745   5.555   7.462
26381WAT      O79384   6.996   4.622   1.711
26381WAT     H179385   7.036   4.704   1.669
26381WAT     H279386   7.011   4.544   1.651
26382WAT      O79387   8.901   3.360   3.644
26382WAT     H179388   8.884   3.435   3.709
26382WAT     H279389   8.966   3.390   3.575
26383WAT      O79390   7.344   5.209   9.734
26383WAT     H179391   7.344   5.211   9.834
26383WAT     H279392   7.433   5.240   9.700
26384WAT      O79393   7.059   1.257   5.283
26384WAT     H179394   7.010   1.344   5.276
26384WAT     H279395   7.078   1.223   5.191
26385WAT      O79396   9.684   0.515   9.751
26385WAT     H179397   9.630   0.431   9.761
26385WAT     H279398   9.781   0.492   9.755
26386WAT      O79399   5.996   6.712   2.890
26386WAT     H179400   5.965   6.617   2.897
26386WAT     H279401   5.918   6.773   2.899
26387WAT      O79402   9.585   5.100   6.061
26387WAT     H179403   9.641   5.046   5.998
26387WAT     H279404   9.488   5.085   6.041
26388WAT      O79405   5.772   3.242   0.434
26388WAT     H179406   5.770   3.334   0.472
26388WAT     H279407   5.857   3.196   0.460
26389WAT      O79408   9.752   7.745   2.149
26389WAT     H179409   9.772   7.647   2.153
26389WAT     H279410   9.657   7.760   2.177
26390WAT      O79411   0.976   6.324   6.417
26390WAT     H179412   0.911   6.248   6.417
26390WAT     H279413   1.013   6.336   6.509
26391WAT      O79414   7.413   6.405   1.680
26391WAT     H179415   7.440   6.317   1.639
26391WAT     H279416   7.372   6.388   1.770
26392WAT      O79417   0.328   9.619   0.126
26392WAT     H179418   0.284   9.562   0.195
26392WAT     H279419   0.414   9.578   0.097
26393WAT      O79420   0.968   3.889   7.289
26393WAT     H179421   0.991   3.913   7.194
26393WAT     H279422   1.044   3.839   7.330
26394WAT      O79423   4.270   6.506   8.465
26394WAT     H179424   4.360   6.537   8.493
26394WAT     H279425   4.278   6.448   8.384
26395WAT      O79426   6.456   7.486   1.009
26395WAT     H179427   6.371   7.537   0.996
26395WAT     H279428   6.459   7.409   0.945
26396WAT      O79429   5.815   3.044   0.788
26396WAT     H179430   5.731   3.095   0.771
26396WAT     H279431   5.831   3.039   0.887
26397WAT      O79432   0.294   5.997   1.720
26397WAT     H179433   0.306   5.913   1.773
26397WAT     H279434   0.264   6.071   1.781
26398WAT      O79435   7.728   8.906   1.857
26398WAT     H179436   7.651   8.911   1.921
26398WAT     H279437   7.773   8.995   1.851
26399WAT      O79438   4.398   7.977   9.181
26399WAT     H179439   4.338   8.056   9.196
26399WAT     H279440   4.357   7.895   9.221
26400WAT      O79441   6.837   2.903   6.929
26400WAT     H179442   6.914   2.939   6.981
26400WAT     H279443   6.776   2.978   6.903
26401WAT      O79444   2.527   4.550   2.473
26401WAT     H179445   2.453   4.583   2.531
26401WAT     H279446   2.494   4.476   2.415
26402WAT      O79447   1.532   7.263   0.108
26402WAT     H179448   1.499   7.173   0.079
26402WAT     H279449   1.628   7.273   0.082
26403WAT      O79450   8.122   2.453   4.969
26403WAT     H179451   8.169   2.541   4.965
26403WAT     H279452   8.023   2.467   4.969
26404WAT      O79453   4.542   1.345   0.367
26404WAT     H179454   4.639   1.362   0.355
26404WAT     H279455   4.499   1.330   0.278
26405WAT      O79456   5.819   9.834   9.837
26405WAT     H179457   5.828   9.755   9.777
26405WAT     H279458   5.735   9.826   9.890
26406WAT      O79459   1.696   7.046   2.944
26406WAT     H179460   1.758   7.016   2.872
26406WAT     H279461   1.602   7.047   2.910
26407WAT      O79462   5.971   8.409   0.286
26407WAT     H179463   6.014   8.375   0.203
26407WAT     H279464   5.923   8.495   0.266
26408WAT      O79465   5.174   7.073   2.395
26408WAT     H179466   5.080   7.108   2.399
26408WAT     H279467   5.237   7.150   2.390
26409WAT      O79468   9.862   2.135   3.113
26409WAT     H179469   9.904   2.221   3.085
26409WAT     H279470   9.934   2.066   3.126
26410WAT      O79471   4.108   0.027   4.747
26410WAT     H179472   4.103  -0.029   4.664
26410WAT     H279473   4.159   0.111   4.727
26411WAT      O79474   0.328   9.703   1.449
26411WAT     H179475   0.272   9.705   1.531
26411WAT     H279476   0.385   9.785   1.445
26412WAT      O79477   1.947   5.978   8.251
26412WAT     H179478   1.879   5.968   8.323
26412WAT     H279479   2.039   5.984   8.292
26413WAT      O79480   4.347   6.767   8.102
26413WAT     H179481   4.306   6.841   8.050
26413WAT     H279482   4.346   6.790   8.200
26414WAT      O79483   1.874   4.035   0.627
26414WAT     H179484   1.849   3.997   0.716
26414WAT     H279485   1.872   3.963   0.558
26415WAT      O79486   5.000   4.101   3.590
26415WAT     H179487   4.965   4.106   3.497
26415WAT     H279488   5.034   4.190   3.619
26416WAT      O79489   1.310   0.951   8.747
26416WAT     H179490   1.322   0.939   8.845
26416WAT     H279491   1.256   1.033   8.730
26417WAT      O79492   3.889   8.287   3.813
26417WAT     H179493   3.807   8.294   3.755
26417WAT     H279494   3.863   8.266   3.906
26418WAT      O79495   3.822   9.097   3.506
26418WAT     H179496   3.782   9.097   3.597
26418WAT     H279497   3.766   9.040   3.445
26419WAT      O79498   0.686   4.777   2.115
26419WAT     H179499   0.699   4.845   2.186
26419WAT     H279500   0.739   4.801   2.034
26420WAT      O79501   8.935   6.765   5.593
26420WAT     H179502   8.975   6.678   5.623
26420WAT     H279503   8.838   6.766   5.616
26421WAT      O79504   4.492   0.253   9.665
26421WAT     H179505   4.447   0.332   9.706
26421WAT     H279506   4.466   0.246   9.569
26422WAT      O79507   9.119   7.115   9.313
26422WAT     H179508   9.047   7.134   9.247
26422WAT     H279509   9.138   7.198   9.366
26423WAT      O79510   2.131   8.067   6.754
26423WAT     H179511   2.136   8.035   6.660
26423WAT     H279512   2.037   8.060   6.787
26424WAT      O79513   8.447   1.418   6.973
26424WAT     H179514   8.370   1.399   7.033
26424WAT     H279515   8.504   1.490   7.012
26425WAT      O79516   0.351   2.821   5.177
26425WAT     H179517   0.383   2.757   5.247
26425WAT     H279518   0.352   2.914   5.214
26426WAT      O79519   2.123   3.457   5.566
26426WAT     H179520   2.060   3.397   5.615
26426WAT     H279521   2.070   3.521   5.509
26427WAT      O79522   6.076   6.175   1.456
26427WAT     H179523   6.176   6.180   1.448
26427WAT     H279524   6.046   6.083   1.431
26428WAT      O79525   5.417   2.183   2.899
26428WAT     H179526   5.513   2.161   2.884
26428WAT     H279527   5.406   2.282   2.904
26429WAT      O79528   6.085   0.988   1.225
26429WAT     H179529   6.051   0.955   1.138
26429WAT     H279530   6.027   1.062   1.259
26430WAT      O79531   3.639   5.540   8.436
26430WAT     H179532   3.593   5.579   8.516
26430WAT     H279533   3.589   5.565   8.353
26431WAT      O79534   0.087   7.945   6.933
26431WAT     H179535  -0.005   7.941   6.893
26431WAT     H279536   0.156   7.929   6.863
26432WAT      O79537   1.913   7.290   1.858
26432WAT     H179538   1.866   7.241   1.931
26432WAT     H279539   2.003   7.320   1.891
26433WAT      O79540   4.061   5.664   0.285
26433WAT     H179541   4.024   5.587   0.337
26433WAT     H279542   4.160   5.651   0.274
26434WAT      O79543   6.400   0.618   5.356
26434WAT     H179544   6.344   0.629   5.274
26434WAT     H279545   6.369   0.681   5.426
26435WAT      O79546   0.948   0.832   7.776
26435WAT     H179547   1.032   0.776   7.777
26435WAT     H279548   0.912   0.837   7.869
26436WAT      O79549   9.360   6.337   3.759
26436WAT     H179550   9.420   6.301   3.831
26436WAT     H279551   9.315   6.260   3.712
26437WAT      O79552   7.970   5.150   6.529
26437WAT     H179553   7.928   5.193   6.449
26437WAT     H279554   7.947   5.053   6.530
26438WAT      O79555   3.748   0.155   5.556
26438WAT     H179556   3.728   0.129   5.651
26438WAT     H279557   3.795   0.080   5.510
26439WAT      O79558   5.280   6.955   0.042
26439WAT     H179559   5.260   6.978   0.137
26439WAT     H279560   5.246   7.028  -0.018
26440WAT      O79561   5.823   2.008   3.828
26440WAT     H179562   5.753   2.079   3.818
26440WAT     H279563   5.779   1.918   3.835
26441WAT      O79564   3.058   2.465   8.372
26441WAT     H179565   3.113   2.548   8.368
26441WAT     H279566   3.042   2.431   8.280
26442WAT      O79567   7.541   8.273   6.511
26442WAT     H179568   7.510   8.365   6.487
26442WAT     H279569   7.481   8.205   6.470
26443WAT      O79570   9.228   0.726   5.571
26443WAT     H179571   9.131   0.724   5.545
26443WAT     H279572   9.265   0.817   5.553
26444WAT      O79573   7.387   0.883   8.729
26444WAT     H179574   7.455   0.833   8.676
26444WAT     H279575   7.388   0.980   8.702
26445WAT      O79576   1.959   7.005   6.533
26445WAT     H179577   2.058   7.020   6.541
26445WAT     H279578   1.943   6.928   6.471
26446WAT      O79579   0.446   5.805   9.326
26446WAT     H179580   0.389   5.866   9.270
26446WAT     H279581   0.393   5.774   9.405
26447WAT      O79582   5.323   4.873   9.038
26447WAT     H179583   5.293   4.841   8.948
26447WAT     H279584   5.309   4.972   9.045
26448WAT      O79585   3.927   5.850   5.025
26448WAT     H179586   3.867   5.770   5.018
26448WAT     H279587   4.018   5.821   5.053
26449WAT      O79588   4.731   8.682   4.855
26449WAT     H179589   4.665   8.615   4.888
26449WAT     H279590   4.780   8.644   4.776
26450WAT      O79591   3.549   8.865   1.957
26450WAT     H179592   3.556   8.956   1.999
26450WAT     H279593   3.633   8.845   1.907
26451WAT      O79594   5.048   6.056   2.675
26451WAT     H179595   5.045   6.029   2.579
26451WAT     H279596   5.141   6.048   2.710
26452WAT      O79597   0.129   0.479   8.332
26452WAT     H179598   0.116   0.533   8.249
26452WAT     H279599   0.119   0.539   8.412
26453WAT      O79600   6.273   8.457   0.237
26453WAT     H179601   6.360   8.437   0.281
26453WAT     H279602   6.199   8.443   0.303
26454WAT      O79603   2.212   5.406   7.936
26454WAT     H179604   2.232   5.495   7.895
26454WAT     H279605   2.292   5.375   7.988
26455WAT      O79606   8.003   8.114   6.094
26455WAT     H179607   8.019   8.016   6.102
26455WAT     H279608   8.082   8.164   6.128
26456WAT      O79609   0.480   3.006   6.028
26456WAT     H179610   0.381   2.993   6.027
26456WAT     H279611   0.525   2.917   6.037
26457WAT      O79612   8.218   9.148   5.633
26457WAT     H179613   8.292   9.161   5.699
26457WAT     H279614   8.169   9.063   5.655
26458WAT      O79615   2.630   6.730   0.095
26458WAT     H179616   2.593   6.823   0.101
26458WAT     H279617   2.725   6.730   0.129
26459WAT      O79618   7.467   1.608   2.076
26459WAT     H179619   7.481   1.548   1.998
26459WAT     H279620   7.555   1.633   2.116
26460WAT      O79621   9.540   4.781   3.747
26460WAT     H179622   9.510   4.706   3.807
26460WAT     H279623   9.558   4.862   3.802
26461WAT      O79624   7.664   0.111   8.592
26461WAT     H179625   7.695   0.035   8.649
26461WAT     H279626   7.702   0.196   8.628
26462WAT      O79627   8.858   4.585   4.773
26462WAT     H179628   8.830   4.550   4.683
26462WAT     H279629   8.950   4.553   4.794
26463WAT      O79630   1.529   0.437   3.825
26463WAT     H179631   1.503   0.367   3.758
26463WAT     H279632   1.488   0.414   3.913
26464WAT      O79633   0.824   6.308   8.881
26464WAT     H179634   0.832   6.338   8.786
26464WAT     H279635   0.838   6.386   8.942
26465WAT      O79636   3.532   0.368   2.006
26465WAT     H179637   3.510   0.433   1.933
26465WAT     H279638   3.517   0.412   2.095
26466WAT      O79639   4.027   9.435   9.163
26466WAT     H179640   4.062   9.417   9.071
26466WAT     H279641   4.088   9.394   9.231
26467WAT      O79642   8.471   7.097   1.243
26467WAT     H179643   8.373   7.085   1.262
26467WAT     H279644   8.508   7.011   1.206
26468WAT      O79645   9.516   4.092   5.676
26468WAT     H179646   9.450   4.084   5.601
26468WAT     H279647   9.493   4.025   5.747
26469WAT      O79648   7.050   6.261   9.041
26469WAT     H179649   7.072   6.193   8.971
26469WAT     H279650   6.984   6.327   9.004
26470WAT      O79651   5.319   2.306   4.771
26470WAT     H179652   5.397   2.243   4.779
26470WAT     H279653   5.286   2.306   4.677
26471WAT      O79654   4.443   3.341   0.806
26471WAT     H179655   4.423   3.439   0.799
26471WAT     H279656   4.452   3.302   0.714
26472WAT      O79657   9.185   5.480   5.856
26472WAT     H179658   9.117   5.540   5.897
26472WAT     H279659   9.140   5.404   5.810
26473WAT      O79660   8.449   2.674   3.195
26473WAT     H179661   8.524   2.627   3.243
26473WAT     H279662   8.386   2.714   3.262
26474WAT      O79663   7.637   3.044   5.946
26474WAT     H179664   7.589   3.070   6.030
26474WAT     H279665   7.674   2.952   5.956
26475WAT      O79666   7.616   7.934   2.344
26475WAT     H179667   7.650   8.005   2.406
26475WAT     H279668   7.688   7.911   2.278
26476WAT      O79669   0.448   8.726   1.908
26476WAT     H179670   0.541   8.722   1.872
26476WAT     H279671   0.420   8.821   1.919
26477WAT      O79672   7.988   8.991   8.580
26477WAT     H179673   8.047   8.993   8.500
26477WAT     H279674   7.982   9.083   8.619
26478WAT      O79675   5.514   0.394   7.955
26478WAT     H179676   5.587   0.327   7.945
26478WAT     H279677   5.508   0.451   7.872
26479WAT      O79678   3.262   1.572   8.730
26479WAT     H179679   3.172   1.586   8.769
26479WAT     H279680   3.273   1.630   8.649
26480WAT      O79681   2.546   8.859   9.488
26480WAT     H179682   2.509   8.874   9.397
26480WAT     H279683   2.526   8.765   9.517
26481WAT      O79684   7.700   3.822   2.664
26481WAT     H179685   7.683   3.725   2.646
26481WAT     H279686   7.619   3.864   2.705
26482WAT      O79687   9.207   1.912   2.338
26482WAT     H179688   9.164   1.830   2.300
26482WAT     H279689   9.294   1.888   2.379
26483WAT      O79690   4.157   8.606   3.141
26483WAT     H179691   4.060   8.599   3.163
26483WAT     H279692   4.173   8.573   3.048
26484WAT      O79693   7.604   3.670   6.131
26484WAT     H179694   7.557   3.674   6.219
26484WAT     H279695   7.671   3.744   6.125
26485WAT      O79696   9.482   9.394   0.371
26485WAT     H179697   9.440   9.481   0.344
26485WAT     H279698   9.539   9.360   0.296
26486WAT      O79699   4.727   2.959   7.514
26486WAT     H179700   4.727   3.050   7.557
26486WAT     H279701   4.633   2.924   7.512
26487WAT      O79702   3.993   6.641   6.980
26487WAT     H179703   3.981   6.622   6.883
26487WAT     H279704   3.957   6.565   7.034
26488WAT      O79705   3.540   6.908   0.149
26488WAT     H179706   3.613   6.975   0.133
26488WAT     H279707   3.578   6.829   0.196
26489WAT      O79708   5.309   4.783   0.168
26489WAT     H179709   5.247   4.860   0.151
26489WAT     H279710   5.358   4.798   0.254
26490WAT      O79711   8.856   8.347   1.254
26490WAT     H179712   8.925   8.333   1.324
26490WAT     H279713   8.900   8.351   1.164
26491WAT      O79714   9.669   4.725   1.540
26491WAT     H179715   9.751   4.676   1.509
26491WAT     H279716   9.632   4.778   1.464
26492WAT      O79717   8.822   6.227   5.878
26492WAT     H179718   8.734   6.195   5.913
26492WAT     H279719   8.896   6.172   5.917
26493WAT      O79720   2.444   3.572   3.980
26493WAT     H179721   2.519   3.596   4.041
26493WAT     H279722   2.402   3.487   4.010
26494WAT      O79723   4.617   2.834   6.363
26494WAT     H179724   4.715   2.819   6.352
26494WAT     H279725   4.567   2.764   6.312
26495WAT      O79726   4.238   1.859   7.824
26495WAT     H179727   4.247   1.899   7.915
26495WAT     H279728   4.318   1.884   7.769
26496WAT      O79729   9.583   4.337   4.462
26496WAT     H179730   9.521   4.261   4.483
26496WAT     H279731   9.677   4.302   4.457
26497WAT      O79732   3.609   4.417   5.610
26497WAT     H179733   3.538   4.348   5.599
26497WAT     H279734   3.699   4.373   5.609
26498WAT      O79735   2.737   0.484   6.433
26498WAT     H179736   2.832   0.496   6.464
26498WAT     H279737   2.712   0.561   6.374
26499WAT      O79738   0.741   3.900   5.202
26499WAT     H179739   0.687   3.951   5.268
26499WAT     H279740   0.689   3.889   5.117
26500WAT      O79741   8.275   9.842   7.813
26500WAT     H179742   8.281   9.764   7.751
26500WAT     H279743   8.307   9.814   7.904
26501WAT      O79744   8.380   3.826   2.540
26501WAT     H179745   8.369   3.727   2.544
26501WAT     H279746   8.435   3.850   2.460
26502WAT      O79747   4.031   6.606   8.407
26502WAT     H179748   4.123   6.581   8.436
26502WAT     H279749   4.015   6.570   8.315
26503WAT      O79750   3.389   5.963   0.359
26503WAT     H179751   3.329   6.009   0.424
26503WAT     H279752   3.334   5.919   0.287
26504WAT      O79753   5.651   6.955   4.386
26504WAT     H179754   5.687   6.862   4.380
26504WAT     H279755   5.569   6.955   4.444
26505WAT      O79756   4.100   8.835   5.075
26505WAT     H179757   4.041   8.792   5.143
26505WAT     H279758   4.102   8.779   4.992
26506WAT      O79759   3.839   5.785   0.573
26506WAT     H179760   3.798   5.745   0.491
26506WAT     H279761   3.928   5.826   0.549
26507WAT      O79762   2.548   2.978   5.026
26507WAT     H179763   2.642   2.992   4.996
26507WAT     H279764   2.490   2.955   4.947
26508WAT      O79765   9.349   4.896   1.160
26508WAT     H179766   9.261   4.862   1.194
26508WAT     H279767   9.377   4.842   1.081
26509WAT      O79768   5.155   0.603   5.877
26509WAT     H179769   5.081   0.664   5.906
26509WAT     H279770   5.131   0.561   5.790
26510WAT      O79771   7.895   0.214   7.843
26510WAT     H179772   7.975   0.196   7.786
26510WAT     H279773   7.877   0.313   7.845
26511WAT      O79774   2.830   7.841   6.517
26511WAT     H179775   2.806   7.756   6.472
26511WAT     H279776   2.792   7.842   6.609
26512WAT      O79777   7.594   3.595   7.952
26512WAT     H179778   7.662   3.640   8.010
26512WAT     H279779   7.505   3.636   7.966
26513WAT      O79780   2.413   2.519   1.467
26513WAT     H179781   2.370   2.507   1.557
26513WAT     H279782   2.434   2.616   1.453
26514WAT      O79783   4.074   4.015   0.189
26514WAT     H179784   3.986   4.057   0.209
26514WAT     H279785   4.075   3.984   0.094
26515WAT      O79786   0.803   4.070   4.268
26515WAT     H179787   0.791   4.169   4.259
26515WAT     H279788   0.753   4.038   4.349
26516WAT      O79789   7.068   4.361   0.470
26516WAT     H179790   7.145   4.324   0.418
26516WAT     H279791   7.061   4.460   0.454
26517WAT      O79792   9.547   8.107   9.467
26517WAT     H179793   9.640   8.071   9.459
26517WAT     H279794   9.508   8.120   9.375
26518WAT      O79795   1.391   5.558   9.318
26518WAT     H179796   1.480   5.602   9.305
26518WAT     H279797   1.356   5.580   9.409
26519WAT      O79798   1.198   5.827   8.236
26519WAT     H179799   1.200   5.926   8.250
26519WAT     H279800   1.106   5.792   8.253
26520WAT      O79801   5.821   8.052   7.136
26520WAT     H179802   5.885   7.980   7.162
26520WAT     H279803   5.845   8.088   7.046
26521WAT      O79804   1.409   5.216   6.793
26521WAT     H179805   1.422   5.289   6.860
26521WAT     H279806   1.384   5.131   6.841
26522WAT      O79807   9.737   8.472   8.235
26522WAT     H179808   9.767   8.414   8.158
26522WAT     H279809   9.696   8.414   8.306
26523WAT      O79810   8.529   9.200   3.828
26523WAT     H179811   8.472   9.274   3.793
26523WAT     H279812   8.562   9.222   3.919
26524WAT      O79813   3.442   5.358   1.720
26524WAT     H179814   3.410   5.403   1.803
26524WAT     H279815   3.533   5.392   1.697
26525WAT      O79816   4.459   9.320   9.715
26525WAT     H179817   4.436   9.408   9.756
26525WAT     H279818   4.558   9.310   9.712
26526WAT      O79819   9.130   0.812   2.725
26526WAT     H179820   9.147   0.718   2.697
26526WAT     H279821   9.084   0.861   2.650
26527WAT      O79822   8.469   0.770   1.881
26527WAT     H179823   8.492   0.840   1.948
26527WAT     H279824   8.418   0.811   1.805
26528WAT      O79825   9.552   5.969   7.401
26528WAT     H179826   9.646   6.002   7.413
26528WAT     H279827   9.546   5.916   7.316
26529WAT      O79828   2.459   0.249   9.699
26529WAT     H179829   2.370   0.204   9.693
26529WAT     H279830   2.531   0.186   9.668
26530WAT      O79831   4.186   2.681   9.028
26530WAT     H179832   4.247   2.621   9.078
26530WAT     H279833   4.237   2.729   8.956
26531WAT      O79834   9.269   1.938   9.597
26531WAT     H179835   9.224   1.937   9.508
26531WAT     H279836   9.209   1.983   9.663
26532WAT      O79837   6.668   8.425   0.714
26532WAT     H179838   6.637   8.425   0.809
26532WAT     H279839   6.685   8.331   0.684
26533WAT      O79840   3.372   6.449   1.842
26533WAT     H179841   3.319   6.478   1.762
26533WAT     H279842   3.462   6.493   1.839
26534WAT      O79843   7.841   3.035   0.625
26534WAT     H179844   7.938   3.049   0.604
26534WAT     H279845   7.828   3.026   0.724
26535WAT      O79846   5.866   4.488   6.275
26535WAT     H179847   5.838   4.540   6.194
26535WAT     H279848   5.817   4.401   6.277
26536WAT      O79849   4.926   0.088   0.972
26536WAT     H179850   4.854   0.116   1.035
26536WAT     H279851   5.010   0.069   1.023
26537WAT      O79852   4.475   3.174   7.678
26537WAT     H179853   4.468   3.180   7.578
26537WAT     H279854   4.571   3.181   7.705
26538WAT      O79855   7.500   0.864   1.258
26538WAT     H179856   7.521   0.929   1.330
26538WAT     H279857   7.406   0.832   1.268
26539WAT      O79858   0.758   3.758   7.360
26539WAT     H179859   0.733   3.792   7.451
26539WAT     H279860   0.824   3.820   7.318
26540WAT      O79861   7.411   9.016   7.081
26540WAT     H179862   7.410   9.007   6.981
26540WAT     H279863   7.479   9.084   7.108
26541WAT      O79864   0.809   6.614   1.443
26541WAT     H179865   0.758   6.697   1.468
26541WAT     H279866   0.760   6.565   1.371
26542WAT      O79867   8.772   8.827   3.928
26542WAT     H179868   8.835   8.892   3.971
26542WAT     H279869   8.687   8.875   3.902
26543WAT      O79870   6.447   9.341   7.717
26543WAT     H179871   6.429   9.314   7.622
26543WAT     H279872   6.533   9.392   7.721
26544WAT      O79873   4.773   6.024   0.793
26544WAT     H179874   4.724   6.026   0.705
26544WAT     H279875   4.854   6.082   0.787
26545WAT      O79876   9.138   2.583   6.825
26545WAT     H179877   9.045   2.585   6.862
26545WAT     H279878   9.136   2.553   6.730
26546WAT      O79879   7.955   5.177   8.652
26546WAT     H179880   7.942   5.110   8.724
26546WAT     H279881   7.908   5.147   8.569
26547WAT      O79882   7.696   1.401   7.870
26547WAT     H179883   7.776   1.418   7.811
26547WAT     H279884   7.724   1.407   7.966
26548WAT      O79885   6.797   3.845   4.477
26548WAT     H179886   6.892   3.852   4.447
26548WAT     H279887   6.777   3.918   4.543
26549WAT      O79888   6.124   2.546   9.258
26549WAT     H179889   6.034   2.576   9.291
26549WAT     H279890   6.115   2.506   9.167
26550WAT      O79891   9.875   5.437   9.537
26550WAT     H179892   9.952   5.389   9.577
26550WAT     H279893   9.909   5.508   9.475
26551WAT      O79894   8.139   6.070   4.488
26551WAT     H179895   8.183   5.981   4.500
26551WAT     H279896   8.164   6.107   4.399
26552WAT      O79897   6.994   9.621   3.610
26552WAT     H179898   6.937   9.578   3.680
26552WAT     H279899   6.961   9.596   3.519
26553WAT      O79900   4.601   7.644   6.335
26553WAT     H179901   4.586   7.577   6.263
26553WAT     H279902   4.699   7.653   6.353
26554WAT      O79903   0.787   5.592   3.301
26554WAT     H179904   0.769   5.688   3.322
26554WAT     H279905   0.846   5.587   3.220
26555WAT      O79906   8.234   4.915   0.845
26555WAT     H179907   8.187   4.936   0.930
26555WAT     H279908   8.235   4.816   0.831
26556WAT      O79909   1.876   7.291   8.204
26556WAT     H179910   1.878   7.321   8.300
26556WAT     H279911   1.803   7.338   8.156
26557WAT      O79912   1.677   4.511   3.088
26557WAT     H179913   1.600   4.448   3.082
26557WAT     H279914   1.763   4.460   3.078
26558WAT      O79915   7.884   4.710   6.816
26558WAT     H179916   7.966   4.730   6.870
26558WAT     H279917   7.820   4.657   6.871
26559WAT      O79918   3.482   5.012   6.221
26559WAT     H179919   3.528   4.959   6.150
26559WAT     H279920   3.499   5.109   6.206
26560WAT      O79921   8.418   5.255   5.690
26560WAT     H179922   8.474   5.172   5.687
26560WAT     H279923   8.349   5.252   5.619
26561WAT      O79924   1.811   9.841   5.775
26561WAT     H179925   1.895   9.862   5.726
26561WAT     H279926   1.785   9.746   5.758
26562WAT      O79927   7.217   3.236   3.229
26562WAT     H179928   7.268   3.152   3.206
26562WAT     H279929   7.129   3.211   3.269
26563WAT      O79930   4.665   2.898   9.510
26563WAT     H179931   4.705   2.941   9.590
26563WAT     H279932   4.675   2.799   9.516
26564WAT      O79933   2.971   2.265   4.159
26564WAT     H179934   3.068   2.286   4.149
26564WAT     H279935   2.944   2.276   4.255
26565WAT      O79936   4.961   4.705   9.368
26565WAT     H179937   4.866   4.726   9.390
26565WAT     H279938   5.020   4.735   9.444
26566WAT      O79939   0.752   8.190   4.441
26566WAT     H179940   0.769   8.225   4.533
26566WAT     H279941   0.828   8.131   4.413
26567WAT      O79942   0.396   6.370   2.064
26567WAT     H179943   0.460   6.326   2.127
26567WAT     H279944   0.423   6.466   2.052
26568WAT      O79945   3.185   0.599   5.314
26568WAT     H179946   3.121   0.540   5.264
26568WAT     H279947   3.163   0.596   5.412
26569WAT      O79948   8.830   8.230   5.111
26569WAT     H179949   8.812   8.173   5.191
26569WAT     H279950   8.928   8.228   5.091
26570WAT      O79951   4.219   7.872   0.528
26570WAT     H179952   4.236   7.854   0.625
26570WAT     H279953   4.288   7.825   0.473
26571WAT      O79954   1.509   1.276   7.166
26571WAT     H179955   1.569   1.277   7.246
26571WAT     H279956   1.558   1.309   7.086
26572WAT      O79957   3.018   1.610   6.615
26572WAT     H179958   2.937   1.655   6.579
26572WAT     H279959   3.058   1.552   6.544
26573WAT      O79960   0.077   3.510   8.112
26573WAT     H179961   0.010   3.445   8.148
26573WAT     H279962   0.162   3.461   8.090
26574WAT      O79963   5.780   8.239   3.598
26574WAT     H179964   5.753   8.182   3.520
26574WAT     H279965   5.866   8.205   3.635
26575WAT      O79966   5.065   4.671   7.718
26575WAT     H179967   5.052   4.601   7.648
26575WAT     H279968   5.105   4.629   7.800
26576WAT      O79969   7.276   1.965   9.010
26576WAT     H179970   7.295   2.054   8.969
26576WAT     H279971   7.204   1.919   8.958
26577WAT      O79972   0.702   1.145   7.087
26577WAT     H179973   0.634   1.113   7.153
26577WAT     H279974   0.786   1.169   7.135
26578WAT      O79975   0.882   5.646   4.651
26578WAT     H179976   0.827   5.593   4.586
26578WAT     H279977   0.940   5.583   4.703
26579WAT      O79978   3.086   3.199   9.862
26579WAT     H179979   3.045   3.116   9.900
26579WAT     H279980   3.032   3.279   9.891
26580WAT      O79981   0.215   8.323   6.080
26580WAT     H179982   0.304   8.301   6.120
26580WAT     H279983   0.149   8.253   6.106
26581WAT      O79984   4.218   4.286   1.512
26581WAT     H179985   4.118   4.288   1.504
26581WAT     H279986   4.258   4.326   1.429
26582WAT      O79987   3.863   3.057   7.279
26582WAT     H179988   3.955   3.080   7.247
26582WAT     H279989   3.808   3.026   7.201
26583WAT      O79990   6.612   3.430   5.570
26583WAT     H179991   6.619   3.525   5.541
26583WAT     H279992   6.703   3.390   5.577
26584WAT      O79993   6.050   4.792   5.643
26584WAT     H179994   6.022   4.797   5.739
26584WAT     H279995   6.143   4.825   5.633
26585WAT      O79996   8.271   6.859   0.490
26585WAT     H179997   8.344   6.795   0.514
26585WAT     H279998   8.304   6.926   0.424
26586WAT      O79999   3.857   4.851   2.840
26586WAT     H180000   3.898   4.941   2.850
26586WAT     H280001   3.833   4.836   2.745
26587WAT      O80002   5.783   4.780   1.018
26587WAT     H180003   5.759   4.849   0.950
26587WAT     H280004   5.800   4.693   0.973
26588WAT      O80005   4.758   2.682   7.995
26588WAT     H180006   4.709   2.736   7.926
26588WAT     H280007   4.768   2.737   8.078
26589WAT      O80008   7.255   0.733   1.217
26589WAT     H180009   7.268   0.704   1.122
26589WAT     H280010   7.255   0.653   1.277
26590WAT      O80011   6.363   7.436   7.139
26590WAT     H180012   6.416   7.520   7.154
26590WAT     H280013   6.279   7.458   7.090
26591WAT      O80014   3.280   9.095   0.751
26591WAT     H180015   3.312   9.092   0.846
26591WAT     H280016   3.211   9.024   0.737
26592WAT      O80017   3.261   7.320   9.731
26592WAT     H180018   3.277   7.286   9.639
26592WAT     H280019   3.275   7.245   9.797
26593WAT      O80020   5.253   4.026   8.115
26593WAT     H180021   5.281   3.931   8.135
26593WAT     H280022   5.245   4.038   8.016
26594WAT      O80023   9.457   3.521   2.296
26594WAT     H180024   9.488   3.532   2.390
26594WAT     H280025   9.397   3.597   2.271
26595WAT      O80026   3.528   6.589   0.021
26595WAT     H180027   3.570   6.614   0.109
26595WAT     H280028   3.585   6.521  -0.024
26596WAT      O80029   4.505   6.279   7.273
26596WAT     H180030   4.500   6.186   7.236
26596WAT     H280031   4.593   6.320   7.248
26597WAT      O80032   3.012   0.914   3.019
26597WAT     H180033   3.082   0.940   3.084
26597WAT     H280034   2.982   0.994   2.967
26598WAT      O80035   0.351   4.409   6.553
26598WAT     H180036   0.275   4.470   6.576
26598WAT     H280037   0.324   4.314   6.569
26599WAT      O80038   4.771   4.481   9.736
26599WAT     H180039   4.716   4.475   9.653
26599WAT     H280040   4.742   4.411   9.801
26600WAT      O80041   5.615   8.978   2.503
26600WAT     H180042   5.590   9.058   2.558
26600WAT     H280043   5.701   8.940   2.537
26601WAT      O80044   9.725   6.636   5.612
26601WAT     H180045   9.754   6.726   5.581
26601WAT     H280046   9.745   6.568   5.541
26602WAT      O80047   6.236   1.520   6.101
26602WAT     H180048   6.284   1.434   6.116
26602WAT     H280049   6.157   1.505   6.042
26603WAT      O80050   8.726   6.414   3.323
26603WAT     H180051   8.628   6.425   3.337
26603WAT     H280052   8.775   6.461   3.396
26604WAT      O80053   2.929   7.711   6.984
26604WAT     H180054   2.891   7.618   6.990
26604WAT     H280055   3.029   7.706   6.986
26605WAT      O80056   7.223   2.793   8.276
26605WAT     H180057   7.183   2.852   8.347
26605WAT     H280058   7.306   2.835   8.241
26606WAT      O80059   1.101   9.480   8.488
26606WAT     H180060   1.015   9.529   8.500
26606WAT     H280061   1.156   9.526   8.417
26607WAT      O80062   9.412   2.837   6.610
26607WAT     H180063   9.369   2.913   6.658
26607WAT     H280064   9.399   2.753   6.663
26608WAT      O80065   2.922   5.074   9.607
26608WAT     H180066   2.841   5.056   9.550
26608WAT     H280067   2.912   5.163   9.652
26609WAT      O80068   3.543   4.613   4.388
26609WAT     H180069   3.468   4.552   4.416
26609WAT     H280070   3.505   4.702   4.364
26610WAT      O80071   5.211   0.323   6.314
26610WAT     H180072   5.244   0.357   6.226
26610WAT     H280073   5.288   0.294   6.370
26611WAT      O80074   4.036   9.680   2.823
26611WAT     H180075   3.939   9.662   2.803
26611WAT     H280076   4.078   9.598   2.861
26612WAT      O80077   3.519   5.285   2.467
26612WAT     H180078   3.439   5.274   2.407
26612WAT     H280079   3.513   5.373   2.513
26613WAT      O80080   1.292   2.424   7.727
26613WAT     H180081   1.349   2.358   7.776
26613WAT     H280082   1.287   2.509   7.779
26614WAT      O80083   4.238   8.680   3.888
26614WAT     H180084   4.306   8.717   3.825
26614WAT     H280085   4.188   8.607   3.843
26615WAT      O80086   1.435   5.645   8.938
26615WAT     H180087   1.502   5.687   8.999
26615WAT     H280088   1.466   5.553   8.913
26616WAT      O80089   7.286   5.070   2.422
26616WAT     H180090   7.284   4.996   2.355
26616WAT     H280091   7.350   5.141   2.391
26617WAT      O80092   5.451   0.219   7.660
26617WAT     H180093   5.444   0.174   7.748
26617WAT     H280094   5.453   0.318   7.673
26618WAT      O80095   9.142   3.323   6.040
26618WAT     H180096   9.164   3.324   5.943
26618WAT     H280097   9.080   3.399   6.062
26619WAT      O80098   3.215   2.154   3.330
26619WAT     H180099   3.197   2.071   3.279
26619WAT     H280100   3.308   2.186   3.310
26620WAT      O80101   5.438   7.207   7.513
26620WAT     H180102   5.474   7.186   7.422
26620WAT     H280103   5.338   7.209   7.510
26621WAT      O80104   8.870   6.813   8.561
26621WAT     H180105   8.966   6.791   8.580
26621WAT     H280106   8.814   6.732   8.578
26622WAT      O80107   7.003   7.252   0.046
26622WAT     H180108   6.919   7.300   0.070
26622WAT     H280109   7.019   7.260  -0.052
26623WAT      O80110   3.668   5.063   2.980
26623WAT     H180111   3.662   4.965   2.999
26623WAT     H280112   3.753   5.083   2.933
26624WAT      O80113   7.645   1.333   9.140
26624WAT     H180114   7.739   1.364   9.158
26624WAT     H280115   7.584   1.411   9.140
26625WAT      O80116   8.656   3.178   4.775
26625WAT     H180117   8.592   3.198   4.849
26625WAT     H280118   8.709   3.260   4.753
26626WAT      O80119   9.153   8.427   5.675
26626WAT     H180120   9.096   8.411   5.594
26626WAT     H280121   9.108   8.493   5.735
26627WAT      O80122   5.398   2.948   6.701
26627WAT     H180123   5.370   2.859   6.665
26627WAT     H280124   5.325   2.985   6.760
26628WAT      O80125   9.476   6.782   3.613
26628WAT     H180126   9.547   6.750   3.676
26628WAT     H280127   9.393   6.804   3.665
26629WAT      O80128   0.647   1.484   6.387
26629WAT     H180129   0.551   1.495   6.361
26629WAT     H280130   0.659   1.397   6.435
26630WAT      O80131   4.862   0.144   3.704
26630WAT     H180132   4.934   0.082   3.732
26630WAT     H280133   4.801   0.098   3.640
26631WAT      O80134   4.271   8.046   6.085
26631WAT     H180135   4.297   8.125   6.028
26631WAT     H280136   4.269   7.964   6.028
26632WAT      O80137   2.312   9.635   4.823
26632WAT     H180138   2.299   9.589   4.911
26632WAT     H280139   2.248   9.597   4.756
26633WAT      O80140   3.130   3.783   0.173
26633WAT     H180141   3.133   3.802   0.271
26633WAT     H280142   3.035   3.771   0.145
26634WAT      O80143   1.536   6.784   6.890
26634WAT     H180144   1.501   6.875   6.869
26634WAT     H280145   1.603   6.756   6.821
26635WAT      O80146   2.224   8.808   5.866
26635WAT     H180147   2.194   8.860   5.946
26635WAT     H280148   2.158   8.820   5.791
26636WAT      O80149   3.149   5.101   7.681
26636WAT     H180150   3.132   5.112   7.779
26636WAT     H280151   3.064   5.079   7.634
26637WAT      O80152   7.204   0.971   0.119
26637WAT     H180153   7.105   0.985   0.126
26637WAT     H280154   7.240   1.021   0.040
26638WAT      O80155   3.813   4.230   1.854
26638WAT     H180156   3.738   4.274   1.905
26638WAT     H280157   3.897   4.237   1.906
26639WAT      O80158   7.198   9.667   0.323
26639WAT     H180159   7.181   9.726   0.244
26639WAT     H280160   7.113   9.619   0.347
26640WAT      O80161   0.201   1.556   6.119
26640WAT     H180162   0.133   1.626   6.141
26640WAT     H280163   0.250   1.581   6.036
26641WAT      O80164   9.735   3.725   1.836
26641WAT     H180165   9.806   3.795   1.835
26641WAT     H280166   9.645   3.768   1.836
26642WAT      O80167   5.277   6.205   4.078
26642WAT     H180168   5.243   6.145   4.151
26642WAT     H280169   5.250   6.168   3.989
26643WAT      O80170   4.697   4.829   8.476
26643WAT     H180171   4.670   4.784   8.562
26643WAT     H280172   4.725   4.923   8.496
26644WAT      O80173   5.449   8.800   3.289
26644WAT     H180174   5.364   8.813   3.340
26644WAT     H280175   5.431   8.749   3.205
26645WAT      O80176   0.239   3.153   9.110
26645WAT     H180177   0.161   3.212   9.089
26645WAT     H280178   0.298   3.199   9.176
26646WAT      O80179   9.703   0.020   6.710
26646WAT     H180180   9.780   0.009   6.647
26646WAT     H280181   9.624   0.057   6.660
26647WAT      O80182   3.757   4.138   1.382
26647WAT     H180183   3.812   4.089   1.315
26647WAT     H280184   3.694   4.200   1.335
26648WAT      O80185   9.401   0.251   4.567
26648WAT     H180186   9.322   0.200   4.534
26648WAT     H280187   9.475   0.245   4.500
26649WAT      O80188   0.416   1.088   5.039
26649WAT     H180189   0.382   1.178   5.068
26649WAT     H280190   0.409   1.081   4.939
26650WAT      O80191   9.196   6.664   9.846
26650WAT     H180192   9.208   6.752   9.892
26650WAT     H280193   9.114   6.619   9.883
26651WAT      O80194   3.431   7.532   6.611
26651WAT     H180195   3.524   7.504   6.637
26651WAT     H280196   3.417   7.513   6.514
26652WAT      O80197   2.189   9.255   0.827
26652WAT     H180198   2.098   9.296   0.835
26652WAT     H280199   2.192   9.170   0.880
26653WAT      O80200   1.586   7.683   2.474
26653WAT     H180201   1.664   7.734   2.438
26653WAT     H280202   1.551   7.621   2.403
26654WAT      O80203   7.373   1.636   6.152
26654WAT     H180204   7.419   1.679   6.229
26654WAT     H280205   7.436   1.631   6.074
26655WAT      O80206   9.796   2.726   6.367
26655WAT     H180207   9.737   2.754   6.442
26655WAT     H280208   9.809   2.627   6.370
26656WAT      O80209   5.909   9.707   3.129
26656WAT     H180210   5.964   9.675   3.052
26656WAT     H280211   5.822   9.660   3.130
26657WAT      O80212   4.448   0.298   6.421
26657WAT     H180213   4.362   0.344   6.439
26657WAT     H280214   4.456   0.217   6.481
26658WAT      O80215   0.600   6.559   7.668
26658WAT     H180216   0.581   6.524   7.759
26658WAT     H280217   0.554   6.647   7.655
26659WAT      O80218   1.942   1.559   9.605
26659WAT     H180219   2.022   1.616   9.586
26659WAT     H280220   1.954   1.469   9.563
26660WAT      O80221   6.093   1.491   7.035
26660WAT     H180222   6.121   1.513   6.942
26660WAT     H280223   5.993   1.501   7.043
26661WAT      O80224   0.264   5.452   6.230
26661WAT     H180225   0.352   5.411   6.206
26661WAT     H280226   0.202   5.380   6.261
26662WAT      O80227   0.261   5.373   7.694
26662WAT     H180228   0.220   5.395   7.606
26662WAT     H280229   0.274   5.274   7.701
26663WAT      O80230   4.396   3.379   9.264
26663WAT     H180231   4.376   3.299   9.207
26663WAT     H280232   4.312   3.430   9.282
26664WAT      O80233   4.011   7.567   2.878
26664WAT     H180234   4.054   7.520   2.800
26664WAT     H280235   3.912   7.561   2.869
26665WAT      O80236   6.567   6.186   4.005
26665WAT     H180237   6.481   6.191   3.955
26665WAT     H280238   6.556   6.229   4.094
26666WAT      O80239   9.328   6.003   9.669
26666WAT     H180240   9.231   6.008   9.644
26666WAT     H280241   9.384   6.035   9.592
26667WAT      O80242   8.545   6.205   4.290
26667WAT     H180243   8.582   6.220   4.198
26667WAT     H280244   8.489   6.122   4.291
26668WAT      O80245   5.201   8.877   3.402
26668WAT     H180246   5.186   8.974   3.382
26668WAT     H280247   5.115   8.835   3.429
26669WAT      O80248   7.881   8.453   1.769
26669WAT     H180249   7.950   8.523   1.786
26669WAT     H280250   7.922   8.375   1.723
26670WAT      O80251   2.068   9.570   1.860
26670WAT     H180252   2.029   9.591   1.770
26670WAT     H280253   2.117   9.483   1.856
26671WAT      O80254   6.595   6.986   7.562
26671WAT     H180255   6.675   6.928   7.577
26671WAT     H280256   6.526   6.933   7.512
26672WAT      O80257   4.259   4.751   2.997
26672WAT     H180258   4.184   4.777   3.058
26672WAT     H280259   4.244   4.789   2.906
26673WAT      O80260   6.846   6.091   4.468
26673WAT     H180261   6.812   6.184   4.475
26673WAT     H280262   6.890   6.078   4.379
26674WAT      O80263   8.527   7.561   5.446
26674WAT     H180264   8.430   7.586   5.451
26674WAT     H280265   8.548   7.494   5.517
26675WAT      O80266   4.223   6.859   6.048
26675WAT     H180267   4.127   6.878   6.027
26675WAT     H280268   4.242   6.762   6.035
26676WAT      O80269   3.995   2.389   8.330
26676WAT     H180270   4.059   2.384   8.253
26676WAT     H280271   3.970   2.297   8.359
26677WAT      O80272   1.467   4.639   4.610
26677WAT     H180273   1.430   4.731   4.601
26677WAT     H280274   1.565   4.639   4.590
26678WAT      O80275   8.925   8.036   3.205
26678WAT     H180276   8.941   8.133   3.189
26678WAT     H280277   8.957   8.012   3.297
26679WAT      O80278   1.642   6.112   5.299
26679WAT     H180279   1.636   6.079   5.393
26679WAT     H280280   1.633   6.211   5.298
26680WAT      O80281   1.718   1.601   6.114
26680WAT     H180282   1.632   1.623   6.159
26680WAT     H280283   1.726   1.502   6.102
26681WAT      O80284   9.698   6.300   8.341
26681WAT     H180285   9.738   6.233   8.278
26681WAT     H280286   9.599   6.295   8.337
26682WAT      O80287   8.614   0.278   1.008
26682WAT     H180288   8.575   0.320   1.090
26682WAT     H280289   8.702   0.236   1.031
26683WAT      O80290   0.310   5.676   6.613
26683WAT     H180291   0.298   5.729   6.697
26683WAT     H280292   0.331   5.581   6.637
26684WAT      O80293   9.614   3.090   4.254
26684WAT     H180294   9.606   3.049   4.163
26684WAT     H280295   9.536   3.062   4.310
26685WAT      O80296   8.499   9.277   0.260
26685WAT     H180297   8.455   9.340   0.197
26685WAT     H280298   8.540   9.329   0.336
26686WAT      O80299   4.311   4.792   9.351
26686WAT     H180300   4.345   4.699   9.363
26686WAT     H280301   4.217   4.790   9.319
26687WAT      O80302   8.308   9.616   7.114
26687WAT     H180303   8.236   9.608   7.182
26687WAT     H280304   8.358   9.530   7.107
26688WAT      O80305   7.932   0.424   7.001
26688WAT     H180306   8.004   0.365   6.966
26688WAT     H280307   7.847   0.406   6.952
26689WAT      O80308   9.301   3.893   8.376
26689WAT     H180309   9.232   3.961   8.352
26689WAT     H280310   9.304   3.823   8.305
26690WAT      O80311   5.755   0.385   9.195
26690WAT     H180312   5.848   0.412   9.168
26690WAT     H280313   5.749   0.381   9.295
26691WAT      O80314   0.710   5.004   8.341
26691WAT     H180315   0.749   4.958   8.261
26691WAT     H280316   0.784   5.032   8.403
26692WAT      O80317   0.327   7.378   2.498
26692WAT     H180318   0.344   7.476   2.489
26692WAT     H280319   0.379   7.342   2.576
26693WAT      O80320   6.572   7.342   8.769
26693WAT     H180321   6.656   7.321   8.821
26693WAT     H280322   6.551   7.266   8.708
26694WAT      O80323   7.085   5.720   5.294
26694WAT     H180324   7.098   5.816   5.317
26694WAT     H280325   7.054   5.712   5.199
26695WAT      O80326   2.567   8.351   2.713
26695WAT     H180327   2.633   8.364   2.640
26695WAT     H280328   2.480   8.319   2.675
26696WAT      O80329   7.923   5.429   8.728
26696WAT     H180330   7.946   5.332   8.720
26696WAT     H280331   7.837   5.439   8.778
26697WAT      O80332   7.522   7.078   4.948
26697WAT     H180333   7.528   7.153   5.014
26697WAT     H280334   7.615   7.049   4.923
26698WAT      O80335   2.793   1.129   8.067
26698WAT     H180336   2.769   1.032   8.079
26698WAT     H280337   2.720   1.175   8.016
26699WAT      O80338   8.127   5.478   5.756
26699WAT     H180339   8.154   5.562   5.802
26699WAT     H280340   8.168   5.474   5.665
26700WAT      O80341   3.394   3.973   0.999
26700WAT     H180342   3.474   3.974   1.059
26700WAT     H280343   3.318   4.019   1.045
26701WAT      O80344   9.200   2.819   5.109
26701WAT     H180345   9.190   2.879   5.029
26701WAT     H280346   9.296   2.815   5.136
26702WAT      O80347   2.239   5.494   0.728
26702WAT     H180348   2.158   5.529   0.774
26702WAT     H280349   2.318   5.500   0.789
26703WAT      O80350   7.667   1.538   8.421
26703WAT     H180351   7.694   1.478   8.497
26703WAT     H280352   7.662   1.633   8.453
26704WAT      O80353   8.511   4.171   0.408
26704WAT     H180354   8.499   4.076   0.437
26704WAT     H280355   8.593   4.178   0.351
26705WAT      O80356   1.300   8.615   9.480
26705WAT     H180357   1.376   8.590   9.418
26705WAT     H280358   1.249   8.532   9.504
26706WAT      O80359   8.142   1.154   1.661
26706WAT     H180360   8.200   1.134   1.582
26706WAT     H280361   8.198   1.194   1.734
26707WAT      O80362   1.250   3.857   8.155
26707WAT     H180363   1.305   3.895   8.230
26707WAT     H280364   1.166   3.818   8.192
26708WAT      O80365   7.771   6.245   7.026
26708WAT     H180366   7.843   6.287   7.082
26708WAT     H280367   7.776   6.145   7.035
26709WAT      O80368   1.056   0.964   2.849
26709WAT     H180369   1.143   1.001   2.815
26709WAT     H280370   1.072   0.873   2.888
26710WAT      O80371   8.953   7.846   9.431
26710WAT     H180372   8.994   7.772   9.485
26710WAT     H280373   9.025   7.908   9.400
26711WAT      O80374   7.152   0.276   7.660
26711WAT     H180375   7.066   0.256   7.614
26711WAT     H280376   7.133   0.314   7.750
26712WAT      O80377   9.863   5.874   1.323
26712WAT     H180378   9.926   5.858   1.247
26712WAT     H280379   9.835   5.970   1.324
26713WAT      O80380   3.610   7.105   1.774
26713WAT     H180381   3.591   7.084   1.870
26713WAT     H280382   3.549   7.178   1.743
26714WAT      O80383   3.228   7.007   4.329
26714WAT     H180384   3.202   6.946   4.254
26714WAT     H280385   3.213   6.961   4.416
26715WAT      O80386   6.353   7.315   7.971
26715WAT     H180387   6.432   7.288   7.916
26715WAT     H280388   6.284   7.358   7.912
26716WAT      O80389   8.842   9.349   2.221
26716WAT     H180390   8.811   9.261   2.184
26716WAT     H280391   8.897   9.333   2.303
26717WAT      O80392   2.375   1.336   4.127
26717WAT     H180393   2.445   1.264   4.122
26717WAT     H280394   2.375   1.376   4.218
26718WAT      O80395   7.483   2.039   5.657
26718WAT     H180396   7.580   2.060   5.642
26718WAT     H280397   7.474   1.972   5.731
26719WAT      O80398   1.348   9.474   7.390
26719WAT     H180399   1.279   9.468   7.318
26719WAT     H280400   1.308   9.517   7.471
26720WAT      O80401   9.032   2.236   3.315
26720WAT     H180402   9.105   2.199   3.257
26720WAT     H280403   9.002   2.325   3.279
26721WAT      O80404   9.808   2.731   1.714
26721WAT     H180405   9.840   2.735   1.620
26721WAT     H280406   9.879   2.765   1.775
26722WAT      O80407   4.138   8.532   6.654
26722WAT     H180408   4.165   8.581   6.736
26722WAT     H280409   4.209   8.468   6.627
26723WAT      O80410   8.389   3.552   8.404
26723WAT     H180411   8.472   3.506   8.438
26723WAT     H280412   8.316   3.545   8.472
26724WAT      O80413   2.983   4.287   3.025
26724WAT     H180414   3.020   4.360   2.969
26724WAT     H280415   3.053   4.217   3.039
26725WAT      O80416   5.851   5.585   4.179
26725WAT     H180417   5.759   5.591   4.140
26725WAT     H280418   5.890   5.677   4.187
26726WAT      O80419   2.100   9.816   3.851
26726WAT     H180420   2.065   9.738   3.798
26726WAT     H280421   2.046   9.898   3.829
26727WAT      O80422   5.629   3.643   3.365
26727WAT     H180423   5.581   3.622   3.451
26727WAT     H280424   5.565   3.685   3.301
26728WAT      O80425   5.472   6.026   8.310
26728WAT     H180426   5.429   5.984   8.389
26728WAT     H280427   5.571   6.016   8.316
26729WAT      O80428   7.360   2.072   2.884
26729WAT     H180429   7.443   2.067   2.829
26729WAT     H280430   7.368   2.146   2.951
26730WAT      O80431   9.262   4.492   6.434
26730WAT     H180432   9.198   4.498   6.510
26730WAT     H280433   9.215   4.514   6.348
26731WAT      O80434   5.050   6.878   8.034
26731WAT     H180435   5.050   6.809   8.106
26731WAT     H280436   5.087   6.964   8.071
26732WAT      O80437   4.645   8.989   4.495
26732WAT     H180438   4.734   8.978   4.451
26732WAT     H280439   4.648   8.953   4.588
26733WAT      O80440   9.232   3.081   3.233
26733WAT     H180441   9.274   3.168   3.204
26733WAT     H280442   9.138   3.098   3.262
26734WAT      O80443   3.397   1.497   5.650
26734WAT     H180444   3.395   1.573   5.715
26734WAT     H280445   3.343   1.520   5.570
26735WAT      O80446   0.882   8.229   2.460
26735WAT     H180447   0.882   8.309   2.400
26735WAT     H280448   0.976   8.197   2.472
26736WAT      O80449   2.913   6.586   0.174
26736WAT     H180450   2.872   6.589   0.265
26736WAT     H280451   2.859   6.525   0.116
26737WAT      O80452   3.306   2.298   5.764
26737WAT     H180453   3.303   2.199   5.782
26737WAT     H280454   3.260   2.318   5.678
26738WAT      O80455   0.930   5.334   5.728
26738WAT     H180456   0.927   5.380   5.639
26738WAT     H280457   0.980   5.390   5.793
26739WAT      O80458   4.920   4.757   1.368
26739WAT     H180459   4.836   4.788   1.322
26739WAT     H280460   4.937   4.661   1.344
26740WAT      O80461   2.954   9.325   6.926
26740WAT     H180462   2.975   9.317   7.023
26740WAT     H280463   3.038   9.345   6.875
26741WAT      O80464   4.856   8.967   4.318
26741WAT     H180465   4.828   8.998   4.227
26741WAT     H280466   4.888   8.872   4.313
26742WAT      O80467   9.766   9.656   5.800
26742WAT     H180468   9.679   9.661   5.750
26742WAT     H280469   9.827   9.592   5.754
26743WAT      O80470   5.617   5.670   7.873
26743WAT     H180471   5.581   5.630   7.789
26743WAT     H280472   5.591   5.766   7.878
26744WAT      O80473   3.331   1.156   3.936
26744WAT     H180474   3.422   1.139   3.973
26744WAT     H280475   3.298   1.244   3.969
26745WAT      O80476   8.345   5.476   2.306
26745WAT     H180477   8.371   5.561   2.352
26745WAT     H280478   8.246   5.475   2.292
26746WAT      O80479   7.108   0.881   9.646
26746WAT     H180480   7.012   0.910   9.651
26746WAT     H280481   7.155   0.908   9.730
26747WAT      O80482   4.758   5.952   1.054
26747WAT     H180483   4.746   5.974   0.957
26747WAT     H280484   4.751   5.853   1.067
26748WAT      O80485   7.916   6.687   6.985
26748WAT     H180486   7.966   6.601   6.978
26748WAT     H280487   7.973   6.755   7.032
26749WAT      O80488   9.448   5.570   5.841
26749WAT     H180489   9.519   5.508   5.874
26749WAT     H280490   9.358   5.533   5.864
26750WAT      O80491   4.380   1.575   3.157
26750WAT     H180492   4.294   1.612   3.193
26750WAT     H280493   4.364   1.540   3.064
26751WAT      O80494   8.519   0.586   6.221
26751WAT     H180495   8.483   0.505   6.267
26751WAT     H280496   8.465   0.605   6.139
26752WAT      O80497   0.539   2.181   7.856
26752WAT     H180498   0.489   2.210   7.775
26752WAT     H280499   0.486   2.203   7.938
26753WAT      O80500   7.806   0.179   2.501
26753WAT     H180501   7.856   0.205   2.584
26753WAT     H280502   7.835   0.088   2.472
26754WAT      O80503   3.638   3.665   5.439
26754WAT     H180504   3.594   3.753   5.460
26754WAT     H280505   3.650   3.656   5.340
26755WAT      O80506   9.359   5.067   0.752
26755WAT     H180507   9.288   5.125   0.793
26755WAT     H280508   9.434   5.125   0.719
26756WAT      O80509   7.178   9.342   9.519
26756WAT     H180510   7.117   9.311   9.592
26756WAT     H280511   7.126   9.351   9.434
26757WAT      O80512   6.642   1.523   7.023
26757WAT     H180513   6.708   1.550   6.953
26757WAT     H280514   6.579   1.599   7.041
26758WAT      O80515   7.129   7.151   0.613
26758WAT     H180516   7.032   7.175   0.608
26758WAT     H280517   7.157   7.108   0.527
26759WAT      O80518   7.824   6.010   6.580
26759WAT     H180519   7.874   6.014   6.666
26759WAT     H280520   7.800   5.915   6.560
26760WAT      O80521   4.612   1.694   4.020
26760WAT     H180522   4.667   1.754   4.077
26760WAT     H280523   4.523   1.736   4.003
26761WAT      O80524   4.004   7.576   8.238
26761WAT     H180525   4.080   7.511   8.232
26761WAT     H280526   3.925   7.539   8.190
26762WAT      O80527   3.340   4.270   8.228
26762WAT     H180528   3.254   4.250   8.276
26762WAT     H280529   3.411   4.295   8.294
26763WAT      O80530   0.545   6.468   2.557
26763WAT     H180531   0.583   6.450   2.466
26763WAT     H280532   0.450   6.438   2.560
26764WAT      O80533   6.944   8.183   9.519
26764WAT     H180534   6.986   8.141   9.439
26764WAT     H280535   6.992   8.154   9.602
26765WAT      O80536   9.633   1.660   1.265
26765WAT     H180537   9.554   1.695   1.317
26765WAT     H280538   9.717   1.698   1.304
26766WAT      O80539   6.515   9.618   6.318
26766WAT     H180540   6.508   9.534   6.373
26766WAT     H280541   6.608   9.654   6.327
26767WAT      O80542   3.465   9.048   9.629
26767WAT     H180543   3.391   9.032   9.695
26767WAT     H280544   3.547   9.077   9.677
26768WAT      O80545   5.551   8.149   1.376
26768WAT     H180546   5.521   8.054   1.381
26768WAT     H280547   5.472   8.210   1.384
26769WAT      O80548   5.520   1.447   5.423
26769WAT     H180549   5.483   1.393   5.500
26769WAT     H280550   5.617   1.463   5.438
26770WAT      O80551   0.567   0.891   5.468
26770WAT     H180552   0.611   0.802   5.454
26770WAT     H280553   0.484   0.896   5.411
26771WAT      O80554   5.294   2.006   5.889
26771WAT     H180555   5.230   2.054   5.829
26771WAT     H280556   5.243   1.965   5.965
26772WAT      O80557   8.675   1.457   5.713
26772WAT     H180558   8.674   1.540   5.769
26772WAT     H280559   8.581   1.427   5.696
26773WAT      O80560   4.314   0.145   8.361
26773WAT     H180561   4.368   0.217   8.317
26773WAT     H280562   4.234   0.186   8.404
26774WAT      O80563   5.111   7.170   5.531
26774WAT     H180564   5.172   7.197   5.605
26774WAT     H280565   5.164   7.127   5.457
26775WAT      O80566   4.947   7.145   9.742
26775WAT     H180567   4.930   7.234   9.699
26775WAT     H280568   4.866   7.087   9.732
26776WAT      O80569   4.871   7.364   5.236
26776WAT     H180570   4.911   7.273   5.228
26776WAT     H280571   4.797   7.374   5.169
26777WAT      O80572   3.892   5.721   3.876
26777WAT     H180573   3.914   5.818   3.865
26777WAT     H280574   3.944   5.683   3.952
26778WAT      O80575   0.891   0.865   4.434
26778WAT     H180576   0.885   0.877   4.533
26778WAT     H280577   0.974   0.813   4.412
26779WAT      O80578   2.109   0.034   0.649
26779WAT     H180579   2.039   0.008   0.715
26779WAT     H280580   2.068   0.087   0.575
26780WAT      O80581   9.112   9.219   5.586
26780WAT     H180582   9.172   9.296   5.605
26780WAT     H280583   9.073   9.228   5.495
26781WAT      O80584   1.308   5.636   4.966
26781WAT     H180585   1.374   5.596   4.903
26781WAT     H280586   1.334   5.615   5.060
26782WAT      O80587   3.237   0.464   8.663
26782WAT     H180588   3.217   0.399   8.737
26782WAT     H280589   3.294   0.419   8.595
26783WAT      O80590   3.229   7.953   7.834
26783WAT     H180591   3.301   7.889   7.808
26783WAT     H280592   3.247   8.042   7.793
26784WAT      O80593   1.160   5.639   3.474
26784WAT     H180594   1.127   5.545   3.463
26784WAT     H280595   1.084   5.703   3.463
26785WAT      O80596   6.227   3.492   8.627
26785WAT     H180597   6.210   3.530   8.718
26785WAT     H280598   6.247   3.395   8.635
26786WAT      O80599   2.299   1.926   5.667
26786WAT     H180600   2.278   2.010   5.718
26786WAT     H280601   2.295   1.848   5.729
26787WAT      O80602   2.343   3.057   0.861
26787WAT     H180603   2.406   2.982   0.883
26787WAT     H280604   2.251   3.021   0.853
26788WAT      O80605   1.847   1.787   8.929
26788WAT     H180606   1.832   1.811   9.024
26788WAT     H280607   1.862   1.870   8.875
26789WAT      O80608   1.526   3.219   9.443
26789WAT     H180609   1.428   3.211   9.461
26789WAT     H280610   1.544   3.298   9.385
26790WAT      O80611   1.829   0.103   6.029
26790WAT     H180612   1.818   0.086   5.931
26790WAT     H280613   1.921   0.137   6.047
26791WAT      O80614   0.639   6.776   1.165
26791WAT     H180615   0.608   6.788   1.071
26791WAT     H280616   0.595   6.845   1.223
26792WAT      O80617   8.583   2.471   4.768
26792WAT     H180618   8.604   2.535   4.841
26792WAT     H280619   8.629   2.500   4.684
26793WAT      O80620   0.063   4.510   5.530
26793WAT     H180621   0.146   4.554   5.562
26793WAT     H280622   0.051   4.423   5.577
26794WAT      O80623   1.939   0.680   1.088
26794WAT     H180624   1.967   0.775   1.071
26794WAT     H280625   2.010   0.618   1.055
26795WAT      O80626   0.906   4.123   3.553
26795WAT     H180627   0.941   4.114   3.646
26795WAT     H280628   0.809   4.146   3.555
26796WAT      O80629   3.328   1.709   0.657
26796WAT     H180630   3.329   1.611   0.637
26796WAT     H280631   3.337   1.761   0.572
26797WAT      O80632   5.267   3.030   1.088
26797WAT     H180633   5.227   3.122   1.095
26797WAT     H280634   5.363   3.038   1.063
26798WAT      O80635   9.799   7.187   7.094
26798WAT     H180636   9.811   7.281   7.126
26798WAT     H280637   9.710   7.178   7.050
26799WAT      O80638   7.928   3.141   2.009
26799WAT     H180639   7.921   3.240   1.999
26799WAT     H280640   7.844   3.097   1.978
26800WAT      O80641   4.670   9.502   2.594
26800WAT     H180642   4.582   9.550   2.585
26800WAT     H280643   4.702   9.475   2.503
26801WAT      O80644   9.210   9.484   5.631
26801WAT     H180645   9.154   9.556   5.671
26801WAT     H280646   9.294   9.474   5.685
26802WAT      O80647   1.798   6.155   4.427
26802WAT     H180648   1.798   6.245   4.384
26802WAT     H280649   1.886   6.139   4.472
26803WAT      O80650   4.756   3.467   0.466
26803WAT     H180651   4.854   3.450   0.454
26803WAT     H280652   4.741   3.514   0.553
26804WAT      O80653   7.523   5.017   6.626
26804WAT     H180654   7.585   5.016   6.704
26804WAT     H280655   7.432   4.986   6.655
26805WAT      O80656   8.000   9.578   1.626
26805WAT     H180657   8.011   9.658   1.567
26805WAT     H280658   8.045   9.595   1.714
26806WAT      O80659   4.104   4.098   4.031
26806WAT     H180660   4.132   4.019   3.976
26806WAT     H280661   4.043   4.068   4.104
26807WAT      O80662   7.771   3.443   3.537
26807WAT     H180663   7.671   3.437   3.549
26807WAT     H280664   7.795   3.405   3.448
26808WAT      O80665   6.588   6.516   1.020
26808WAT     H180666   6.586   6.534   1.118
26808WAT     H280667   6.621   6.598   0.972
26809WAT      O80668   3.396   2.598   8.669
26809WAT     H180669   3.309   2.582   8.717
26809WAT     H280670   3.471   2.563   8.725
26810WAT      O80671   2.756   2.074   2.218
26810WAT     H180672   2.789   2.146   2.157
26810WAT     H280673   2.830   2.045   2.278
26811WAT      O80674   9.848   1.306   6.781
26811WAT     H180675   9.850   1.344   6.873
26811WAT     H280676   9.861   1.207   6.785
26812WAT      O80677   5.742   1.893   3.149
26812WAT     H180678   5.775   1.869   3.058
26812WAT     H280679   5.642   1.896   3.148
26813WAT      O80680   8.152   2.130   1.849
26813WAT     H180681   8.164   2.224   1.880
26813WAT     H280682   8.098   2.130   1.765
26814WAT      O80683   8.649   0.603   5.800
26814WAT     H180684   8.699   0.593   5.714
26814WAT     H280685   8.691   0.676   5.854
26815WAT      O80686   6.868   8.651   5.240
26815WAT     H180687   6.807   8.679   5.313
26815WAT     H280688   6.833   8.684   5.152
26816WAT      O80689   7.989   3.124   7.925
26816WAT     H180690   7.895   3.092   7.917
26816WAT     H280691   8.016   3.121   8.021
26817WAT      O80692   6.596   3.013   0.382
26817WAT     H180693   6.535   3.084   0.418
26817WAT     H280694   6.545   2.955   0.317
26818WAT      O80695   8.910   7.696   0.183
26818WAT     H180696   8.832   7.735   0.135
26818WAT     H280697   8.899   7.709   0.281
26819WAT      O80698   1.151   8.957   4.514
26819WAT     H180699   1.133   8.860   4.495
26819WAT     H280700   1.250   8.974   4.513
26820WAT      O80701   6.450   0.365   6.991
26820WAT     H180702   6.462   0.413   6.904
26820WAT     H280703   6.352   0.358   7.011
26821WAT      O80704   6.240   6.005   8.027
26821WAT     H180705   6.264   5.910   8.048
26821WAT     H280706   6.305   6.041   7.959
26822WAT      O80707   3.978   6.284   3.720
26822WAT     H180708   3.987   6.248   3.628
26822WAT     H280709   3.895   6.340   3.726
26823WAT      O80710   5.366   6.945   2.567
26823WAT     H180711   5.295   6.986   2.509
26823WAT     H280712   5.370   6.847   2.551
26824WAT      O80713   1.602   1.821   2.522
26824WAT     H180714   1.595   1.721   2.526
26824WAT     H280715   1.660   1.854   2.596
26825WAT      O80716   4.462   1.075   0.411
26825WAT     H180717   4.487   1.170   0.389
26825WAT     H280718   4.388   1.075   0.478
26826WAT      O80719   7.921   4.970   5.944
26826WAT     H180720   7.999   5.029   5.965
26826WAT     H280721   7.915   4.957   5.845
26827WAT      O80722   9.707   8.405   7.124
26827WAT     H180723   9.670   8.489   7.164
26827WAT     H280724   9.633   8.356   7.077
26828WAT      O80725   4.770   2.585   1.413
26828WAT     H180726   4.693   2.531   1.379
26828WAT     H280727   4.852   2.528   1.414
26829WAT      O80728   6.772   0.356   3.114
26829WAT     H180729   6.826   0.421   3.061
26829WAT     H280730   6.676   0.380   3.108
26830WAT      O80731   3.243   4.419   8.938
26830WAT     H180732   3.281   4.411   9.030
26830WAT     H280733   3.150   4.384   8.937
26831WAT      O80734   3.516   7.980   4.497
26831WAT     H180735   3.578   8.014   4.427
26831WAT     H280736   3.465   7.902   4.462
26832WAT      O80737   3.959   5.379   7.734
26832WAT     H180738   4.051   5.391   7.771
26832WAT     H280739   3.963   5.373   7.635
26833WAT      O80740   9.003   7.066   4.458
26833WAT     H180741   9.041   7.151   4.421
26833WAT     H280742   8.996   7.074   4.558
26834WAT      O80743   5.157   2.754   3.647
26834WAT     H180744   5.106   2.754   3.561
26834WAT     H280745   5.255   2.755   3.627
26835WAT      O80746   3.922   6.384   2.878
26835WAT     H180747   4.002   6.345   2.924
26835WAT     H280748   3.952   6.446   2.805
26836WAT      O80749   7.020   4.848   3.536
26836WAT     H180750   7.088   4.894   3.479
26836WAT     H280751   6.930   4.851   3.491
26837WAT      O80752   3.365   1.910   1.541
26837WAT     H180753   3.428   1.841   1.577
26837WAT     H280754   3.400   1.946   1.455
26838WAT      O80755   3.206   0.269   5.843
26838WAT     H180756   3.130   0.333   5.838
26838WAT     H280757   3.250   0.262   5.753
26839WAT      O80758   5.332   5.421   9.725
26839WAT     H180759   5.391   5.388   9.798
26839WAT     H280760   5.293   5.510   9.751
26840WAT      O80761   2.892   9.817   0.306
26840WAT     H180762   2.867   9.741   0.364
26840WAT     H280763   2.971   9.792   0.250
26841WAT      O80764   3.540   3.306   9.869
26841WAT     H180765   3.604   3.298   9.946
26841WAT     H280766   3.510   3.215   9.841
26842WAT      O80767   1.104   5.307   8.063
26842WAT     H180768   1.106   5.362   7.979
26842WAT     H280769   1.182   5.332   8.120
26843WAT      O80770   4.947   3.273   8.430
26843WAT     H180771   4.974   3.325   8.349
26843WAT     H280772   4.973   3.177   8.419
26844WAT      O80773   7.004   8.214   8.337
26844WAT     H180774   7.042   8.233   8.427
26844WAT     H280775   7.073   8.232   8.267
26845WAT      O80776   8.025   3.540   0.126
26845WAT     H180777   7.988   3.546   0.219
26845WAT     H280778   7.959   3.578   0.061
26846WAT      O80779   3.258   8.852   2.326
26846WAT     H180780   3.334   8.881   2.385
26846WAT     H280781   3.295   8.799   2.250
26847WAT      O80782   4.220   0.659   8.825
26847WAT     H180783   4.279   0.654   8.744
26847WAT     H280784   4.276   0.685   8.905
26848WAT      O80785   0.395   0.970   8.287
26848WAT     H180786   0.391   1.030   8.367
26848WAT     H280787   0.387   0.874   8.317
26849WAT      O80788   1.874   6.757   4.420
26849WAT     H180789   1.825   6.693   4.361
26849WAT     H280790   1.871   6.848   4.381
26850WAT      O80791   3.628   3.000   7.560
26850WAT     H180792   3.651   2.936   7.487
26850WAT     H280793   3.690   3.079   7.555
26851WAT      O80794   4.194   9.363   7.246
26851WAT     H180795   4.182   9.288   7.311
26851WAT     H280796   4.156   9.447   7.285
26852WAT      O80797   5.677   1.794   8.137
26852WAT     H180798   5.604   1.862   8.132
26852WAT     H280799   5.694   1.770   8.233
26853WAT      O80800   0.632   8.367   7.458
26853WAT     H180801   0.631   8.372   7.557
26853WAT     H280802   0.540   8.350   7.424
26854WAT      O80803   0.122   5.933   6.527
26854WAT     H180804   0.181   5.859   6.558
26854WAT     H280805   0.030   5.919   6.564
26855WAT      O80806   9.531   3.899   3.435
26855WAT     H180807   9.446   3.919   3.385
26855WAT     H280808   9.609   3.928   3.380
26856WAT      O80809   3.863   2.782   7.493
26856WAT     H180810   3.883   2.835   7.411
26856WAT     H280811   3.797   2.710   7.471
26857WAT      O80812   9.301   7.455   1.398
26857WAT     H180813   9.324   7.426   1.491
26857WAT     H280814   9.348   7.396   1.332
26858WAT      O80815   7.769   8.056   3.296
26858WAT     H180816   7.817   8.047   3.384
26858WAT     H280817   7.678   8.095   3.312
26859WAT      O80818   8.032   5.454   7.466
26859WAT     H180819   7.971   5.431   7.542
26859WAT     H280820   8.066   5.547   7.478
26860WAT      O80821   1.076   2.265   3.460
26860WAT     H180822   1.002   2.316   3.504
26860WAT     H280823   1.038   2.188   3.409
26861WAT      O80824   5.208   4.513  -0.001
26861WAT     H180825   5.108   4.516  -0.006
26861WAT     H280826   5.242   4.596   0.042
26862WAT      O80827   4.166   9.119   7.371
26862WAT     H180828   4.225   9.039   7.354
26862WAT     H280829   4.149   9.127   7.469
26863WAT      O80830   1.558   2.130   2.037
26863WAT     H180831   1.654   2.106   2.047
26863WAT     H280832   1.518   2.079   1.961
26864WAT      O80833   1.370   1.321   1.257
26864WAT     H180834   1.290   1.349   1.309
26864WAT     H280835   1.375   1.374   1.172
26865WAT      O80836   8.015   7.127   2.727
26865WAT     H180837   8.054   7.170   2.808
26865WAT     H280838   8.088   7.091   2.669
26866WAT      O80839   1.339   2.548   8.809
26866WAT     H180840   1.303   2.567   8.900
26866WAT     H280841   1.277   2.486   8.761
26867WAT      O80842   3.663   6.081   6.364
26867WAT     H180843   3.660   6.160   6.303
26867WAT     H280844   3.575   6.070   6.409
26868WAT      O80845   7.755   6.113   2.907
26868WAT     H180846   7.795   6.175   2.840
26868WAT     H280847   7.801   6.124   2.995
26869WAT      O80848   8.283   8.201   3.298
26869WAT     H180849   8.305   8.297   3.283
26869WAT     H280850   8.352   8.160   3.358
26870WAT      O80851   8.060   5.517   6.919
26870WAT     H180852   8.157   5.512   6.894
26870WAT     H280853   8.041   5.450   6.990
26871WAT      O80854   8.875   9.674   3.219
26871WAT     H180855   8.905   9.603   3.156
26871WAT     H280856   8.786   9.710   3.191
26872WAT      O80857   9.473   7.240   7.932
26872WAT     H180858   9.437   7.233   8.025
26872WAT     H280859   9.567   7.204   7.930
26873WAT      O80860   0.419   8.996   2.892
26873WAT     H180861   0.495   9.062   2.885
26873WAT     H280862   0.342   9.039   2.939
26874WAT      O80863   9.024   9.330   5.358
26874WAT     H180864   9.094   9.400   5.366
26874WAT     H280865   9.006   9.311   5.261
26875WAT      O80866   8.045   2.578   1.948
26875WAT     H180867   8.078   2.656   1.894
26875WAT     H280868   7.957   2.548   1.912
26876WAT      O80869   1.740   0.147   0.713
26876WAT     H180870   1.805   0.094   0.769
26876WAT     H280871   1.663   0.090   0.688
26877WAT      O80872   9.035   2.333   4.473
26877WAT     H180873   9.004   2.347   4.378
26877WAT     H280874   8.995   2.249   4.509
26878WAT      O80875   0.736   9.792   9.577
26878WAT     H180876   0.774   9.792   9.484
26878WAT     H280877   0.797   9.842   9.638
26879WAT      O80878   7.761   7.718   8.460
26879WAT     H180879   7.833   7.787   8.465
26879WAT     H280880   7.673   7.763   8.442
26880WAT      O80881   8.462   2.678   5.632
26880WAT     H180882   8.389   2.733   5.592
26880WAT     H280883   8.441   2.661   5.729
26881WAT      O80884   5.014   3.911   9.572
26881WAT     H180885   5.022   3.833   9.634
26881WAT     H280886   5.044   3.994   9.618
26882WAT      O80887   5.122   1.830   1.955
26882WAT     H180888   5.092   1.820   2.050
26882WAT     H280889   5.197   1.896   1.951
26883WAT      O80890   6.323   8.458   0.787
26883WAT     H180891   6.397   8.524   0.772
26883WAT     H280892   6.293   8.464   0.883
26884WAT      O80893   3.227   5.793   9.104
26884WAT     H180894   3.177   5.838   9.177
26884WAT     H280895   3.261   5.705   9.136
26885WAT      O80896   3.503   6.684   8.670
26885WAT     H180897   3.515   6.610   8.736
26885WAT     H280898   3.407   6.714   8.671
26886WAT      O80899   0.143   4.159   2.616
26886WAT     H180900   0.211   4.232   2.615
26886WAT     H280901   0.148   4.109   2.702
26887WAT      O80902   8.513   8.005   1.478
26887WAT     H180903   8.598   8.047   1.509
26887WAT     H280904   8.494   8.033   1.384
26888WAT      O80905   9.369   5.754   7.691
26888WAT     H180906   9.424   5.671   7.693
26888WAT     H280907   9.390   5.807   7.609
26889WAT      O80908   5.299   5.607   5.740
26889WAT     H180909   5.325   5.671   5.812
26889WAT     H280910   5.265   5.657   5.661
26890WAT      O80911   1.510   1.239   2.678
26890WAT     H180912   1.442   1.290   2.625
26890WAT     H280913   1.580   1.203   2.617
26891WAT      O80914   7.892   0.079   4.658
26891WAT     H180915   7.850  -0.009   4.680
26891WAT     H280916   7.956   0.104   4.730
26892WAT      O80917   3.944   7.550   1.986
26892WAT     H180918   3.912   7.507   1.902
26892WAT     H280919   3.966   7.480   2.054
26893WAT      O80920   6.343   5.548   6.609
26893WAT     H180921   6.305   5.627   6.561
26893WAT     H280922   6.440   5.538   6.584
26894WAT      O80923   9.412   1.812   5.255
26894WAT     H180924   9.426   1.798   5.157
26894WAT     H280925   9.329   1.867   5.270
26895WAT      O80926   4.600   3.320   1.292
26895WAT     H180927   4.560   3.354   1.207
26895WAT     H280928   4.605   3.220   1.290
26896WAT      O80929   4.286   0.348   3.883
26896WAT     H180930   4.222   0.416   3.919
26896WAT     H280931   4.295   0.273   3.948
26897WAT      O80932   8.036   3.983   3.184
26897WAT     H180933   8.001   3.974   3.278
26897WAT     H280934   7.961   3.970   3.119
26898WAT      O80935   5.858   2.147   3.167
26898WAT     H180936   5.818   2.055   3.164
26898WAT     H280937   5.805   2.209   3.109
26899WAT      O80938   1.914   4.420   5.208
26899WAT     H180939   2.009   4.392   5.219
26899WAT     H280940   1.880   4.458   5.294
26900WAT      O80941   5.474   9.707   6.765
26900WAT     H180942   5.379   9.687   6.740
26900WAT     H280943   5.521   9.622   6.787
26901WAT      O80944   2.808   5.290   5.133
26901WAT     H180945   2.750   5.256   5.207
26901WAT     H280946   2.894   5.240   5.133
26902WAT      O80947   4.437   2.478   0.419
26902WAT     H180948   4.511   2.421   0.455
26902WAT     H280949   4.426   2.461   0.321
26903WAT      O80950   0.718   4.986   4.810
26903WAT     H180951   0.730   4.888   4.794
26903WAT     H280952   0.633   5.016   4.768
26904WAT      O80953   8.446   7.255   5.648
26904WAT     H180954   8.455   7.159   5.621
26904WAT     H280955   8.526   7.306   5.616
26905WAT      O80956   2.014   6.600   0.645
26905WAT     H180957   2.064   6.536   0.586
26905WAT     H280958   1.922   6.564   0.661
26906WAT      O80959   7.594   5.888   9.366
26906WAT     H180960   7.563   5.834   9.444
26906WAT     H280961   7.651   5.831   9.307
26907WAT      O80962   4.547   7.230   7.475
26907WAT     H180963   4.646   7.218   7.471
26907WAT     H280964   4.524   7.299   7.544
26908WAT      O80965   9.196   9.659   4.913
26908WAT     H180966   9.194   9.686   4.817
26908WAT     H280967   9.112   9.688   4.958
26909WAT      O80968   9.742   6.066   0.977
26909WAT     H180969   9.671   6.021   1.030
26909WAT     H280970   9.826   6.071   1.031
26910WAT      O80971   7.495   0.640   1.689
26910WAT     H180972   7.499   0.710   1.760
26910WAT     H280973   7.568   0.573   1.704
26911WAT      O80974   8.229   8.725   2.512
26911WAT     H180975   8.255   8.767   2.599
26911WAT     H280976   8.131   8.707   2.512
26912WAT      O80977   4.033   3.482   8.483
26912WAT     H180978   4.079   3.569   8.470
26912WAT     H280979   4.064   3.440   8.568
26913WAT      O80980   3.750   0.470   6.754
26913WAT     H180981   3.677   0.429   6.807
26913WAT     H280982   3.735   0.569   6.748
26914WAT      O80983   9.369   5.002   6.840
26914WAT     H180984   9.354   4.945   6.921
26914WAT     H280985   9.281   5.034   6.804
26915WAT      O80986   1.979   5.385   5.040
26915WAT     H180987   1.908   5.343   5.095
26915WAT     H280988   2.061   5.398   5.095
26916WAT      O80989   9.698   8.141   2.586
26916WAT     H180990   9.685   8.043   2.573
26916WAT     H280991   9.624   8.191   2.542
26917WAT      O80992   6.139   4.693   0.857
26917WAT     H180993   6.164   4.769   0.917
26917WAT     H280994   6.154   4.606   0.905
26918WAT      O80995   9.847   2.529   5.863
26918WAT     H180996   9.886   2.447   5.904
26918WAT     H280997   9.911   2.566   5.796
26919WAT      O80998   5.872   0.071   5.635
26919WAT     H180999   5.781   0.086   5.596
26919WAT     H281000   5.910   0.158   5.666
26920WAT      O81001   3.771   3.454   7.659
26920WAT     H181002   3.857   3.500   7.684
26920WAT     H281003   3.769   3.440   7.560
26921WAT      O81004   7.692   4.256   9.310
26921WAT     H181005   7.727   4.276   9.219
26921WAT     H281006   7.760   4.202   9.360
26922WAT      O81007   1.963   6.354   0.005
26922WAT     H181008   2.042   6.409  -0.021
26922WAT     H281009   1.978   6.315   0.096
26923WAT      O81010   2.212   0.822   5.521
26923WAT     H181011   2.177   0.759   5.452
26923WAT     H281012   2.312   0.829   5.512
26924WAT      O81013   8.641   4.305   3.053
26924WAT     H181014   8.721   4.265   3.008
26924WAT     H281015   8.667   4.341   3.142
26925WAT      O81016   8.098   5.082   7.684
26925WAT     H181017   8.184   5.071   7.733
26925WAT     H281018   8.117   5.112   7.590
26926WAT      O81019   2.004   7.098   4.453
26926WAT     H181020   2.009   7.195   4.431
26926WAT     H281021   2.084   7.072   4.506
26927WAT      O81022   6.873   1.009   9.360
26927WAT     H181023   6.795   1.067   9.384
26927WAT     H281024   6.861   0.918   9.400
26928WAT      O81025   2.137   8.543   1.382
26928WAT     H181026   2.166   8.517   1.474
26928WAT     H281027   2.045   8.507   1.365
26929WAT      O81028   9.103   1.486   6.456
26929WAT     H181029   9.186   1.526   6.418
26929WAT     H281030   9.076   1.407   6.402
26930WAT      O81031   7.479   0.943   4.900
26930WAT     H181032   7.409   0.929   4.830
26930WAT     H281033   7.522   0.855   4.921
26931WAT      O81034   7.348   8.924   6.153
26931WAT     H181035   7.401   8.982   6.216
26931WAT     H281036   7.305   8.982   6.084
26932WAT      O81037   4.677   5.865   2.245
26932WAT     H181038   4.604   5.823   2.298
26932WAT     H281039   4.641   5.942   2.192
26933WAT      O81040   8.937   2.407   4.227
26933WAT     H181041   8.997   2.396   4.148
26933WAT     H281042   8.916   2.504   4.240
26934WAT      O81043   7.998   1.702   8.346
26934WAT     H181044   7.984   1.725   8.442
26934WAT     H281045   7.928   1.748   8.290
26935WAT      O81046   2.417   3.590   2.903
26935WAT     H181047   2.488   3.656   2.879
26935WAT     H281048   2.455   3.521   2.966
26936WAT      O81049   3.541   2.999   3.844
26936WAT     H181050   3.449   3.002   3.805
26936WAT     H281051   3.547   2.924   3.910
26937WAT      O81052   2.706   7.572   6.196
26937WAT     H181053   2.781   7.630   6.164
26937WAT     H281054   2.718   7.479   6.161
26938WAT      O81055   5.948   3.203   5.279
26938WAT     H181056   6.032   3.204   5.333
26938WAT     H281057   5.960   3.260   5.198
26939WAT      O81058   1.229   1.799   4.621
26939WAT     H181059   1.140   1.799   4.667
26939WAT     H281060   1.301   1.815   4.688
26940WAT      O81061   3.775   0.829   8.798
26940WAT     H181062   3.766   0.919   8.755
26940WAT     H281063   3.788   0.759   8.728
26941WAT      O81064   2.672   6.402   8.986
26941WAT     H181065   2.676   6.424   8.889
26941WAT     H281066   2.673   6.487   9.040
26942WAT      O81067   4.953   2.671   2.590
26942WAT     H181068   5.013   2.713   2.522
26942WAT     H281069   4.860   2.666   2.554
26943WAT      O81070   4.956   8.458   8.861
26943WAT     H181071   4.961   8.375   8.805
26943WAT     H281072   4.883   8.449   8.928
26944WAT      O81073   3.068   1.439   6.418
26944WAT     H181074   3.034   1.473   6.330
26944WAT     H281075   3.020   1.355   6.442
26945WAT      O81076   0.453   2.822   7.966
26945WAT     H181077   0.480   2.732   7.933
26945WAT     H281078   0.521   2.890   7.939
26946WAT      O81079   9.210   1.094   1.432
26946WAT     H181080   9.194   1.161   1.360
26946WAT     H281081   9.179   1.004   1.401
26947WAT      O81082   8.702   7.634   6.825
26947WAT     H181083   8.685   7.661   6.920
26947WAT     H281084   8.615   7.618   6.778
26948WAT      O81085   8.783   7.203   6.778
26948WAT     H181086   8.731   7.211   6.863
26948WAT     H281087   8.844   7.281   6.769
26949WAT      O81088   4.357   9.187   7.953
26949WAT     H181089   4.404   9.200   7.866
26949WAT     H281090   4.363   9.272   8.007
26950WAT      O81091   8.391   2.036   9.632
26950WAT     H181092   8.348   1.958   9.587
26950WAT     H281093   8.384   2.025   9.731
26951WAT      O81094   8.644   7.606   8.185
26951WAT     H181095   8.709   7.583   8.257
26951WAT     H281096   8.684   7.588   8.096
26952WAT      O81097   4.741   1.839   3.237
26952WAT     H181098   4.657   1.826   3.289
26952WAT     H281099   4.755   1.761   3.176
26953WAT      O81100   9.879   9.748   1.871
26953WAT     H181101   9.875   9.719   1.966
26953WAT     H281102   9.796   9.799   1.848
26954WAT      O81103   9.540   2.545   0.672
26954WAT     H181104   9.518   2.447   0.679
26954WAT     H281105   9.497   2.594   0.748
26955WAT      O81106   0.626   1.998   9.362
26955WAT     H181107   0.683   2.071   9.324
26955WAT     H281108   0.614   1.926   9.294
26956WAT      O81109   9.850   5.857   8.584
26956WAT     H181110   9.885   5.928   8.645
26956WAT     H281111   9.926   5.808   8.542
26957WAT      O81112   0.623   9.375   3.521
26957WAT     H181113   0.694   9.445   3.522
26957WAT     H281114   0.645   9.305   3.453
26958WAT      O81115   8.466   0.132   5.886
26958WAT     H181116   8.398   0.091   5.947
26958WAT     H281117   8.523   0.060   5.846
26959WAT      O81118   9.002   3.276   4.846
26959WAT     H181119   8.967   3.292   4.938
26959WAT     H281120   9.101   3.265   4.848
26960WAT      O81121   6.098   8.015   4.020
26960WAT     H181122   6.178   8.075   4.017
26960WAT     H281123   6.020   8.067   4.055
26961WAT      O81124   9.871   7.908   6.485
26961WAT     H181125   9.878   7.828   6.545
26961WAT     H281126   9.943   7.906   6.417
26962WAT      O81127   0.436   5.967   2.911
26962WAT     H181128   0.477   5.925   2.830
26962WAT     H281129   0.434   5.901   2.986
26963WAT      O81130   4.388   4.323   3.658
26963WAT     H181131   4.446   4.251   3.620
26963WAT     H281132   4.346   4.290   3.743
26964WAT      O81133   7.306   9.328   8.439
26964WAT     H181134   7.334   9.418   8.408
26964WAT     H281135   7.374   9.260   8.409
26965WAT      O81136   7.259   0.974   6.946
26965WAT     H181137   7.250   1.034   6.866
26965WAT     H281138   7.236   0.880   6.919
26966WAT      O81139   9.533   7.535   7.634
26966WAT     H181140   9.466   7.606   7.612
26966WAT     H281141   9.564   7.490   7.550
26967WAT      O81142   9.122   9.199   2.202
26967WAT     H181143   9.112   9.225   2.106
26967WAT     H281144   9.150   9.279   2.255
26968WAT      O81145   4.069   0.910   1.804
26968WAT     H181146   4.154   0.917   1.751
26968WAT     H281147   3.992   0.898   1.742
26969WAT      O81148   9.811   6.837   6.414
26969WAT     H181149   9.884   6.782   6.375
26969WAT     H281150   9.736   6.777   6.442
26970WAT      O81151   6.223   6.800   2.790
26970WAT     H181152   6.264   6.739   2.722
26970WAT     H281153   6.138   6.759   2.824
26971WAT      O81154   4.376   1.730   3.575
26971WAT     H181155   4.354   1.635   3.552
26971WAT     H281156   4.296   1.773   3.617
26972WAT      O81157   7.450   1.291   5.250
26972WAT     H181158   7.381   1.363   5.253
26972WAT     H281159   7.408   1.206   5.220
26973WAT      O81160   4.288   4.596   8.465
26973WAT     H181161   4.272   4.528   8.393
26973WAT     H281162   4.266   4.556   8.554
26974WAT      O81163   7.331   8.468   5.893
26974WAT     H181164   7.335   8.504   5.986
26974WAT     H281165   7.270   8.389   5.890
26975WAT      O81166   5.631   9.470   0.978
26975WAT     H181167   5.547   9.435   0.937
26975WAT     H281168   5.708   9.410   0.954
26976WAT      O81169   0.721   5.137   5.536
26976WAT     H181170   0.680   5.063   5.482
26976WAT     H281171   0.808   5.106   5.575
26977WAT      O81172   6.132   8.231   2.313
26977WAT     H181173   6.231   8.240   2.302
26977WAT     H281174   6.113   8.176   2.394
26978WAT      O81175   3.920   4.307   6.774
26978WAT     H181176   3.941   4.210   6.763
26978WAT     H281177   4.002   4.361   6.758
26979WAT      O81178   0.685   9.143   1.079
26979WAT     H181179   0.605   9.177   1.128
26979WAT     H281180   0.680   9.044   1.070
26980WAT      O81181   2.430   8.798   2.505
26980WAT     H181182   2.452   8.701   2.496
26980WAT     H281183   2.362   8.810   2.577
26981WAT      O81184   4.808   0.838   8.389
26981WAT     H181185   4.708   0.843   8.386
26981WAT     H281186   4.845   0.931   8.391
26982WAT      O81187   5.684   2.811   8.774
26982WAT     H181188   5.606   2.851   8.822
26982WAT     H281189   5.653   2.737   8.714
26983WAT      O81190   1.107   9.027   3.695
26983WAT     H181191   1.199   9.067   3.686
26983WAT     H281192   1.097   8.988   3.787
26984WAT      O81193   2.801   3.760   5.729
26984WAT     H181194   2.782   3.732   5.635
26984WAT     H281195   2.861   3.693   5.773
26985WAT      O81196   7.317   3.002   0.160
26985WAT     H181197   7.402   3.051   0.141
26985WAT     H281198   7.338   2.909   0.191
26986WAT      O81199   3.759   6.134   3.258
26986WAT     H181200   3.809   6.087   3.331
26986WAT     H281201   3.671   6.087   3.243
26987WAT      O81202   2.965   6.638   6.462
26987WAT     H181203   2.917   6.631   6.550
26987WAT     H281204   2.905   6.682   6.395
26988WAT      O81205   6.481   8.499   5.639
26988WAT     H181206   6.439   8.439   5.707
26988WAT     H281207   6.568   8.533   5.673
26989WAT      O81208   3.262   9.272   4.812
26989WAT     H181209   3.294   9.347   4.870
26989WAT     H281210   3.320   9.191   4.827
26990WAT      O81211   4.691   4.024   1.364
26990WAT     H181212   4.789   4.043   1.364
26990WAT     H281213   4.666   3.976   1.279
26991WAT      O81214   8.233   7.036   4.586
26991WAT     H181215   8.199   7.077   4.501
26991WAT     H281216   8.156   7.020   4.648
26992WAT      O81217   5.522   0.991   9.496
26992WAT     H181218   5.466   1.005   9.415
26992WAT     H281219   5.465   0.960   9.572
26993WAT      O81220   9.091   8.977   6.469
26993WAT     H181221   9.087   8.948   6.565
26993WAT     H281222   9.083   9.076   6.464
26994WAT      O81223   2.126   7.800   6.955
26994WAT     H181224   2.098   7.888   6.916
26994WAT     H281225   2.172   7.815   7.042
26995WAT      O81226   5.959   0.257   2.427
26995WAT     H181227   5.900   0.190   2.382
26995WAT     H281228   6.037   0.277   2.368
26996WAT      O81229   3.525   7.642   5.151
26996WAT     H181230   3.466   7.665   5.074
26996WAT     H281231   3.541   7.723   5.207
26997WAT      O81232   8.008   6.767   8.096
26997WAT     H181233   7.971   6.825   8.023
26997WAT     H281234   8.108   6.772   8.094
26998WAT      O81235   8.929   5.790   3.382
26998WAT     H181236   8.958   5.698   3.354
26998WAT     H281237   8.982   5.858   3.331
26999WAT      O81238   7.837   2.400   1.186
26999WAT     H181239   7.921   2.392   1.133
26999WAT     H281240   7.767   2.447   1.131
27000WAT      O81241   3.226   7.740   0.806
27000WAT     H181242   3.192   7.769   0.717
27000WAT     H281243   3.150   7.739   0.872
27001WAT      O81244   3.676   2.779   8.626
27001WAT     H181245   3.653   2.871   8.659
27001WAT     H281246   3.678   2.716   8.703
27002WAT      O81247   7.240   7.228   3.224
27002WAT     H181248   7.337   7.232   3.200
27002WAT     H281249   7.212   7.133   3.233
27003WAT      O81250   1.317   9.746   8.698
27003WAT     H181251   1.304   9.647   8.695
27003WAT     H281252   1.234   9.789   8.733
27004WAT      O81253   1.332   2.109   6.815
27004WAT     H181254   1.341   2.100   6.914
27004WAT     H281255   1.346   2.019   6.773
27005WAT      O81256   6.023   5.690   3.637
27005WAT     H181257   5.978   5.608   3.672
27005WAT     H281258   6.017   5.692   3.538
27006WAT      O81259   4.243   9.751   0.225
27006WAT     H181260   4.199   9.664   0.202
27006WAT     H281261   4.187   9.800   0.292
27007WAT      O81262   0.979   6.035   4.923
27007WAT     H181263   1.061   5.986   4.953
27007WAT     H281264   0.992   6.065   4.828
27008WAT      O81265   5.699   4.286   7.430
27008WAT     H181266   5.617   4.333   7.396
27008WAT     H281267   5.673   4.195   7.462
27009WAT      O81268   8.052   8.837   1.093
27009WAT     H181269   8.046   8.749   1.046
27009WAT     H281270   8.113   8.830   1.172
27010WAT      O81271   7.398   0.109   0.878
27010WAT     H181272   7.312   0.065   0.853
27010WAT     H281273   7.400   0.202   0.840
27011WAT      O81274   2.085   3.201   4.533
27011WAT     H181275   2.008   3.183   4.594
27011WAT     H281276   2.065   3.167   4.441
27012WAT      O81277   4.703   1.408   8.549
27012WAT     H181278   4.655   1.494   8.528
27012WAT     H281279   4.664   1.334   8.494
27013WAT      O81280   7.700   5.972   4.779
27013WAT     H181281   7.748   5.988   4.865
27013WAT     H281282   7.761   5.989   4.703
27014WAT      O81283   4.778   7.992   9.869
27014WAT     H181284   4.805   7.896   9.882
27014WAT     H281285   4.802   8.020   9.776
27015WAT      O81286   2.971   2.022   0.482
27015WAT     H181287   2.895   1.958   0.470
27015WAT     H281288   2.961   2.069   0.570
27016WAT      O81289   2.502   9.451   0.576
27016WAT     H181290   2.425   9.389   0.561
27016WAT     H281291   2.581   9.418   0.525
27017WAT      O81292   6.405   7.334   7.373
27017WAT     H181293   6.373   7.402   7.438
27017WAT     H281294   6.387   7.365   7.280
27018WAT      O81295   9.247   9.451   3.266
27018WAT     H181296   9.181   9.489   3.331
27018WAT     H281297   9.336   9.440   3.312
27019WAT      O81298   5.459   7.674   3.599
27019WAT     H181299   5.384   7.616   3.566
27019WAT     H281300   5.537   7.617   3.625
27020WAT      O81301   6.531   6.006   1.512
27020WAT     H181302   6.589   5.928   1.491
27020WAT     H281303   6.549   6.038   1.605
27021WAT      O81304   0.426   8.088   9.814
27021WAT     H181305   0.376   8.031   9.749
27021WAT     H281306   0.412   8.184   9.792
27022WAT      O81307   7.255   1.716   3.201
27022WAT     H181308   7.318   1.780   3.245
27022WAT     H281309   7.223   1.755   3.114
27023WAT      O81310   2.096   2.767   9.607
27023WAT     H181311   2.018   2.710   9.633
27023WAT     H281312   2.100   2.775   9.508
27024WAT      O81313   0.620   3.658   4.763
27024WAT     H181314   0.704   3.613   4.793
27024WAT     H281315   0.628   3.683   4.667
27025WAT      O81316   6.320   3.230   3.530
27025WAT     H181317   6.245   3.164   3.538
27025WAT     H281318   6.285   3.323   3.544
27026WAT      O81319   1.223   8.718   7.900
27026WAT     H181320   1.301   8.673   7.944
27026WAT     H281321   1.156   8.743   7.969
27027WAT      O81322   1.354   9.104   3.647
27027WAT     H181323   1.365   9.184   3.588
27027WAT     H281324   1.381   9.022   3.596
27028WAT      O81325   7.114   1.827   5.551
27028WAT     H181326   7.021   1.795   5.533
27028WAT     H281327   7.111   1.922   5.583
27029WAT      O81328   5.867   6.627   7.643
27029WAT     H181329   5.899   6.721   7.654
27029WAT     H281330   5.925   6.565   7.697
27030WAT      O81331   1.828   8.410   3.882
27030WAT     H181332   1.913   8.454   3.853
27030WAT     H281333   1.818   8.418   3.981
27031WAT      O81334   2.321   6.587   3.847
27031WAT     H181335   2.295   6.657   3.781
27031WAT     H281336   2.252   6.515   3.849
27032WAT      O81337   3.167   3.136   4.060
27032WAT     H181338   3.160   3.235   4.052
27032WAT     H281339   3.223   3.111   4.139
27033WAT      O81340   2.933   8.402   7.488
27033WAT     H181341   3.012   8.343   7.497
27033WAT     H281342   2.958   8.484   7.436
27034WAT      O81343   3.061   0.206   3.601
27034WAT     H181344   3.146   0.174   3.644
27034WAT     H281345   3.061   0.179   3.505
27035WAT      O81346   5.482   2.739   4.653
27035WAT     H181347   5.458   2.645   4.627
27035WAT     H281348   5.429   2.803   4.598
27036WAT      O81349   6.329   1.449   8.706
27036WAT     H181350   6.318   1.548   8.711
27036WAT     H281351   6.249   1.408   8.663
27037WAT      O81352   4.908   7.382   9.648
27037WAT     H181353   4.812   7.386   9.618
27037WAT     H281354   4.965   7.433   9.584
27038WAT      O81355   2.301   6.610   3.323
27038WAT     H181356   2.361   6.556   3.264
27038WAT     H281357   2.231   6.551   3.364
27039WAT      O81358   2.452   1.755   2.693
27039WAT     H181359   2.532   1.708   2.656
27039WAT     H281360   2.383   1.687   2.719
27040WAT      O81361   6.508   0.395   4.854
27040WAT     H181362   6.440   0.385   4.926
27040WAT     H281363   6.464   0.430   4.771
27041WAT      O81364   2.158   4.814   9.068
27041WAT     H181365   2.134   4.887   9.004
27041WAT     H281366   2.257   4.811   9.078
27042WAT      O81367   8.288   3.047   0.383
27042WAT     H181368   8.363   3.038   0.448
27042WAT     H281369   8.288   2.968   0.322
27043WAT      O81370   1.937   3.113   7.653
27043WAT     H181371   1.873   3.037   7.643
27043WAT     H281372   2.028   3.084   7.624
27044WAT      O81373   9.704   5.698   6.340
27044WAT     H181374   9.744   5.659   6.258
27044WAT     H281375   9.637   5.768   6.315
27045WAT      O81376   3.156   1.349   5.649
27045WAT     H181377   3.138   1.447   5.653
27045WAT     H281378   3.251   1.331   5.677
27046WAT      O81379   0.563   9.207   6.616
27046WAT     H181380   0.505   9.164   6.686
27046WAT     H281381   0.509   9.273   6.565
27047WAT      O81382   6.411   6.670   8.880
27047WAT     H181383   6.423   6.571   8.869
27047WAT     H281384   6.379   6.690   8.972
27048WAT      O81385   7.803   3.673   0.522
27048WAT     H181386   7.704   3.670   0.504
27048WAT     H281387   7.824   3.754   0.578
27049WAT      O81388   9.036   1.528   9.027
27049WAT     H181389   9.064   1.601   9.090
27049WAT     H281390   9.031   1.564   8.934
27050WAT      O81391   2.602   8.184   4.776
27050WAT     H181392   2.647   8.095   4.769
27050WAT     H281393   2.635   8.244   4.704
27051WAT      O81394   7.353   7.937   4.526
27051WAT     H181395   7.401   7.983   4.451
27051WAT     H281396   7.254   7.944   4.512
27052WAT      O81397   9.024   5.262   8.948
27052WAT     H181398   9.051   5.243   8.854
27052WAT     H281399   8.956   5.335   8.950
27053WAT      O81400   9.819   4.504   2.493
27053WAT     H181401   9.884   4.507   2.417
27053WAT     H281402   9.828   4.586   2.549
27054WAT      O81403   5.501   6.476   0.521
27054WAT     H181404   5.589   6.430   0.532
27054WAT     H281405   5.503   6.564   0.569
27055WAT      O81406   5.036   6.911   6.090
27055WAT     H181407   4.976   6.974   6.140
27055WAT     H281408   5.129   6.947   6.091
27056WAT      O81409   0.204   8.227   5.000
27056WAT     H181410   0.230   8.284   4.922
27056WAT     H281411   0.242   8.135   4.988
27057WAT      O81412   4.130   5.050   8.982
27057WAT     H181413   4.203   4.992   9.018
27057WAT     H281414   4.153   5.080   8.890
27058WAT      O81415   5.941   2.087   6.045
27058WAT     H181416   6.019   2.024   6.044
27058WAT     H281417   5.966   2.170   6.095
27059WAT      O81418   5.641   5.360   9.737
27059WAT     H181419   5.698   5.313   9.806
27059WAT     H281420   5.684   5.352   9.647
27060WAT      O81421   2.981   5.013   8.807
27060WAT     H181422   3.004   4.915   8.805
27060WAT     H281423   2.882   5.024   8.815
27061WAT      O81424   8.141   3.837   4.610
27061WAT     H181425   8.200   3.824   4.530
27061WAT     H281426   8.120   3.934   4.620
27062WAT      O81427   0.873   6.518   9.033
27062WAT     H181428   0.969   6.524   9.061
27062WAT     H281429   0.815   6.515   9.114
27063WAT      O81430   3.630   7.915   0.615
27063WAT     H181431   3.604   7.896   0.710
27063WAT     H281432   3.685   7.839   0.580
27064WAT      O81433   4.020   5.196   5.314
27064WAT     H181434   4.114   5.164   5.298
27064WAT     H281435   3.963   5.119   5.342
27065WAT      O81436   2.565   6.132   8.289
27065WAT     H181437   2.633   6.204   8.300
27065WAT     H281438   2.474   6.169   8.309
27066WAT      O81439   1.349   8.779   6.108
27066WAT     H181440   1.404   8.760   6.027
27066WAT     H281441   1.386   8.858   6.156
27067WAT      O81442   6.853   2.563   7.933
27067WAT     H181443   6.854   2.658   7.963
27067WAT     H281444   6.810   2.506   8.003
27068WAT      O81445   1.817   0.896   2.626
27068WAT     H181446   1.798   0.799   2.608
27068WAT     H281447   1.887   0.904   2.696
27069WAT      O81448   8.090   1.414   6.786
27069WAT     H181449   8.058   1.389   6.694
27069WAT     H281450   8.111   1.511   6.788
27070WAT      O81451   2.183   3.831   4.377
27070WAT     H181452   2.115   3.825   4.304
27070WAT     H281453   2.223   3.741   4.393
27071WAT      O81454   5.525   0.136   6.708
27071WAT     H181455   5.463   0.195   6.760
27071WAT     H281456   5.512   0.041   6.737
27072WAT      O81457   5.495   0.805   7.185
27072WAT     H181458   5.449   0.829   7.271
27072WAT     H281459   5.486   0.880   7.120
27073WAT      O81460   7.547   4.383   6.012
27073WAT     H181461   7.589   4.306   6.060
27073WAT     H281462   7.598   4.402   5.928
27074WAT      O81463   0.501   0.999   1.094
27074WAT     H181464   0.423   1.017   1.034
27074WAT     H281465   0.586   1.008   1.042
27075WAT      O81466   4.461   8.499   1.825
27075WAT     H181467   4.497   8.588   1.853
27075WAT     H281468   4.526   8.427   1.851
27076WAT      O81469   0.142   7.557   8.645
27076WAT     H181470   0.134   7.625   8.572
27076WAT     H281471   0.093   7.589   8.726
27077WAT      O81472   8.727   0.600   7.753
27077WAT     H181473   8.695   0.544   7.677
27077WAT     H281474   8.820   0.632   7.734
27078WAT      O81475   1.270   6.488   3.880
27078WAT     H181476   1.174   6.465   3.863
27078WAT     H281477   1.278   6.586   3.898
27079WAT      O81478   9.393   9.123   6.007
27079WAT     H181479   9.294   9.126   5.990
27079WAT     H281480   9.440   9.102   5.921
27080WAT      O81481   2.358   2.510   7.285
27080WAT     H181482   2.367   2.411   7.278
27080WAT     H281483   2.348   2.537   7.381
27081WAT      O81484   4.988   4.805   3.392
27081WAT     H181485   4.911   4.856   3.356
27081WAT     H281486   5.071   4.861   3.387
27082WAT      O81487   5.887   2.064   6.410
27082WAT     H181488   5.919   1.970   6.398
27082WAT     H281489   5.912   2.118   6.331
27083WAT      O81490   3.820   7.624   8.473
27083WAT     H181491   3.866   7.584   8.394
27083WAT     H281492   3.747   7.562   8.503
27084WAT      O81493   7.371   5.403   8.115
27084WAT     H181494   7.470   5.410   8.104
27084WAT     H281495   7.327   5.428   8.029
27085WAT      O81496   7.040   7.389   8.819
27085WAT     H181497   7.083   7.424   8.903
27085WAT     H281498   7.054   7.290   8.814
27086WAT      O81499   2.857   8.519   3.601
27086WAT     H181500   2.812   8.560   3.522
27086WAT     H281501   2.841   8.575   3.682
27087WAT      O81502   2.800   6.275   1.169
27087WAT     H181503   2.793   6.252   1.266
27087WAT     H281504   2.742   6.354   1.148
27088WAT      O81505   6.581   4.669   4.666
27088WAT     H181506   6.572   4.573   4.690
27088WAT     H281507   6.561   4.682   4.569
27089WAT      O81508   3.215   7.995   9.794
27089WAT     H181509   3.261   7.974   9.881
27089WAT     H281510   3.126   8.034   9.813
27090WAT      O81511   6.779   5.538   3.959
27090WAT     H181512   6.730   5.503   3.879
27090WAT     H281513   6.791   5.637   3.949
27091WAT      O81514   1.447   3.089   9.095
27091WAT     H181515   1.505   3.054   9.022
27091WAT     H281516   1.469   3.185   9.112
27092WAT      O81517   0.598   7.572   0.111
27092WAT     H181518   0.634   7.611   0.195
27092WAT     H281519   0.500   7.593   0.104
27093WAT      O81520   7.138   5.112   9.594
27093WAT     H181521   7.221   5.128   9.646
27093WAT     H281522   7.063   5.165   9.635
27094WAT      O81523   8.490   1.039   7.649
27094WAT     H181524   8.504   1.043   7.748
27094WAT     H281525   8.579   1.036   7.603
27095WAT      O81526   3.906   7.347   2.172
27095WAT     H181527   3.874   7.387   2.258
27095WAT     H281528   3.895   7.248   2.175
27096WAT      O81529   9.328   2.486   5.329
27096WAT     H181530   9.285   2.559   5.381
27096WAT     H281531   9.257   2.425   5.292
27097WAT      O81532   3.404   2.053   0.674
27097WAT     H181533   3.399   2.152   0.683
27097WAT     H281534   3.338   2.021   0.607
27098WAT      O81535   7.734   2.056   2.513
27098WAT     H181536   7.780   1.967   2.510
27098WAT     H281537   7.678   2.068   2.431
27099WAT      O81538   2.813   6.078   6.749
27099WAT     H181539   2.871   5.998   6.730
27099WAT     H281540   2.787   6.078   6.845
27100WAT      O81541   4.108   8.612   4.914
27100WAT     H181542   4.042   8.548   4.954
27100WAT     H281543   4.126   8.587   4.819
27101WAT      O81544   5.620   1.090   2.906
27101WAT     H181545   5.569   1.068   2.989
27101WAT     H281546   5.628   1.009   2.849
27102WAT      O81547   8.103   2.009   0.806
27102WAT     H181548   8.192   1.965   0.793
27102WAT     H281549   8.032   1.955   0.761
27103WAT      O81550   5.463   4.842   4.064
27103WAT     H181551   5.480   4.912   4.134
27103WAT     H281552   5.468   4.884   3.974
27104WAT      O81553   8.233   8.453   7.765
27104WAT     H181554   8.220   8.358   7.794
27104WAT     H281555   8.326   8.465   7.731
27105WAT      O81556   6.101   4.721   1.547
27105WAT     H181557   6.091   4.649   1.478
27105WAT     H281558   6.022   4.782   1.543
27106WAT      O81559   4.925   8.030   6.685
27106WAT     H181560   4.860   8.074   6.747
27106WAT     H281561   4.991   8.098   6.653
27107WAT      O81562   9.860   9.367   8.236
27107WAT     H181563   9.847   9.268   8.247
27107WAT     H281564   9.848   9.412   8.324
27108WAT      O81565   1.674   6.765   1.204
27108WAT     H181566   1.669   6.864   1.190
27108WAT     H281567   1.583   6.724   1.189
27109WAT      O81568   8.670   6.469   5.578
27109WAT     H181569   8.599   6.533   5.607
27109WAT     H281570   8.655   6.381   5.622
27110WAT      O81571   2.786   3.505   6.541
27110WAT     H181572   2.763   3.563   6.620
27110WAT     H281573   2.745   3.543   6.459
27111WAT      O81574   5.535   3.994   8.169
27111WAT     H181575   5.518   3.936   8.089
27111WAT     H281576   5.512   3.944   8.252
27112WAT      O81577   8.421   7.204   9.787
27112WAT     H181578   8.467   7.164   9.866
27112WAT     H281579   8.370   7.133   9.738
27113WAT      O81580   3.856   1.729   6.284
27113WAT     H181581   3.944   1.683   6.299
27113WAT     H281582   3.840   1.738   6.185
27114WAT      O81583   0.722   1.159   2.237
27114WAT     H181584   0.650   1.162   2.168
27114WAT     H281585   0.718   1.072   2.286
27115WAT      O81586   3.276   6.038   2.682
27115WAT     H181587   3.312   6.110   2.741
27115WAT     H281588   3.350   5.975   2.657
27116WAT      O81589   9.133   7.539   3.156
27116WAT     H181590   9.113   7.636   3.143
27116WAT     H281591   9.209   7.528   3.219
27117WAT      O81592   6.424   3.734   5.020
27117WAT     H181593   6.349   3.680   5.057
27117WAT     H281594   6.453   3.695   4.933
27118WAT      O81595   7.408   7.190   7.529
27118WAT     H181596   7.467   7.270   7.528
27118WAT     H281597   7.325   7.210   7.581
27119WAT      O81598   8.018   9.166   6.249
27119WAT     H181599   7.965   9.251   6.257
27119WAT     H281600   8.080   9.172   6.171
27120WAT      O81601   2.705   6.469   3.584
27120WAT     H181602   2.636   6.430   3.645
27120WAT     H281603   2.668   6.550   3.539
27121WAT      O81604   7.131   8.048   8.733
27121WAT     H181605   7.220   8.007   8.748
27121WAT     H281606   7.060   7.978   8.740
27122WAT      O81607   9.164   1.004   4.664
27122WAT     H181608   9.117   1.091   4.647
27122WAT     H281609   9.106   0.946   4.721
27123WAT      O81610   0.288   1.367   8.264
27123WAT     H181611   0.281   1.338   8.169
27123WAT     H281612   0.290   1.467   8.269
27124WAT      O81613   0.425   0.052   4.939
27124WAT     H181614   0.464   0.016   5.024
27124WAT     H281615   0.334   0.013   4.925
27125WAT      O81616   2.774   8.268   6.820
27125WAT     H181617   2.741   8.292   6.911
27125WAT     H281618   2.720   8.316   6.751
27126WAT      O81619   5.371   7.177   3.179
27126WAT     H181620   5.408   7.248   3.240
27126WAT     H281621   5.446   7.140   3.124
27127WAT      O81622   5.433   8.508   0.338
27127WAT     H181623   5.375   8.490   0.258
27127WAT     H281624   5.477   8.423   0.367
27128WAT      O81625   5.247   0.796   6.708
27128WAT     H181626   5.326   0.840   6.666
27128WAT     H281627   5.163   0.836   6.673
27129WAT      O81628   6.511   8.512   9.176
27129WAT     H181629   6.567   8.433   9.151
27129WAT     H281630   6.537   8.590   9.119
27130WAT      O81631   7.174   1.663   4.848
27130WAT     H181632   7.122   1.698   4.769
27130WAT     H281633   7.188   1.565   4.838
27131WAT      O81634   8.117   2.115   8.387
27131WAT     H181635   8.194   2.179   8.384
27131WAT     H281636   8.110   2.067   8.300
27132WAT      O81637   2.871   4.789   0.652
27132WAT     H181638   2.786   4.767   0.700
27132WAT     H281639   2.946   4.735   0.690
27133WAT      O81640   9.296   6.348   5.813
27133WAT     H181641   9.295   6.309   5.721
27133WAT     H281642   9.321   6.278   5.880
27134WAT      O81643   3.556   0.843   4.412
27134WAT     H181644   3.537   0.806   4.503
27134WAT     H281645   3.578   0.941   4.420
27135WAT      O81646   6.629   9.747   8.998
27135WAT     H181647   6.562   9.819   8.980
27135WAT     H281648   6.691   9.776   9.071
27136WAT      O81649   7.908   4.889   6.491
27136WAT     H181650   7.944   4.815   6.547
27136WAT     H281651   7.853   4.850   6.417
27137WAT      O81652   8.447   7.398   1.551
27137WAT     H181653   8.485   7.441   1.633
27137WAT     H281654   8.479   7.304   1.545
27138WAT      O81655   6.385   3.495   3.835
27138WAT     H181656   6.336   3.441   3.903
27138WAT     H281657   6.483   3.487   3.851
27139WAT      O81658   8.042   0.651   0.445
27139WAT     H181659   8.040   0.553   0.462
27139WAT     H281660   8.053   0.700   0.532
27140WAT      O81661   4.272   8.620   6.888
27140WAT     H181662   4.204   8.613   6.961
27140WAT     H281663   4.350   8.674   6.920
27141WAT      O81664   3.285   7.539   1.874
27141WAT     H181665   3.244   7.601   1.941
27141WAT     H281666   3.219   7.522   1.801
27142WAT      O81667   4.643   5.612   7.303
27142WAT     H181668   4.555   5.660   7.309
27142WAT     H281669   4.645   5.558   7.219
27143WAT      O81670   2.063   6.114   0.486
27143WAT     H181671   1.971   6.077   0.481
27143WAT     H281672   2.107   6.083   0.570
27144WAT      O81673   9.471   1.729   6.002
27144WAT     H181674   9.504   1.822   6.017
27144WAT     H281675   9.547   1.664   6.010
27145WAT      O81676   4.082   3.205   2.274
27145WAT     H181677   3.983   3.218   2.277
27145WAT     H281678   4.114   3.173   2.363
27146WAT      O81679   4.603   9.701   9.308
27146WAT     H181680   4.635   9.613   9.345
27146WAT     H281681   4.503   9.702   9.306
27147WAT      O81682   0.616   8.591   6.454
27147WAT     H181683   0.679   8.638   6.392
27147WAT     H281684   0.582   8.656   6.522
27148WAT      O81685   0.641   2.684   2.221
27148WAT     H181686   0.632   2.593   2.180
27148WAT     H281687   0.662   2.674   2.319
27149WAT      O81688   5.391   7.099   3.848
27149WAT     H181689   5.482   7.057   3.843
27149WAT     H281690   5.323   7.031   3.873
27150WAT      O81691   5.918   3.783   0.321
27150WAT     H181692   5.849   3.712   0.321
27150WAT     H281693   5.874   3.873   0.322
27151WAT      O81694   4.752   7.931   2.080
27151WAT     H181695   4.659   7.963   2.062
27151WAT     H281696   4.777   7.861   2.013
27152WAT      O81697   2.975   9.550   7.496
27152WAT     H181698   3.043   9.487   7.458
27152WAT     H281699   2.926   9.505   7.570
27153WAT      O81700   3.772   1.887   0.619
27153WAT     H181701   3.696   1.821   0.615
27153WAT     H281702   3.767   1.948   0.540
27154WAT      O81703   9.234   9.119   8.008
27154WAT     H181704   9.277   9.108   8.098
27154WAT     H281705   9.298   9.163   7.946
27155WAT      O81706   2.231   6.775   1.788
27155WAT     H181707   2.303   6.834   1.752
27155WAT     H281708   2.174   6.828   1.852
27156WAT      O81709   0.745   6.907   1.499
27156WAT     H181710   0.765   6.926   1.595
27156WAT     H281711   0.822   6.937   1.442
27157WAT      O81712   8.531   8.028   1.199
27157WAT     H181713   8.602   7.959   1.182
27157WAT     H281714   8.445   7.996   1.160
27158WAT      O81715   2.612   5.145   4.367
27158WAT     H181716   2.572   5.157   4.458
27158WAT     H281717   2.614   5.234   4.320
27159WAT      O81718   1.474   9.130   0.762
27159WAT     H181719   1.535   9.074   0.818
27159WAT     H281720   1.498   9.119   0.666
27160WAT      O81721   9.091   3.045   3.562
27160WAT     H181722   9.040   3.083   3.639
27160WAT     H281723   9.095   3.111   3.488
27161WAT      O81724   8.408   7.027   7.811
27161WAT     H181725   8.474   7.092   7.849
27161WAT     H281726   8.393   7.046   7.715
27162WAT      O81727   2.161   3.424   0.367
27162WAT     H181728   2.166   3.400   0.464
27162WAT     H281729   2.253   3.423   0.328
27163WAT      O81730   5.651   8.111   8.896
27163WAT     H181731   5.680   8.054   8.973
27163WAT     H281732   5.552   8.118   8.894
27164WAT      O81733   4.122   8.421   5.515
27164WAT     H181734   4.145   8.437   5.611
27164WAT     H281735   4.206   8.424   5.460
27165WAT      O81736   7.802   6.537   4.904
27165WAT     H181737   7.831   6.508   4.813
27165WAT     H281738   7.872   6.597   4.943
27166WAT      O81739   5.434   2.437   5.428
27166WAT     H181740   5.359   2.415   5.491
27166WAT     H281741   5.519   2.401   5.465
27167WAT      O81742   6.870   0.069   6.078
27167WAT     H181743   6.921   0.003   6.022
27167WAT     H281744   6.794   0.106   6.025
27168WAT      O81745   3.646   6.118   5.137
27168WAT     H181746   3.589   6.172   5.075
27168WAT     H281747   3.742   6.129   5.112
27169WAT      O81748   8.088   9.800   7.323
27169WAT     H181749   8.051   9.750   7.246
27169WAT     H281750   8.177   9.762   7.348
27170WAT      O81751   1.614   5.601   0.556
27170WAT     H181752   1.544   5.532   0.534
27170WAT     H281753   1.569   5.683   0.591
27171WAT      O81754   7.785   9.401   6.867
27171WAT     H181755   7.764   9.484   6.917
27171WAT     H281756   7.882   9.379   6.878
27172WAT      O81757   5.794   6.409   9.008
27172WAT     H181758   5.742   6.330   8.976
27172WAT     H281759   5.891   6.385   9.014
27173WAT      O81760   6.877   5.753   9.831
27173WAT     H181761   6.922   5.700   9.760
27173WAT     H281762   6.778   5.754   9.815
27174WAT      O81763   2.807   1.814   0.456
27174WAT     H181764   2.885   1.754   0.474
27174WAT     H281765   2.733   1.762   0.413
27175WAT      O81766   0.492   4.608   4.592
27175WAT     H181767   0.438   4.687   4.564
27175WAT     H281768   0.454   4.526   4.551
27176WAT      O81769   2.601   9.072   0.510
27176WAT     H181770   2.567   9.116   0.593
27176WAT     H281771   2.700   9.079   0.507
27177WAT      O81772   6.230   1.396   1.113
27177WAT     H181773   6.314   1.397   1.058
27177WAT     H281774   6.184   1.484   1.103
27178WAT      O81775   8.629   2.558   8.186
27178WAT     H181776   8.671   2.598   8.268
27178WAT     H281777   8.555   2.618   8.154
27179WAT      O81778   6.519   7.686   1.217
27179WAT     H181779   6.501   7.624   1.141
27179WAT     H281780   6.614   7.679   1.245
27180WAT      O81781   4.327   2.041   3.819
27180WAT     H181782   4.378   1.995   3.746
27180WAT     H281783   4.235   2.061   3.787
27181WAT      O81784   4.035   0.036   0.971
27181WAT     H181785   3.994   0.068   1.057
27181WAT     H281786   4.064  -0.059   0.981
27182WAT      O81787   9.855   0.183   4.700
27182WAT     H181788   9.846   0.095   4.747
27182WAT     H281789   9.801   0.252   4.747
27183WAT      O81790   5.834   4.992   2.843
27183WAT     H181791   5.778   5.075   2.838
27183WAT     H281792   5.912   5.000   2.781
27184WAT      O81793   9.361   2.001   0.059
27184WAT     H181794   9.329   1.908   0.039
27184WAT     H281795   9.431   1.998   0.129
27185WAT      O81796   9.802   7.260   1.940
27185WAT     H181797   9.731   7.295   1.881
27185WAT     H281798   9.789   7.161   1.954
27186WAT      O81799   0.886   7.915   8.433
27186WAT     H181800   0.968   7.906   8.375
27186WAT     H281801   0.909   7.969   8.514
27187WAT      O81802   9.601   6.181   8.716
27187WAT     H181803   9.589   6.275   8.682
27187WAT     H281804   9.541   6.120   8.665
27188WAT      O81805   4.804   5.650   8.519
27188WAT     H181806   4.738   5.589   8.564
27188WAT     H281807   4.821   5.619   8.426
27189WAT      O81808   4.348   5.533   1.242
27189WAT     H181809   4.250   5.551   1.246
27189WAT     H281810   4.373   5.467   1.313
27190WAT      O81811   9.346   5.210   4.792
27190WAT     H181812   9.391   5.144   4.853
27190WAT     H281813   9.409   5.285   4.773
27191WAT      O81814   0.503   3.223   2.313
27191WAT     H181815   0.552   3.213   2.400
27191WAT     H281816   0.543   3.297   2.260
27192WAT      O81817   4.693   0.284   8.362
27192WAT     H181818   4.739   0.372   8.345
27192WAT     H281819   4.604   0.301   8.405
27193WAT      O81820   2.480   0.548   5.158
27193WAT     H181821   2.564   0.496   5.144
27193WAT     H281822   2.403   0.496   5.122
27194WAT      O81823   8.813   7.678   2.084
27194WAT     H181824   8.844   7.609   2.149
27194WAT     H281825   8.826   7.769   2.122
27195WAT      O81826   7.072   4.694   4.364
27195WAT     H181827   7.080   4.788   4.330
27195WAT     H281828   7.072   4.631   4.287
27196WAT      O81829   1.336   0.197   6.779
27196WAT     H181830   1.354   0.217   6.875
27196WAT     H281831   1.342   0.098   6.764
27197WAT      O81832   6.008   9.328   5.044
27197WAT     H181833   6.079   9.274   5.088
27197WAT     H281834   5.920   9.280   5.050
27198WAT      O81835   6.740   9.212   4.954
27198WAT     H181836   6.676   9.235   4.881
27198WAT     H281837   6.800   9.290   4.971
27199WAT      O81838   5.463   2.712   9.529
27199WAT     H181839   5.435   2.809   9.526
27199WAT     H281840   5.382   2.655   9.516
27200WAT      O81841   2.138   6.942   2.861
27200WAT     H181842   2.175   6.876   2.927
27200WAT     H281843   2.212   6.974   2.802
27201WAT      O81844   6.011   9.534   6.374
27201WAT     H181845   5.952   9.554   6.296
27201WAT     H281846   5.961   9.553   6.459
27202WAT      O81847   9.684   2.053   8.840
27202WAT     H181848   9.649   1.961   8.859
27202WAT     H281849   9.628   2.096   8.770
27203WAT      O81850   9.662   2.003   1.109
27203WAT     H181851   9.669   1.949   1.025
27203WAT     H281852   9.753   2.031   1.138
27204WAT      O81853   2.823   4.879   6.439
27204WAT     H181854   2.766   4.946   6.391
27204WAT     H281855   2.852   4.917   6.527
27205WAT      O81856   3.878   8.372   9.803
27205WAT     H181857   3.916   8.350   9.893
27205WAT     H281858   3.953   8.393   9.740
27206WAT      O81859   0.035   2.541   7.358
27206WAT     H181860   0.017   2.468   7.292
27206WAT     H281861  -0.047   2.597   7.370
27207WAT      O81862   5.818   0.461   7.104
27207WAT     H181863   5.883   0.537   7.095
27207WAT     H281864   5.801   0.420   7.014
27208WAT      O81865   5.042   2.585   1.233
27208WAT     H181866   5.102   2.663   1.216
27208WAT     H281867   4.948   2.618   1.242
27209WAT      O81868   0.712   9.155   5.077
27209WAT     H181869   0.670   9.135   4.988
27209WAT     H281870   0.643   9.143   5.149
27210WAT      O81871   2.430   7.658   7.801
27210WAT     H181872   2.437   7.739   7.859
27210WAT     H281873   2.505   7.659   7.734
27211WAT      O81874   5.694   4.276   5.058
27211WAT     H181875   5.733   4.279   5.150
27211WAT     H281876   5.615   4.337   5.054
27212WAT      O81877   6.517   4.684   0.643
27212WAT     H181878   6.576   4.648   0.716
27212WAT     H281879   6.539   4.638   0.557
27213WAT      O81880   6.643   4.558   5.085
27213WAT     H181881   6.701   4.532   5.162
27213WAT     H281882   6.625   4.478   5.029
27214WAT      O81883   9.042   8.445   0.136
27214WAT     H181884   8.961   8.466   0.082
27214WAT     H281885   9.036   8.490   0.225
27215WAT      O81886   0.338   9.272   0.440
27215WAT     H181887   0.334   9.197   0.375
27215WAT     H281888   0.430   9.312   0.440
27216WAT      O81889   3.857   1.181   6.878
27216WAT     H181890   3.794   1.227   6.941
27216WAT     H281891   3.806   1.114   6.823
27217WAT      O81892   3.472   0.173   2.262
27217WAT     H181893   3.504   0.097   2.206
27217WAT     H281894   3.407   0.140   2.330
27218WAT      O81895   1.292   0.989   7.595
27218WAT     H181896   1.307   1.002   7.497
27218WAT     H281897   1.380   0.976   7.640
27219WAT      O81898   1.946   8.764   2.743
27219WAT     H181899   1.955   8.750   2.842
27219WAT     H281900   2.022   8.821   2.710
27220WAT      O81901   9.519   8.614   8.176
27220WAT     H181902   9.513   8.617   8.076
27220WAT     H281903   9.607   8.575   8.202
27221WAT      O81904   5.888   2.435   3.037
27221WAT     H181905   5.974   2.416   3.084
27221WAT     H281906   5.822   2.471   3.102
27222WAT      O81907   4.032   3.819   7.389
27222WAT     H181908   4.009   3.916   7.400
27222WAT     H281909   4.001   3.788   7.299
27223WAT      O81910   8.046   1.027   3.334
27223WAT     H181911   8.121   1.027   3.268
27223WAT     H281912   8.082   1.018   3.426
27224WAT      O81913   0.927   9.758   6.795
27224WAT     H181914   0.829   9.735   6.791
27224WAT     H281915   0.981   9.674   6.790
27225WAT      O81916   2.596   7.880   2.497
27225WAT     H181917   2.579   7.783   2.515
27225WAT     H281918   2.664   7.890   2.425
27226WAT      O81919   8.779   0.667   4.209
27226WAT     H181920   8.851   0.736   4.209
27226WAT     H281921   8.755   0.644   4.303
27227WAT      O81922   7.136   0.272   0.938
27227WAT     H181923   7.172   0.226   0.856
27227WAT     H281924   7.096   0.359   0.912
27228WAT      O81925   8.346   6.833   5.379
27228WAT     H181926   8.328   6.802   5.472
27228WAT     H281927   8.417   6.776   5.338
27229WAT      O81928   5.574   5.865   2.433
27229WAT     H181929   5.628   5.783   2.454
27229WAT     H281930   5.507   5.843   2.362
27230WAT      O81931   0.546   0.560   8.530
27230WAT     H181932   0.539   0.512   8.443
27230WAT     H281933   0.554   0.494   8.605
27231WAT      O81934   3.016   5.799   3.896
27231WAT     H181935   3.039   5.869   3.828
27231WAT     H281936   2.976   5.720   3.850
27232WAT      O81937   2.645   3.788   0.541
27232WAT     H181938   2.622   3.796   0.444
27232WAT     H281939   2.683   3.875   0.574
27233WAT      O81940   2.546   3.226   6.918
27233WAT     H181941   2.582   3.177   6.998
27233WAT     H281942   2.617   3.232   6.848
27234WAT      O81943   9.719   5.873   4.484
27234WAT     H181944   9.712   5.964   4.526
27234WAT     H281945   9.652   5.812   4.526
27235WAT      O81946   0.920   1.241   2.446
27235WAT     H181947   0.904   1.335   2.477
27235WAT     H281948   0.844   1.212   2.389
27236WAT      O81949   8.702   1.930   6.858
27236WAT     H181950   8.701   1.878   6.773
27236WAT     H281951   8.607   1.949   6.887
27237WAT      O81952   5.050   0.518   3.764
27237WAT     H181953   5.081   0.472   3.847
27237WAT     H281954   4.991   0.595   3.788
27238WAT      O81955   0.328   1.451   2.723
27238WAT     H181956   0.404   1.393   2.691
27238WAT     H281957   0.361   1.514   2.793
27239WAT      O81958   7.364   9.283   2.551
27239WAT     H181959   7.361   9.381   2.530
27239WAT     H281960   7.456   9.248   2.534
27240WAT      O81961   2.720   8.235   9.017
27240WAT     H181962   2.653   8.305   8.992
27240WAT     H281963   2.700   8.202   9.109
27241WAT      O81964   4.408   1.460   6.187
27241WAT     H181965   4.389   1.506   6.100
27241WAT     H281966   4.423   1.362   6.170
27242WAT      O81967   3.296   7.196   1.048
27242WAT     H181968   3.296   7.129   1.122
27242WAT     H281969   3.228   7.169   0.979
27243WAT      O81970   0.184   4.970   5.977
27243WAT     H181971   0.114   4.910   6.015
27243WAT     H281972   0.275   4.937   6.003
27244WAT      O81973   3.491   5.823   4.495
27244WAT     H181974   3.557   5.897   4.506
27244WAT     H281975   3.441   5.835   4.410
27245WAT      O81976   2.812   7.594   0.228
27245WAT     H181977   2.778   7.671   0.174
27245WAT     H281978   2.827   7.625   0.322
27246WAT      O81979   6.530   3.384   8.570
27246WAT     H181980   6.551   3.466   8.623
27246WAT     H281981   6.455   3.334   8.614
27247WAT      O81982   6.550   1.891   9.199
27247WAT     H181983   6.642   1.907   9.162
27247WAT     H281984   6.490   1.965   9.168
27248WAT      O81985   5.266   1.519   1.393
27248WAT     H181986   5.206   1.439   1.396
27248WAT     H281987   5.240   1.583   1.465
27249WAT      O81988   5.237   1.912   1.373
27249WAT     H181989   5.327   1.953   1.385
27249WAT     H281990   5.217   1.852   1.451
27250WAT      O81991   0.432   9.067   7.355
27250WAT     H181992   0.426   8.997   7.426
27250WAT     H281993   0.357   9.055   7.291
27251WAT      O81994   2.149   1.940   7.988
27251WAT     H181995   2.124   1.851   7.951
27251WAT     H281996   2.248   1.947   7.997
27252WAT      O81997   3.131   0.520   4.777
27252WAT     H181998   3.055   0.546   4.718
27252WAT     H281999   3.209   0.580   4.758
27253WAT      O82000   5.164   3.304   0.787
27253WAT     H182001   5.245   3.346   0.828
27253WAT     H282002   5.082   3.336   0.834
27254WAT      O82003   0.994   3.115   9.536
27254WAT     H182004   0.947   3.078   9.616
27254WAT     H282005   0.995   3.045   9.464
27255WAT      O82006   0.308   6.933   5.340
27255WAT     H182007   0.340   7.024   5.366
27255WAT     H282008   0.211   6.924   5.361
27256WAT      O82009   6.914   5.952   8.477
27256WAT     H182010   6.914   6.046   8.512
27256WAT     H282011   6.922   5.954   8.377
27257WAT      O82012   5.341   5.252   3.222
27257WAT     H182013   5.410   5.180   3.226
27257WAT     H282014   5.373   5.326   3.163
27258WAT      O82015   1.455   2.206   5.556
27258WAT     H182016   1.513   2.269   5.609
27258WAT     H282017   1.380   2.174   5.613
27259WAT      O82018   0.473   2.000   3.970
27259WAT     H182019   0.445   1.939   3.895
27259WAT     H282020   0.409   2.076   3.977
27260WAT      O82021   7.391   6.701   6.329
27260WAT     H182022   7.410   6.622   6.271
27260WAT     H282023   7.327   6.675   6.401
27261WAT      O82024   9.116   2.706   7.431
27261WAT     H182025   9.101   2.639   7.358
27261WAT     H282026   9.118   2.660   7.519
27262WAT      O82027   8.978   5.687   8.162
27262WAT     H182028   9.067   5.654   8.191
27262WAT     H282029   8.943   5.753   8.228
27263WAT      O82030   3.350   3.767   1.885
27263WAT     H182031   3.424   3.700   1.881
27263WAT     H282032   3.379   3.845   1.941
27264WAT      O82033   6.410   5.880   4.115
27264WAT     H182034   6.454   5.950   4.170
27264WAT     H282035   6.319   5.910   4.089
27265WAT      O82036   8.136   1.318   1.157
27265WAT     H182037   8.159   1.366   1.241
27265WAT     H282038   8.219   1.307   1.101
27266WAT      O82039   0.608   5.218   9.519
27266WAT     H182040   0.654   5.161   9.451
27266WAT     H282041   0.633   5.187   9.611
27267WAT      O82042   6.253   0.659   7.307
27267WAT     H182043   6.238   0.685   7.211
27267WAT     H282044   6.180   0.597   7.336
27268WAT      O82045   2.099   9.498   1.422
27268WAT     H182046   2.194   9.479   1.448
27268WAT     H282047   2.048   9.412   1.417
27269WAT      O82048   5.858   2.973   3.921
27269WAT     H182049   5.916   2.980   4.003
27269WAT     H282050   5.891   3.036   3.851
27270WAT      O82051   7.207   5.119   2.689
27270WAT     H182052   7.218   5.218   2.696
27270WAT     H282053   7.234   5.089   2.597
27271WAT      O82054   8.778   6.061   0.088
27271WAT     H182055   8.692   6.107   0.115
27271WAT     H282056   8.775   6.039  -0.009
27272WAT      O82057   9.291   7.980   8.247
27272WAT     H182058   9.264   7.885   8.260
27272WAT     H282059   9.217   8.030   8.203
27273WAT      O82060   1.837   6.660   5.600
27273WAT     H182061   1.869   6.598   5.672
27273WAT     H282062   1.911   6.722   5.574
27274WAT      O82063   4.457   4.965   4.906
27274WAT     H182064   4.428   5.010   4.990
27274WAT     H282065   4.459   5.031   4.831
27275WAT      O82066   0.841   9.665   4.265
27275WAT     H182067   0.825   9.637   4.359
27275WAT     H282068   0.785   9.745   4.244
27276WAT      O82069   3.019   5.477   5.977
27276WAT     H182070   2.936   5.518   6.016
27276WAT     H282071   2.994   5.393   5.929
27277WAT      O82072   0.456   6.343   8.182
27277WAT     H182073   0.361   6.315   8.197
27277WAT     H282074   0.518   6.278   8.226
27278WAT      O82075   1.461   8.545   7.200
27278WAT     H182076   1.535   8.513   7.259
27278WAT     H282077   1.467   8.500   7.111
27279WAT      O82078   6.744   5.084   8.300
27279WAT     H182079   6.805   5.160   8.318
27279WAT     H282080   6.670   5.083   8.367
27280WAT      O82081   6.026   3.218   0.905
27280WAT     H182082   5.963   3.143   0.882
27280WAT     H282083   6.114   3.179   0.934
27281WAT      O82084   9.493   0.660   7.841
27281WAT     H182085   9.580   0.705   7.824
27281WAT     H282086   9.482   0.583   7.779
27282WAT      O82087   7.465   6.374   8.639
27282WAT     H182088   7.390   6.400   8.700
27282WAT     H282089   7.545   6.348   8.693
27283WAT      O82090   3.980   0.336   6.683
27283WAT     H182091   3.884   0.361   6.697
27283WAT     H282092   3.989   0.278   6.603
27284WAT      O82093   4.650   4.631   3.486
27284WAT     H182094   4.746   4.605   3.497
27284WAT     H282095   4.594   4.548   3.479
27285WAT      O82096   9.740   8.147   6.994
27285WAT     H182097   9.651   8.193   6.988
27285WAT     H282098   9.729   8.050   6.973
27286WAT      O82099   5.820   6.269   5.044
27286WAT     H182100   5.763   6.232   5.117
27286WAT     H282101   5.878   6.342   5.080
27287WAT      O82102   2.327   3.069   8.384
27287WAT     H182103   2.337   2.974   8.412
27287WAT     H282104   2.417   3.114   8.385
27288WAT      O82105   0.523   9.206   9.224
27288WAT     H182106   0.484   9.272   9.160
27288WAT     H282107   0.514   9.242   9.317
27289WAT      O82108   6.079   8.724   0.472
27289WAT     H182109   6.050   8.758   0.383
27289WAT     H282110   6.155   8.780   0.507
27290WAT      O82111   5.195   9.569   6.987
27290WAT     H182112   5.174   9.606   6.896
27290WAT     H282113   5.252   9.635   7.037
27291WAT      O82114   7.987   8.833   1.964
27291WAT     H182115   7.905   8.841   1.907
27291WAT     H282116   7.959   8.821   2.060
27292WAT      O82117   1.219   3.311   9.263
27292WAT     H182118   1.202   3.242   9.193
27292WAT     H282119   1.309   3.352   9.250
27293WAT      O82120   5.697   7.434   0.889
27293WAT     H182121   5.620   7.489   0.920
27293WAT     H282122   5.675   7.337   0.898
27294WAT      O82123   0.776   2.641   2.960
27294WAT     H182124   0.869   2.643   2.995
27294WAT     H282125   0.712   2.663   3.033
27295WAT      O82126   8.372   2.576   8.763
27295WAT     H182127   8.359   2.521   8.846
27295WAT     H282128   8.411   2.664   8.787
27296WAT      O82129   7.374   2.374   1.368
27296WAT     H182130   7.351   2.317   1.289
27296WAT     H282131   7.290   2.414   1.405
27297WAT      O82132   0.710   1.500   7.667
27297WAT     H182133   0.800   1.467   7.697
27297WAT     H282134   0.643   1.483   7.740
27298WAT      O82135   9.622   3.341   0.783
27298WAT     H182136   9.556   3.336   0.858
27298WAT     H282137   9.621   3.433   0.744
27299WAT      O82138   0.978   5.390   8.624
27299WAT     H182139   0.977   5.325   8.700
27299WAT     H282140   0.888   5.432   8.615
27300WAT      O82141   0.546   2.345   4.443
27300WAT     H182142   0.570   2.250   4.465
27300WAT     H282143   0.490   2.348   4.361
27301WAT      O82144   1.439   5.750   2.785
27301WAT     H182145   1.496   5.709   2.714
27301WAT     H282146   1.358   5.693   2.801
27302WAT      O82147   5.925   4.795   0.708
27302WAT     H182148   5.882   4.878   0.743
27302WAT     H282149   6.022   4.794   0.732
27303WAT      O82150   5.379   4.044   8.608
27303WAT     H182151   5.352   4.139   8.624
27303WAT     H282152   5.450   4.018   8.673
27304WAT      O82153   2.861   2.976   9.285
27304WAT     H182154   2.898   2.883   9.281
27304WAT     H282155   2.763   2.974   9.268
27305WAT      O82156   9.136   1.455   8.543
27305WAT     H182157   9.129   1.388   8.618
27305WAT     H282158   9.101   1.415   8.459
27306WAT      O82159   5.898   7.207   9.576
27306WAT     H182160   5.832   7.278   9.601
27306WAT     H282161   5.902   7.138   9.648
27307WAT      O82162   8.121   6.874   7.020
27307WAT     H182163   8.099   6.971   7.017
27307WAT     H282164   8.148   6.843   6.929
27308WAT      O82165   4.250   5.694   9.059
27308WAT     H182166   4.227   5.611   9.009
27308WAT     H282167   4.256   5.771   8.995
27309WAT      O82168   5.979   8.067   7.752
27309WAT     H182169   5.910   8.094   7.819
27309WAT     H282170   6.019   7.980   7.780
27310WAT      O82171   2.578   2.751   8.427
27310WAT     H182172   2.565   2.659   8.390
27310WAT     H282173   2.530   2.759   8.514
27311WAT      O82174   4.021   2.220   6.746
27311WAT     H182175   4.075   2.298   6.777
27311WAT     H282176   4.072   2.172   6.674
27312WAT      O82177   7.492   6.105   6.860
27312WAT     H182178   7.528   6.162   6.786
27312WAT     H282179   7.450   6.164   6.930
27313WAT      O82180   9.147   9.292   2.869
27313WAT     H182181   9.081   9.232   2.915
27313WAT     H282182   9.185   9.357   2.935
27314WAT      O82183   1.929   3.637   3.275
27314WAT     H182184   1.903   3.637   3.371
27314WAT     H282185   2.026   3.662   3.267
27315WAT      O82186   3.543   2.970   0.993
27315WAT     H182187   3.494   2.915   0.925
27315WAT     H282188   3.593   2.910   1.055
27316WAT      O82189   9.597   7.072   4.572
27316WAT     H182190   9.660   7.112   4.505
27316WAT     H282191   9.649   7.037   4.650
27317WAT      O82192   8.990   8.058   0.755
27317WAT     H182193   9.014   8.039   0.660
27317WAT     H282194   8.971   7.971   0.802
27318WAT      O82195   4.905   7.161   2.332
27318WAT     H182196   4.847   7.114   2.265
27318WAT     H282197   4.938   7.247   2.293
27319WAT      O82198   4.169   9.560   3.851
27319WAT     H182199   4.233   9.612   3.909
27319WAT     H282200   4.082   9.551   3.898
27320WAT      O82201   5.443   9.362   2.500
27320WAT     H182202   5.423   9.311   2.416
27320WAT     H282203   5.436   9.300   2.579
27321WAT      O82204   6.194   8.711   7.851
27321WAT     H182205   6.260   8.711   7.925
27321WAT     H282206   6.242   8.707   7.763
27322WAT      O82207   6.065   9.513   7.785
27322WAT     H182208   6.011   9.453   7.844
27322WAT     H282209   6.154   9.531   7.827
27323WAT      O82210   4.547   6.744   5.509
27323WAT     H182211   4.556   6.782   5.601
27323WAT     H282212   4.557   6.645   5.512
27324WAT      O82213   0.543   7.616   7.872
27324WAT     H182214   0.581   7.707   7.858
27324WAT     H282215   0.617   7.552   7.897
27325WAT      O82216   0.489   6.259   7.600
27325WAT     H182217   0.495   6.249   7.500
27325WAT     H282218   0.507   6.354   7.625
27326WAT      O82219   4.654   7.203   3.337
27326WAT     H182220   4.642   7.260   3.256
27326WAT     H282221   4.747   7.213   3.371
27327WAT      O82222   0.213   0.328   2.026
27327WAT     H182223   0.221   0.264   2.102
27327WAT     H282224   0.118   0.329   1.993
27328WAT      O82225   6.342   1.271   6.146
27328WAT     H182226   6.362   1.194   6.207
27328WAT     H282227   6.418   1.282   6.082
27329WAT      O82228   1.616   1.191   9.862
27329WAT     H182229   1.556   1.208   9.784
27329WAT     H282230   1.574   1.124   9.923
27330WAT      O82231   8.071   2.568   6.937
27330WAT     H182232   8.113   2.649   6.977
27330WAT     H282233   8.080   2.572   6.837
27331WAT      O82234   4.175   0.653   5.691
27331WAT     H182235   4.135   0.736   5.731
27331WAT     H282236   4.268   0.673   5.659
27332WAT      O82237   9.633   8.097   8.607
27332WAT     H182238   9.681   8.009   8.613
27332WAT     H282239   9.539   8.081   8.579
27333WAT      O82240   3.522   8.017   5.681
27333WAT     H182241   3.536   8.016   5.780
27333WAT     H282242   3.437   7.968   5.659
27334WAT      O82243   1.496   3.715   2.829
27334WAT     H182244   1.505   3.781   2.904
27334WAT     H282245   1.498   3.762   2.741
27335WAT      O82246   1.129   1.557   9.172
27335WAT     H182247   1.142   1.655   9.162
27335WAT     H282248   1.211   1.516   9.211
27336WAT      O82249   3.029   2.358   9.528
27336WAT     H182250   2.985   2.341   9.440
27336WAT     H282251   3.099   2.429   9.516
27337WAT      O82252   6.751   4.206   6.222
27337WAT     H182253   6.836   4.185   6.272
27337WAT     H282254   6.674   4.203   6.286
27338WAT      O82255   0.656   3.127   5.433
27338WAT     H182256   0.620   3.219   5.415
27338WAT     H282257   0.755   3.131   5.439
27339WAT      O82258   4.622   9.721   0.364
27339WAT     H182259   4.626   9.805   0.309
27339WAT     H282260   4.570   9.739   0.448
27340WAT      O82261   4.078   2.993   1.505
27340WAT     H182262   4.154   3.030   1.452
27340WAT     H282263   4.007   2.959   1.444
27341WAT      O82264   8.318   8.560   7.364
27341WAT     H182265   8.228   8.520   7.383
27341WAT     H282266   8.347   8.614   7.443
27342WAT      O82267   6.505   4.567   5.892
27342WAT     H182268   6.440   4.602   5.824
27342WAT     H282269   6.455   4.531   5.971
27343WAT      O82270   3.274   8.137   3.595
27343WAT     H182271   3.331   8.154   3.675
27343WAT     H282272   3.331   8.131   3.513
27344WAT      O82273   0.877   6.456   0.438
27344WAT     H182274   0.948   6.454   0.368
27344WAT     H282275   0.831   6.368   0.442
27345WAT      O82276   7.246   7.139   5.403
27345WAT     H182277   7.249   7.148   5.503
27345WAT     H282278   7.173   7.075   5.378
27346WAT      O82279   3.061   8.855   5.453
27346WAT     H182280   3.131   8.828   5.519
27346WAT     H282281   3.058   8.789   5.379
27347WAT      O82282   9.124   8.783   3.957
27347WAT     H182283   9.134   8.759   3.861
27347WAT     H282284   9.140   8.702   4.014
27348WAT      O82285   5.038   2.730   9.761
27348WAT     H182286   5.032   2.823   9.796
27348WAT     H282287   5.113   2.682   9.807
27349WAT      O82288   5.077   0.402   4.864
27349WAT     H182289   5.017   0.393   4.785
27349WAT     H282290   5.166   0.361   4.844
27350WAT      O82291   3.619   1.647   0.666
27350WAT     H182292   3.661   1.589   0.736
27350WAT     H282293   3.522   1.658   0.685
27351WAT      O82294   5.908   8.559   4.348
27351WAT     H182295   5.874   8.483   4.293
27351WAT     H282296   5.839   8.632   4.350
27352WAT      O82297   0.155   6.521   0.413
27352WAT     H182298   0.166   6.576   0.330
27352WAT     H282299   0.242   6.515   0.461
27353WAT      O82300   5.443   2.804   0.140
27353WAT     H182301   5.369   2.868   0.118
27353WAT     H282302   5.531   2.848   0.124
27354WAT      O82303   4.054   7.701   4.524
27354WAT     H182304   4.146   7.731   4.551
27354WAT     H282305   4.060   7.647   4.439
27355WAT      O82306   0.659   4.473   3.844
27355WAT     H182307   0.756   4.456   3.862
27355WAT     H282308   0.612   4.386   3.829
27356WAT      O82309   6.048   0.054   0.960
27356WAT     H182310   6.018   0.149   0.973
27356WAT     H282311   6.023   0.024   0.868
27357WAT      O82312   2.421   6.246   3.375
27357WAT     H182313   2.356   6.291   3.437
27357WAT     H282314   2.375   6.223   3.289
27358WAT      O82315   1.364   6.146   4.966
27358WAT     H182316   1.299   6.080   4.928
27358WAT     H282317   1.343   6.237   4.931
27359WAT      O82318   6.388   7.375   1.499
27359WAT     H182319   6.336   7.448   1.545
27359WAT     H282320   6.379   7.290   1.552
27360WAT      O82321   1.584   6.996   5.011
27360WAT     H182322   1.644   6.928   4.969
27360WAT     H282323   1.529   6.953   5.082
27361WAT      O82324   8.445   1.157   7.144
27361WAT     H182325   8.459   1.059   7.128
27361WAT     H282326   8.470   1.208   7.062
27362WAT      O82327   2.040   8.166   8.371
27362WAT     H182328   1.995   8.133   8.288
27362WAT     H282329   2.096   8.246   8.349
27363WAT      O82330   2.080   7.292   3.213
27363WAT     H182331   2.030   7.296   3.299
27363WAT     H282332   2.033   7.348   3.145
27364WAT      O82333   2.173   8.733   1.211
27364WAT     H182334   2.153   8.664   1.281
27364WAT     H282335   2.150   8.824   1.246
27365WAT      O82336   6.816   9.335   7.134
27365WAT     H182337   6.852   9.427   7.124
27365WAT     H282338   6.753   9.315   7.059
27366WAT      O82339   3.555   0.315   0.974
27366WAT     H182340   3.458   0.290   0.981
27366WAT     H282341   3.597   0.308   1.064
27367WAT      O82342   2.529   6.772   8.990
27367WAT     H182343   2.568   6.819   8.912
27367WAT     H282344   2.602   6.731   9.045
27368WAT      O82345   8.529   5.362   4.276
27368WAT     H182346   8.508   5.457   4.251
27368WAT     H282347   8.582   5.362   4.361
27369WAT      O82348   0.996   9.317   8.191
27369WAT     H182349   1.080   9.310   8.244
27369WAT     H282350   0.919   9.284   8.245
27370WAT      O82351   4.938   8.254   2.784
27370WAT     H182352   4.968   8.201   2.863
27370WAT     H282353   4.839   8.246   2.774
27371WAT      O82354   9.791   6.873   0.138
27371WAT     H182355   9.827   6.860   0.230
27371WAT     H282356   9.714   6.812   0.122
27372WAT      O82357   6.772   0.760   7.623
27372WAT     H182358   6.723   0.770   7.536
27372WAT     H282359   6.816   0.847   7.645
27373WAT      O82360   9.529   0.709   3.916
27373WAT     H182361   9.580   0.749   3.992
27373WAT     H282362   9.443   0.758   3.905
27374WAT      O82363   8.614   9.376   5.900
27374WAT     H182364   8.517   9.353   5.904
27374WAT     H282365   8.669   9.293   5.913
27375WAT      O82366   9.486   7.999   4.733
27375WAT     H182367   9.438   8.034   4.814
27375WAT     H282368   9.585   7.999   4.750
27376WAT      O82369   1.941   1.143   1.695
27376WAT     H182370   1.916   1.132   1.791
27376WAT     H282371   2.002   1.069   1.667
27377WAT      O82372   6.860   3.402   3.013
27377WAT     H182373   6.825   3.314   3.043
27377WAT     H282374   6.959   3.405   3.027
27378WAT      O82375   2.126   8.259   7.326
27378WAT     H182376   2.133   8.173   7.377
27378WAT     H282377   2.031   8.275   7.301
27379WAT      O82378   8.643   7.251   9.636
27379WAT     H182379   8.678   7.335   9.679
27379WAT     H282380   8.550   7.233   9.670
27380WAT      O82381   1.124   2.221   7.986
27380WAT     H182382   1.100   2.127   7.961
27380WAT     H282383   1.216   2.242   7.953
27381WAT      O82384   3.631   1.883   5.393
27381WAT     H182385   3.656   1.793   5.429
27381WAT     H282386   3.665   1.954   5.454
27382WAT      O82387   8.409   4.389   8.172
27382WAT     H182388   8.320   4.405   8.213
27382WAT     H282389   8.480   4.395   8.242
27383WAT      O82390   2.372   6.760   9.644
27383WAT     H182391   2.367   6.807   9.556
27383WAT     H282392   2.461   6.716   9.654
27384WAT      O82393   4.716   8.963   9.270
27384WAT     H182394   4.725   9.012   9.357
27384WAT     H282395   4.735   9.024   9.194
27385WAT      O82396   0.299   9.612   7.041
27385WAT     H182397   0.233   9.657   7.101
27385WAT     H282398   0.262   9.606   6.948
27386WAT      O82399   8.479   4.976   5.178
27386WAT     H182400   8.465   4.955   5.081
27386WAT     H282401   8.566   5.025   5.189
27387WAT      O82402   8.491   7.320   7.437
27387WAT     H182403   8.575   7.355   7.480
27387WAT     H282404   8.507   7.227   7.404
27388WAT      O82405   8.336   4.236   0.202
27388WAT     H182406   8.355   4.197   0.292
27388WAT     H282407   8.238   4.230   0.182
27389WAT      O82408   3.223   1.998   1.087
27389WAT     H182409   3.254   2.017   1.181
27389WAT     H282410   3.125   1.978   1.088
27390WAT      O82411   5.525   8.713   3.736
27390WAT     H182412   5.510   8.657   3.817
27390WAT     H282413   5.604   8.773   3.751
27391WAT      O82414   2.224   0.100   7.148
27391WAT     H182415   2.182   0.095   7.058
27391WAT     H282416   2.273   0.015   7.167
27392WAT      O82417   6.610   0.426   5.949
27392WAT     H182418   6.572   0.462   5.863
27392WAT     H282419   6.614   0.326   5.944
27393WAT      O82420   0.119   4.042   2.860
27393WAT     H182421   0.132   4.067   2.956
27393WAT     H282422   0.119   3.942   2.852
27394WAT      O82423   6.298   2.580   7.281
27394WAT     H182424   6.387   2.626   7.287
27394WAT     H282425   6.294   2.527   7.197
27395WAT      O82426   2.331   0.477   4.019
27395WAT     H182427   2.428   0.472   4.039
27395WAT     H282428   2.284   0.399   4.059
27396WAT      O82429   1.071   8.426   0.934
27396WAT     H182430   1.169   8.437   0.952
27396WAT     H282431   1.032   8.364   1.002
27397WAT      O82432   5.385   6.879   2.020
27397WAT     H182433   5.438   6.798   2.046
27397WAT     H282434   5.306   6.889   2.082
27398WAT      O82435   1.030   9.744   1.085
27398WAT     H182436   1.089   9.803   1.028
27398WAT     H282437   0.971   9.802   1.142
27399WAT      O82438   9.575   0.513   0.572
27399WAT     H182439   9.632   0.576   0.520
27399WAT     H282440   9.578   0.537   0.669
27400WAT      O82441   3.742   0.777   3.131
27400WAT     H182442   3.643   0.777   3.146
27400WAT     H282443   3.765   0.839   3.056
27401WAT      O82444   7.936   0.766   3.486
27401WAT     H182445   7.871   0.832   3.447
27401WAT     H282446   8.024   0.810   3.500
27402WAT      O82447   1.511   8.632   6.493
27402WAT     H182448   1.604   8.638   6.530
27402WAT     H282449   1.474   8.724   6.480
27403WAT      O82450   0.504   1.032   9.597
27403WAT     H182451   0.587   1.088   9.600
27403WAT     H282452   0.430   1.085   9.556
27404WAT      O82453   6.038   6.109   6.316
27404WAT     H182454   6.083   6.123   6.404
27404WAT     H282455   6.098   6.056   6.256
27405WAT      O82456   1.321   0.740   5.734
27405WAT     H182457   1.314   0.772   5.828
27405WAT     H282458   1.289   0.811   5.671
27406WAT      O82459   4.714   6.646   3.511
27406WAT     H182460   4.683   6.692   3.594
27406WAT     H282461   4.755   6.714   3.449
27407WAT      O82462   7.526   8.672   8.186
27407WAT     H182463   7.589   8.737   8.229
27407WAT     H282464   7.577   8.608   8.129
27408WAT      O82465   8.386   4.977   0.621
27408WAT     H182466   8.477   4.951   0.653
27408WAT     H282467   8.317   4.940   0.683
27409WAT      O82468   0.843   8.566   1.396
27409WAT     H182469   0.872   8.583   1.302
27409WAT     H282470   0.825   8.653   1.442
27410WAT      O82471   7.016   3.448   1.830
27410WAT     H182472   7.093   3.414   1.777
27410WAT     H282473   7.006   3.394   1.914
27411WAT      O82474   0.498   2.825   0.438
27411WAT     H182475   0.418   2.884   0.451
27411WAT     H282476   0.577   2.882   0.416
27412WAT      O82477   8.844   8.578   9.876
27412WAT     H182478   8.881   8.660   9.830
27412WAT     H282479   8.792   8.606   9.956
27413WAT      O82480   5.387   9.376   7.094
27413WAT     H182481   5.397   9.440   7.170
27413WAT     H282482   5.292   9.376   7.062
27414WAT      O82483   0.432   8.440   0.593
27414WAT     H182484   0.370   8.494   0.650
27414WAT     H282485   0.526   8.459   0.618
27415WAT      O82486   1.232   8.763   4.117
27415WAT     H182487   1.303   8.802   4.176
27415WAT     H282488   1.205   8.673   4.151
27416WAT      O82489   1.895   5.858   8.018
27416WAT     H182490   1.825   5.903   7.962
27416WAT     H282491   1.920   5.918   8.094
27417WAT      O82492   0.641   6.558   0.640
27417WAT     H182493   0.682   6.635   0.590
27417WAT     H282494   0.668   6.563   0.736
27418WAT      O82495   0.727   6.220   6.023
27418WAT     H182496   0.814   6.222   5.975
27418WAT     H282497   0.714   6.306   6.073
27419WAT      O82498   5.971   5.129   7.145
27419WAT     H182499   5.992   5.222   7.116
27419WAT     H282500   5.998   5.117   7.240
27420WAT      O82501   4.104   4.497   6.545
27420WAT     H182502   4.026   4.482   6.484
27420WAT     H282503   4.167   4.562   6.503
27421WAT      O82504   9.354   8.204   5.980
27421WAT     H182505   9.431   8.145   6.003
27421WAT     H282506   9.268   8.157   6.002
27422WAT      O82507   3.466   3.423   2.444
27422WAT     H182508   3.400   3.428   2.520
27422WAT     H282509   3.443   3.493   2.377
27423WAT      O82510   4.400   1.160   5.217
27423WAT     H182511   4.446   1.161   5.129
27423WAT     H282512   4.301   1.160   5.203
27424WAT      O82513   5.221   8.528   7.897
27424WAT     H182514   5.213   8.431   7.874
27424WAT     H282515   5.132   8.572   7.889
27425WAT      O82516   6.663   8.143   9.429
27425WAT     H182517   6.755   8.144   9.468
27425WAT     H282518   6.596   8.168   9.499
27426WAT      O82519   8.385   7.607   0.594
27426WAT     H182520   8.449   7.606   0.518
27426WAT     H282521   8.328   7.525   0.591
27427WAT      O82522   0.688   2.765   2.746
27427WAT     H182523   0.609   2.822   2.769
27427WAT     H282524   0.713   2.710   2.827
27428WAT      O82525   6.619   7.522   2.118
27428WAT     H182526   6.682   7.445   2.127
27428WAT     H282527   6.579   7.543   2.207
27429WAT      O82528   8.998   2.527   1.912
27429WAT     H182529   8.985   2.611   1.963
27429WAT     H282530   9.079   2.479   1.945
27430WAT      O82531   7.310   9.486   2.053
27430WAT     H182532   7.397   9.446   2.084
27430WAT     H282533   7.279   9.438   1.971
27431WAT      O82534   6.688   9.001   8.130
27431WAT     H182535   6.679   9.090   8.175
27431WAT     H282536   6.710   8.931   8.199
27432WAT      O82537   8.831   0.202   8.685
27432WAT     H182538   8.735   0.182   8.706
27432WAT     H282539   8.890   0.135   8.730
27433WAT      O82540   8.913   6.748   8.290
27433WAT     H182541   8.869   6.787   8.371
27433WAT     H282542   8.864   6.665   8.261
27434WAT      O82543   8.177   1.661   6.835
27434WAT     H182544   8.267   1.652   6.793
27434WAT     H282545   8.181   1.729   6.909
27435WAT      O82546   6.809   4.655   9.256
27435WAT     H182547   6.789   4.753   9.250
27435WAT     H282548   6.724   4.605   9.276
27436WAT      O82549   6.955   3.387   9.167
27436WAT     H182550   6.916   3.359   9.079
27436WAT     H282551   6.884   3.386   9.237
27437WAT      O82552   3.214   3.491   3.386
27437WAT     H182553   3.154   3.412   3.370
27437WAT     H282554   3.209   3.517   3.483
27438WAT      O82555   6.803   4.391   7.565
27438WAT     H182556   6.777   4.434   7.651
27438WAT     H282557   6.755   4.435   7.489
27439WAT      O82558   1.578   6.517   1.981
27439WAT     H182559   1.652   6.452   1.964
27439WAT     H282560   1.598   6.602   1.932
27440WAT      O82561   0.804   3.067   7.274
27440WAT     H182562   0.712   3.072   7.314
27440WAT     H282563   0.799   3.078   7.175
27441WAT      O82564   2.751   4.992   8.570
27441WAT     H182565   2.836   4.982   8.518
27441WAT     H282566   2.720   5.087   8.563
27442WAT      O82567   0.362   8.756   2.999
27442WAT     H182568   0.389   8.839   2.950
27442WAT     H282569   0.264   8.758   3.019
27443WAT      O82570   7.707   2.837   8.206
27443WAT     H182571   7.727   2.794   8.295
27443WAT     H282572   7.775   2.806   8.139
27444WAT      O82573   3.084   2.843   4.233
27444WAT     H182574   3.063   2.879   4.323
27444WAT     H282575   3.014   2.872   4.168
27445WAT      O82576   2.890   7.452   5.347
27445WAT     H182577   2.982   7.485   5.324
27445WAT     H282578   2.864   7.488   5.437
27446WAT      O82579   8.238   1.080   6.765
27446WAT     H182580   8.175   1.087   6.841
27446WAT     H282581   8.235   1.163   6.710
27447WAT      O82582   6.639   8.953   4.967
27447WAT     H182583   6.606   8.918   4.880
27447WAT     H282584   6.682   9.042   4.953
27448WAT      O82585   5.213   6.365   7.552
27448WAT     H182586   5.155   6.409   7.483
27448WAT     H282587   5.218   6.267   7.535
27449WAT      O82588   6.791   0.592   0.841
27449WAT     H182589   6.732   0.667   0.810
27449WAT     H282590   6.742   0.537   0.910
27450WAT      O82591   9.260   8.352   7.702
27450WAT     H182592   9.173   8.304   7.714
27450WAT     H282593   9.274   8.374   7.605
27451WAT      O82594   8.165   4.063   4.074
27451WAT     H182595   8.134   4.014   4.155
27451WAT     H282596   8.262   4.088   4.084
27452WAT      O82597   0.641   2.129   0.997
27452WAT     H182598   0.682   2.148   0.907
27452WAT     H282599   0.555   2.081   0.984
27453WAT      O82600   5.926   2.684   8.230
27453WAT     H182601   5.905   2.688   8.132
27453WAT     H282602   5.842   2.701   8.282
27454WAT      O82603   5.008   4.289   0.342
27454WAT     H182604   5.078   4.358   0.359
27454WAT     H282605   4.953   4.276   0.424
27455WAT      O82606   4.152   9.056   5.280
27455WAT     H182607   4.068   9.014   5.313
27455WAT     H282608   4.162   9.038   5.182
27456WAT      O82609   9.632   2.321   1.442
27456WAT     H182610   9.730   2.342   1.443
27456WAT     H282611   9.617   2.237   1.389
27457WAT      O82612   7.873   6.227   0.103
27457WAT     H182613   7.939   6.288   0.145
27457WAT     H282614   7.873   6.139   0.151
27458WAT      O82615   4.919   1.811   2.290
27458WAT     H182616   4.963   1.731   2.249
27458WAT     H282617   4.841   1.781   2.345
27459WAT      O82618   4.653   0.359   6.262
27459WAT     H182619   4.680   0.265   6.242
27459WAT     H282620   4.568   0.359   6.314
27460WAT      O82621   0.791   3.754   6.799
27460WAT     H182622   0.837   3.675   6.759
27460WAT     H282623   0.758   3.731   6.891
27461WAT      O82624   3.916   2.332   1.767
27461WAT     H182625   3.915   2.264   1.841
27461WAT     H282626   3.913   2.285   1.679
27462WAT      O82627   2.195   9.451   7.833
27462WAT     H182628   2.116   9.391   7.824
27462WAT     H282629   2.165   9.541   7.864
27463WAT      O82630   9.642   8.305   1.970
27463WAT     H182631   9.671   8.303   2.066
27463WAT     H282632   9.652   8.214   1.930
27464WAT      O82633   7.542   5.504   4.462
27464WAT     H182634   7.628   5.456   4.479
27464WAT     H282635   7.527   5.513   4.364
27465WAT      O82636   4.183   2.467   4.760
27465WAT     H182637   4.226   2.388   4.803
27465WAT     H282638   4.246   2.544   4.759
27466WAT      O82639   9.597   8.723   1.487
27466WAT     H182640   9.684   8.675   1.494
27466WAT     H282641   9.522   8.660   1.508
27467WAT      O82642   1.998   9.370   5.014
27467WAT     H182643   1.930   9.440   5.037
27467WAT     H282644   1.958   9.304   4.951
27468WAT      O82645   4.717   7.942   4.438
27468WAT     H182646   4.783   7.905   4.373
27468WAT     H282647   4.765   7.998   4.506
27469WAT      O82648   0.927   2.296   0.064
27469WAT     H182649   1.009   2.288   0.008
27469WAT     H282650   0.851   2.332   0.009
27470WAT      O82651   7.619   6.808   5.895
27470WAT     H182652   7.663   6.744   5.958
27470WAT     H282653   7.540   6.850   5.940
27471WAT      O82654   7.066   1.444   2.082
27471WAT     H182655   7.095   1.539   2.079
27471WAT     H282656   7.122   1.394   2.148
27472WAT      O82657   2.686   0.927   6.113
27472WAT     H182658   2.783   0.904   6.106
27472WAT     H282659   2.644   0.921   6.022
27473WAT      O82660   6.222   3.920   7.892
27473WAT     H182661   6.137   3.882   7.929
27473WAT     H282662   6.225   4.018   7.907
27474WAT      O82663   3.943   0.041   3.113
27474WAT     H182664   3.933   0.092   3.199
27474WAT     H282665   4.040   0.035   3.090
27475WAT      O82666   0.609   9.548   0.180
27475WAT     H182667   0.662   9.605   0.116
27475WAT     H282668   0.615   9.588   0.271
27476WAT      O82669   7.581   0.220   2.675
27476WAT     H182670   7.664   0.231   2.621
27476WAT     H282671   7.595   0.149   2.744
27477WAT      O82672   9.610   0.078   9.771
27477WAT     H182673   9.518   0.043   9.790
27477WAT     H282674   9.635   0.146   9.839
27478WAT      O82675   6.463   1.984   4.584
27478WAT     H182676   6.415   2.070   4.570
27478WAT     H282677   6.446   1.922   4.508
27479WAT      O82678   6.610   5.189   2.167
27479WAT     H182679   6.621   5.090   2.159
27479WAT     H282680   6.608   5.215   2.263
27480WAT      O82681   2.761   5.631   3.419
27480WAT     H182682   2.806   5.687   3.350
27480WAT     H282683   2.807   5.542   3.424
27481WAT      O82684   2.942   6.454   9.175
27481WAT     H182685   2.909   6.498   9.259
27481WAT     H282686   2.906   6.361   9.170
27482WAT      O82687   0.042   4.685   8.037
27482WAT     H182688   0.060   4.632   7.954
27482WAT     H282689  -0.044   4.654   8.078
27483WAT      O82690   2.063   0.412   6.430
27483WAT     H182691   2.111   0.325   6.441
27483WAT     H282692   2.101   0.480   6.494
27484WAT      O82693   2.604   6.391   1.600
27484WAT     H182694   2.583   6.336   1.681
27484WAT     H282695   2.681   6.452   1.620
27485WAT      O82696   7.204   5.512   4.404
27485WAT     H182697   7.160   5.566   4.476
27485WAT     H282698   7.181   5.416   4.417
27486WAT      O82699   1.025   4.193   6.820
27486WAT     H182700   1.070   4.122   6.874
27486WAT     H282701   1.019   4.277   6.874
27487WAT      O82702   6.420   2.320   5.909
27487WAT     H182703   6.429   2.419   5.918
27487WAT     H282704   6.380   2.282   5.993
27488WAT      O82705   9.448   4.783   2.850
27488WAT     H182706   9.501   4.793   2.765
27488WAT     H282707   9.509   4.796   2.928
27489WAT      O82708   5.776   5.335   9.509
27489WAT     H182709   5.785   5.253   9.454
27489WAT     H282710   5.791   5.416   9.452
27490WAT      O82711   2.202   1.177   0.489
27490WAT     H182712   2.137   1.166   0.413
27490WAT     H282713   2.234   1.087   0.518
27491WAT      O82714   9.616   8.819   5.157
27491WAT     H182715   9.536   8.797   5.214
27491WAT     H282716   9.608   8.914   5.125
27492WAT      O82717   4.067   1.819   9.893
27492WAT     H182718   4.123   1.893   9.854
27492WAT     H282719   4.111   1.731   9.877
27493WAT      O82720   4.280   8.194   9.308
27493WAT     H182721   4.368   8.231   9.337
27493WAT     H282722   4.221   8.184   9.388
27494WAT      O82723   9.579   3.856   9.087
27494WAT     H182724   9.579   3.837   9.185
27494WAT     H282725   9.620   3.780   9.037
27495WAT      O82726   5.123   4.523   5.607
27495WAT     H182727   5.151   4.579   5.686
27495WAT     H282728   5.109   4.428   5.637
27496WAT      O82729   8.096   8.877   5.589
27496WAT     H182730   8.030   8.812   5.552
27496WAT     H282731   8.177   8.879   5.531
27497WAT      O82732   8.480   3.792   7.603
27497WAT     H182733   8.383   3.772   7.588
27497WAT     H282734   8.536   3.714   7.574
27498WAT      O82735   6.915   1.413   9.818
27498WAT     H182736   6.837   1.355   9.795
27498WAT     H282737   6.914   1.432   9.916
27499WAT      O82738   2.676   4.867   5.599
27499WAT     H182739   2.720   4.820   5.675
27499WAT     H282740   2.735   4.863   5.518
27500WAT      O82741   8.259   4.461   1.843
27500WAT     H182742   8.255   4.530   1.771
27500WAT     H282743   8.177   4.467   1.900
27501WAT      O82744   1.045   0.549   1.964
27501WAT     H182745   1.141   0.575   1.954
27501WAT     H282746   1.004   0.598   2.041
27502WAT      O82747   5.095   4.988   2.092
27502WAT     H182748   5.007   5.027   2.066
27502WAT     H282749   5.165   5.059   2.089
27503WAT      O82750   0.727   9.077   7.943
27503WAT     H182751   0.809   9.124   7.911
27503WAT     H282752   0.750   9.018   8.020
27504WAT      O82753   7.743   2.844   7.526
27504WAT     H182754   7.795   2.918   7.567
27504WAT     H282755   7.797   2.802   7.453
27505WAT      O82756   9.107   0.956   8.394
27505WAT     H182757   9.033   0.989   8.453
27505WAT     H282758   9.069   0.931   8.304
27506WAT      O82759   8.670   2.225   1.413
27506WAT     H182760   8.578   2.194   1.387
27506WAT     H282761   8.736   2.153   1.392
27507WAT      O82762   3.203   5.425   2.662
27507WAT     H182763   3.296   5.460   2.646
27507WAT     H282764   3.160   5.405   2.575
27508WAT      O82765   0.725   3.303   4.828
27508WAT     H182766   0.815   3.343   4.812
27508WAT     H282767   0.696   3.253   4.746
27509WAT      O82768   1.721   7.422   8.029
27509WAT     H182769   1.791   7.419   7.958
27509WAT     H282770   1.640   7.469   7.994
27510WAT      O82771   2.006   0.481   7.985
27510WAT     H182772   2.042   0.560   8.035
27510WAT     H282773   2.079   0.416   7.967
27511WAT      O82774   5.254   6.089   2.949
27511WAT     H182775   5.217   6.035   3.024
27511WAT     H282776   5.262   6.032   2.867
27512WAT      O82777   8.833   1.452   7.634
27512WAT     H182778   8.868   1.526   7.577
27512WAT     H282779   8.891   1.371   7.624
27513WAT      O82780   7.786   6.158   2.318
27513WAT     H182781   7.763   6.176   2.414
27513WAT     H282782   7.885   6.170   2.305
27514WAT      O82783   6.761   4.803   2.708
27514WAT     H182784   6.676   4.770   2.750
27514WAT     H282785   6.810   4.725   2.668
27515WAT      O82786   0.297   2.591   3.357
27515WAT     H182787   0.248   2.672   3.324
27515WAT     H282788   0.331   2.538   3.280
27516WAT      O82789   3.161   6.602   0.295
27516WAT     H182790   3.067   6.630   0.277
27516WAT     H282791   3.207   6.582   0.208
27517WAT      O82792   8.718   4.223   9.047
27517WAT     H182793   8.764   4.162   8.983
27517WAT     H282794   8.619   4.206   9.045
27518WAT      O82795   7.700   1.157   3.610
27518WAT     H182796   7.689   1.245   3.564
27518WAT     H282797   7.695   1.171   3.709
27519WAT      O82798   5.978   6.320   0.043
27519WAT     H182799   5.892   6.323  -0.008
27519WAT     H282800   6.055   6.320  -0.021
27520WAT      O82801   1.042   9.257   4.685
27520WAT     H182802   1.009   9.226   4.774
27520WAT     H282803   0.967   9.255   4.619
27521WAT      O82804   7.698   4.483   9.504
27521WAT     H182805   7.665   4.458   9.595
27521WAT     H282806   7.678   4.409   9.440
27522WAT      O82807   5.757   0.733   9.600
27522WAT     H182808   5.823   0.720   9.526
27522WAT     H282809   5.802   0.778   9.677
27523WAT      O82810   3.832   2.774   0.780
27523WAT     H182811   3.750   2.721   0.803
27523WAT     H282812   3.861   2.828   0.859
27524WAT      O82813   1.568   9.216   6.171
27524WAT     H182814   1.660   9.255   6.160
27524WAT     H282815   1.504   9.290   6.194
27525WAT      O82816   0.681   8.653   1.731
27525WAT     H182817   0.769   8.694   1.709
27525WAT     H282818   0.689   8.554   1.732
27526WAT      O82819   6.833   6.343   1.712
27526WAT     H182820   6.840   6.274   1.784
27526WAT     H282821   6.743   6.385   1.714
27527WAT      O82822   5.196   1.248   6.134
27527WAT     H182823   5.262   1.193   6.186
27527WAT     H282824   5.243   1.299   6.063
27528WAT      O82825   8.429   4.281   1.603
27528WAT     H182826   8.444   4.222   1.682
27528WAT     H282827   8.462   4.235   1.520
27529WAT      O82828   6.995   5.608   8.377
27529WAT     H182829   7.051   5.679   8.420
27529WAT     H282830   6.962   5.545   8.447
27530WAT      O82831   1.269   5.885   2.599
27530WAT     H182832   1.219   5.971   2.610
27530WAT     H282833   1.248   5.823   2.675
27531WAT      O82834   1.833   9.060   7.407
27531WAT     H182835   1.734   9.052   7.391
27531WAT     H282836   1.872   8.969   7.418
27532WAT      O82837   9.237   5.197   4.090
27532WAT     H182838   9.258   5.101   4.077
27532WAT     H282839   9.304   5.238   4.152
27533WAT      O82840   6.271   0.229   1.542
27533WAT     H182841   6.350   0.290   1.544
27533WAT     H282842   6.188   0.282   1.556
27534WAT      O82843   9.442   0.918   6.020
27534WAT     H182844   9.362   0.969   6.052
27534WAT     H282845   9.480   0.864   6.095
27535WAT      O82846   4.570   8.140   4.814
27535WAT     H182847   4.507   8.104   4.746
27535WAT     H282848   4.656   8.088   4.812
27536WAT      O82849   0.757   9.249   8.345
27536WAT     H182850   0.740   9.245   8.443
27536WAT     H282851   0.680   9.291   8.298
27537WAT      O82852   0.712   8.348   5.451
27537WAT     H182853   0.625   8.360   5.403
27537WAT     H282854   0.707   8.266   5.507
27538WAT      O82855   5.169   6.117   3.398
27538WAT     H182856   5.207   6.031   3.432
27538WAT     H282857   5.240   6.188   3.402
27539WAT      O82858   2.489   2.446   7.069
27539WAT     H182859   2.444   2.495   7.143
27539WAT     H282860   2.421   2.414   7.003
27540WAT      O82861   0.389   8.702   8.265
27540WAT     H182862   0.290   8.692   8.251
27540WAT     H282863   0.406   8.745   8.353
27541WAT      O82864   1.829   2.779   6.584
27541WAT     H182865   1.911   2.807   6.632
27541WAT     H282866   1.818   2.680   6.590
27542WAT      O82867   5.717   2.544   1.661
27542WAT     H182868   5.700   2.461   1.716
27542WAT     H282869   5.728   2.622   1.722
27543WAT      O82870   1.884   6.480   4.115
27543WAT     H182871   1.893   6.397   4.060
27543WAT     H282872   1.907   6.560   4.060
27544WAT      O82873   5.352   1.032   1.938
27544WAT     H182874   5.369   1.129   1.955
27544WAT     H282875   5.263   1.007   1.978
27545WAT      O82876   0.594   9.334   0.446
27545WAT     H182877   0.649   9.352   0.364
27545WAT     H282878   0.643   9.365   0.527
27546WAT      O82879   6.274   5.384   8.802
27546WAT     H182880   6.295   5.287   8.811
27546WAT     H282881   6.176   5.396   8.791
27547WAT      O82882   3.050   1.583   4.913
27547WAT     H182883   3.078   1.602   4.819
27547WAT     H282884   3.126   1.603   4.975
27548WAT      O82885   3.710   2.319   5.421
27548WAT     H182886   3.619   2.322   5.462
27548WAT     H282887   3.701   2.313   5.321
27549WAT      O82888   7.183   5.325   0.673
27549WAT     H182889   7.189   5.408   0.617
27549WAT     H282890   7.215   5.344   0.766
27550WAT      O82891   2.256   3.674   2.455
27550WAT     H182892   2.316   3.686   2.376
27550WAT     H282893   2.212   3.585   2.451
27551WAT      O82894   4.521   1.879   8.147
27551WAT     H182895   4.603   1.827   8.125
27551WAT     H282896   4.441   1.820   8.138
27552WAT      O82897   1.477   5.082   3.568
27552WAT     H182898   1.571   5.086   3.535
27552WAT     H282899   1.415   5.080   3.489
27553WAT      O82900   2.608   3.430   7.159
27553WAT     H182901   2.621   3.383   7.071
27553WAT     H282902   2.577   3.524   7.141
27554WAT      O82903   4.243   5.729   2.204
27554WAT     H182904   4.184   5.662   2.250
27554WAT     H282905   4.321   5.750   2.262
27555WAT      O82906   7.709   0.235   6.236
27555WAT     H182907   7.647   0.157   6.232
27555WAT     H282908   7.712   0.280   6.147
27556WAT      O82909   0.522   3.498   7.440
27556WAT     H182910   0.521   3.495   7.540
27556WAT     H282911   0.479   3.584   7.410
27557WAT      O82912   6.213   0.727   1.781
27557WAT     H182913   6.156   0.808   1.795
27557WAT     H282914   6.292   0.751   1.724
27558WAT      O82915   3.412   7.234   5.454
27558WAT     H182916   3.497   7.182   5.442
27558WAT     H282917   3.432   7.321   5.500
27559WAT      O82918   7.494   7.817   0.936
27559WAT     H182919   7.447   7.846   1.020
27559WAT     H282920   7.426   7.791   0.867
27560WAT      O82921   0.450   5.282   5.447
27560WAT     H182922   0.402   5.307   5.531
27560WAT     H282923   0.462   5.183   5.443
27561WAT      O82924   3.140   5.640   9.719
27561WAT     H182925   3.240   5.635   9.708
27561WAT     H282926   3.096   5.583   9.650
27562WAT      O82927   1.998   5.913   1.657
27562WAT     H182928   1.914   5.930   1.606
27562WAT     H282929   1.988   5.944   1.751
27563WAT      O82930   1.770   1.127   3.914
27563WAT     H182931   1.825   1.178   3.979
27563WAT     H282932   1.829   1.079   3.849
27564WAT      O82933   8.804   7.423   8.590
27564WAT     H182934   8.754   7.496   8.635
27564WAT     H282935   8.889   7.406   8.639
27565WAT      O82936   2.423   3.451   5.940
27565WAT     H182937   2.433   3.354   5.919
27565WAT     H282938   2.350   3.490   5.884
27566WAT      O82939   9.104   3.482   2.119
27566WAT     H182940   9.087   3.580   2.128
27566WAT     H282941   9.069   3.450   2.031
27567WAT      O82942   2.677   0.986   7.004
27567WAT     H182943   2.680   0.890   6.975
27567WAT     H282944   2.609   1.036   6.951
27568WAT      O82945   8.303   9.721   8.960
27568WAT     H182946   8.223   9.772   8.928
27568WAT     H282947   8.276   9.660   9.034
27569WAT      O82948   0.613   7.322   0.009
27569WAT     H182949   0.699   7.276   0.030
27569WAT     H282950   0.610   7.411   0.054
27570WAT      O82951   5.313   1.434   8.318
27570WAT     H182952   5.309   1.408   8.222
27570WAT     H282953   5.407   1.463   8.341
27571WAT      O82954   2.183   7.596   5.386
27571WAT     H182955   2.129   7.626   5.307
27571WAT     H282956   2.278   7.623   5.374
27572WAT      O82957   2.934   9.164   3.355
27572WAT     H182958   2.940   9.134   3.450
27572WAT     H282959   2.998   9.239   3.339
27573WAT      O82960   8.453   4.525   3.632
27573WAT     H182961   8.429   4.453   3.568
27573WAT     H282962   8.446   4.491   3.726
27574WAT      O82963   2.924   1.022   1.813
27574WAT     H182964   2.991   1.059   1.878
27574WAT     H282965   2.832   1.036   1.849
27575WAT      O82966   0.994   8.083   4.121
27575WAT     H182967   0.931   8.057   4.049
27575WAT     H282968   1.048   8.163   4.092
27576WAT      O82969   6.284   7.799   4.288
27576WAT     H182970   6.263   7.861   4.364
27576WAT     H282971   6.343   7.725   4.321
27577WAT      O82972   9.682   1.895   7.495
27577WAT     H182973   9.686   1.818   7.558
27577WAT     H282974   9.595   1.893   7.445
27578WAT      O82975   7.845   7.210   2.241
27578WAT     H182976   7.926   7.154   2.224
27578WAT     H282977   7.841   7.236   2.337
27579WAT      O82978   8.595   3.683   5.497
27579WAT     H182979   8.589   3.618   5.422
27579WAT     H282980   8.680   3.668   5.548
27580WAT      O82981   2.083   3.561   9.639
27580WAT     H182982   2.142   3.616   9.580
27580WAT     H282983   2.045   3.618   9.712
27581WAT      O82984   6.592   1.560   2.378
27581WAT     H182985   6.642   1.619   2.314
27581WAT     H282986   6.654   1.491   2.414
27582WAT      O82987   6.449   1.059   5.717
27582WAT     H182988   6.504   0.981   5.748
27582WAT     H282989   6.357   1.051   5.754
27583WAT      O82990   9.661   9.625   1.186
27583WAT     H182991   9.587   9.636   1.121
27583WAT     H282992   9.637   9.671   1.272
27584WAT      O82993   3.612   0.266   1.717
27584WAT     H182994   3.587   0.272   1.621
27584WAT     H282995   3.544   0.314   1.773
27585WAT      O82996   1.743   5.591   6.471
27585WAT     H182997   1.834   5.563   6.501
27585WAT     H282998   1.702   5.651   6.540
27586WAT      O82999   8.521   1.323   9.173
27586WAT     H183000   8.485   1.328   9.080
27586WAT     H283001   8.614   1.288   9.171
27587WAT      O83002   6.831   3.642   1.243
27587WAT     H183003   6.757   3.612   1.183
27587WAT     H283004   6.804   3.725   1.291
27588WAT      O83005   8.310   3.784   9.093
27588WAT     H183006   8.231   3.815   9.041
27588WAT     H283007   8.338   3.854   9.158
27589WAT      O83008   6.116   3.048   6.238
27589WAT     H183009   6.120   2.971   6.174
27589WAT     H283010   6.080   3.128   6.191
27590WAT      O83011   2.902   2.574   0.058
27590WAT     H183012   2.904   2.476   0.078
27590WAT     H283013   2.928   2.626   0.140
27591WAT      O83014   0.732   0.957   5.859
27591WAT     H183015   0.771   0.907   5.937
27591WAT     H283016   0.633   0.965   5.870
27592WAT      O83017   5.446   7.664   5.997
27592WAT     H183018   5.546   7.666   5.989
27592WAT     H283019   5.413   7.755   6.021
27593WAT      O83020   1.653   8.060   0.981
27593WAT     H183021   1.613   7.975   1.017
27593WAT     H283022   1.738   8.038   0.932
27594WAT      O83023   2.827   7.623   8.026
27594WAT     H183024   2.820   7.526   8.004
27594WAT     H283025   2.905   7.663   7.977
27595WAT      O83026   9.014   7.365   7.684
27595WAT     H183027   8.965   7.339   7.601
27595WAT     H283028   9.080   7.294   7.707
27596WAT      O83029   3.874   8.362   6.062
27596WAT     H183030   3.879   8.419   6.144
27596WAT     H283031   3.917   8.273   6.081
27597WAT      O83032   9.495   0.456   1.270
27597WAT     H183033   9.541   0.535   1.231
27597WAT     H283034   9.490   0.383   1.202
27598WAT      O83035   0.827   2.838   7.796
27598WAT     H183036   0.878   2.791   7.869
27598WAT     H283037   0.761   2.901   7.837
27599WAT      O83038   4.283   9.719   7.055
27599WAT     H183039   4.365   9.701   7.108
27599WAT     H283040   4.284   9.664   6.971
27600WAT      O83041   0.418   7.224   8.806
27600WAT     H183042   0.466   7.308   8.832
27600WAT     H283043   0.413   7.218   8.706
27601WAT      O83044   6.956   6.346   6.232
27601WAT     H183045   6.954   6.259   6.183
27601WAT     H283046   6.965   6.329   6.331
27602WAT      O83047   0.668   8.187   4.982
27602WAT     H183048   0.767   8.184   4.974
27602WAT     H283049   0.641   8.264   5.041
27603WAT      O83050   1.166   4.442   0.717
27603WAT     H183051   1.122   4.357   0.748
27603WAT     H283052   1.211   4.486   0.794
27604WAT      O83053   4.167   8.729   2.086
27604WAT     H183054   4.193   8.693   1.996
27604WAT     H283055   4.074   8.766   2.081
27605WAT      O83056   5.259   6.837   0.451
27605WAT     H183057   5.177   6.849   0.394
27605WAT     H283058   5.334   6.890   0.412
27606WAT      O83059   5.312   2.761   3.051
27606WAT     H183060   5.331   2.766   2.953
27606WAT     H283061   5.259   2.678   3.071
27607WAT      O83062   9.499   7.143   1.984
27607WAT     H183063   9.423   7.156   1.921
27607WAT     H283064   9.477   7.186   2.072
27608WAT      O83065   1.080   1.354   7.313
27608WAT     H183066   1.063   1.310   7.225
27608WAT     H283067   1.022   1.313   7.383
27609WAT      O83068   0.973   7.181   9.299
27609WAT     H183069   1.059   7.192   9.249
27609WAT     H283070   0.899   7.223   9.247
27610WAT      O83071   8.099   9.612   2.459
27610WAT     H183072   8.166   9.583   2.527
27610WAT     H283073   8.125   9.702   2.423
27611WAT      O83074   2.437   5.671   8.986
27611WAT     H183075   2.456   5.659   8.889
27611WAT     H283076   2.505   5.621   9.040
27612WAT      O83077   6.014   8.359   0.892
27612WAT     H183078   5.965   8.424   0.949
27612WAT     H283079   5.967   8.347   0.805
27613WAT      O83080   1.876   3.237   1.872
27613WAT     H183081   1.899   3.334   1.862
27613WAT     H283082   1.777   3.227   1.874
27614WAT      O83083   7.063   5.281   5.597
27614WAT     H183084   7.045   5.209   5.531
27614WAT     H283085   6.985   5.292   5.658
27615WAT      O83086   5.683   6.219   8.070
27615WAT     H183087   5.596   6.170   8.061
27615WAT     H283088   5.692   6.284   7.994
27616WAT      O83089   3.588   7.267   9.799
27616WAT     H183090   3.647   7.294   9.875
27616WAT     H283091   3.623   7.306   9.714
27617WAT      O83092   5.523   9.118   1.897
27617WAT     H183093   5.445   9.177   1.878
27617WAT     H283094   5.512   9.075   1.987
27618WAT      O83095   1.561   9.012   7.455
27618WAT     H183096   1.558   8.949   7.377
27618WAT     H283097   1.518   9.099   7.430
27619WAT      O83098   5.992   3.064   2.701
27619WAT     H183099   5.955   3.056   2.794
27619WAT     H283100   5.917   3.084   2.638
27620WAT      O83101   7.940   4.973   1.394
27620WAT     H183102   7.993   4.894   1.363
27620WAT     H283103   7.895   5.015   1.316
27621WAT      O83104   8.509   2.116   0.885
27621WAT     H183105   8.433   2.056   0.862
27621WAT     H283106   8.572   2.121   0.807
27622WAT      O83107   3.259   0.734   1.542
27622WAT     H183108   3.311   0.701   1.621
27622WAT     H283109   3.192   0.802   1.573
27623WAT      O83110   4.009   4.330   0.091
27623WAT     H183111   4.013   4.317  -0.008
27623WAT     H283112   4.101   4.341   0.128
27624WAT      O83113   5.322   3.594   8.397
27624WAT     H183114   5.298   3.689   8.419
27624WAT     H283115   5.274   3.566   8.314
27625WAT      O83116   9.346   3.119   2.918
27625WAT     H183117   9.313   3.186   2.985
27625WAT     H283118   9.437   3.146   2.885
27626WAT      O83119   6.225   0.211   2.621
27626WAT     H183120   6.272   0.141   2.568
27626WAT     H283121   6.169   0.267   2.559
27627WAT      O83122   3.658   4.703   6.554
27627WAT     H183123   3.705   4.786   6.583
27627WAT     H283124   3.683   4.627   6.615
27628WAT      O83125   6.629   0.615   2.003
27628WAT     H183126   6.644   0.618   1.904
27628WAT     H283127   6.620   0.520   2.032
27629WAT      O83128   0.663   0.736   2.754
27629WAT     H183129   0.687   0.810   2.691
27629WAT     H283130   0.737   0.722   2.820
27630WAT      O83131   6.331   1.842   0.450
27630WAT     H183132   6.379   1.848   0.362
27630WAT     H283133   6.238   1.877   0.441
27631WAT      O83134   4.648   6.854   0.752
27631WAT     H183135   4.745   6.856   0.777
27631WAT     H283136   4.617   6.759   0.745
27632WAT      O83137   5.099   2.119   5.725
27632WAT     H183138   5.049   2.205   5.712
27632WAT     H283139   5.091   2.063   5.644
27633WAT      O83140   1.179   4.542   3.043
27633WAT     H183141   1.175   4.552   3.142
27633WAT     H283142   1.261   4.586   3.008
27634WAT      O83143   5.856   3.338   1.143
27634WAT     H183144   5.921   3.303   1.076
27634WAT     H283145   5.902   3.403   1.203
27635WAT      O83146   3.530   1.275   3.710
27635WAT     H183147   3.534   1.196   3.648
27635WAT     H283148   3.455   1.263   3.775
27636WAT      O83149   2.290   7.270   3.635
27636WAT     H183150   2.284   7.174   3.663
27636WAT     H283151   2.380   7.286   3.594
27637WAT      O83152   1.714   9.682   0.203
27637WAT     H183153   1.790   9.705   0.142
27637WAT     H283154   1.744   9.686   0.298
27638WAT      O83155   8.174   1.867   1.916
27638WAT     H183156   8.121   1.850   1.999
27638WAT     H283157   8.174   1.965   1.895
27639WAT      O83158   7.701   1.536   3.077
27639WAT     H183159   7.659   1.445   3.079
27639WAT     H283160   7.783   1.536   3.134
27640WAT      O83161   0.987   0.228   0.953
27640WAT     H183162   0.965   0.268   0.863
27640WAT     H283163   1.059   0.282   0.997
27641WAT      O83164   6.508   5.162   1.285
27641WAT     H183165   6.573   5.092   1.256
27641WAT     H283166   6.416   5.136   1.256
27642WAT      O83167   9.367   7.874   6.576
27642WAT     H183168   9.434   7.870   6.502
27642WAT     H283169   9.369   7.788   6.627
27643WAT      O83170   8.570   5.399   8.116
27643WAT     H183171   8.470   5.396   8.119
27643WAT     H283172   8.604   5.458   8.189
27644WAT      O83173   3.541   0.141   3.197
27644WAT     H183174   3.556   0.232   3.236
27644WAT     H283175   3.449   0.136   3.157
27645WAT      O83176   0.858   8.664   8.965
27645WAT     H183177   0.869   8.649   9.064
27645WAT     H283178   0.831   8.758   8.949
27646WAT      O83179   0.251   2.567   9.323
27646WAT     H183180   0.256   2.653   9.274
27646WAT     H283181   0.304   2.497   9.274
27647WAT      O83182   0.891   9.187   2.266
27647WAT     H183183   0.947   9.112   2.229
27647WAT     H283184   0.858   9.162   2.357
27648WAT      O83185   1.074   0.275   8.703
27648WAT     H183186   1.091   0.347   8.636
27648WAT     H283187   1.139   0.283   8.778
27649WAT      O83188   3.891   6.220   9.783
27649WAT     H183189   3.870   6.160   9.861
27649WAT     H283190   3.816   6.284   9.770
27650WAT      O83191   1.678   8.745   4.905
27650WAT     H183192   1.701   8.700   4.991
27650WAT     H283193   1.742   8.717   4.834
27651WAT      O83194   3.404   6.584   0.764
27651WAT     H183195   3.495   6.620   0.745
27651WAT     H283196   3.352   6.577   0.679
27652WAT      O83197   7.857   9.030   4.327
27652WAT     H183198   7.952   8.999   4.319
27652WAT     H283199   7.822   9.006   4.418
27653WAT      O83200   3.637   8.565   5.455
27653WAT     H183201   3.596   8.589   5.367
27653WAT     H283202   3.594   8.483   5.491
27654WAT      O83203   5.929   2.342   9.199
27654WAT     H183204   5.898   2.372   9.109
27654WAT     H283205   6.021   2.303   9.192
27655WAT      O83206   8.359   1.904   0.777
27655WAT     H183207   8.388   1.899   0.681
27655WAT     H283208   8.349   1.812   0.814
27656WAT      O83209   3.851   5.226   1.052
27656WAT     H183210   3.824   5.175   1.133
27656WAT     H283211   3.775   5.227   0.987
27657WAT      O83212   7.892   3.299   8.897
27657WAT     H183213   7.824   3.346   8.840
27657WAT     H283214   7.957   3.365   8.933
27658WAT      O83215   8.117   3.252   7.696
27658WAT     H183216   8.107   3.183   7.625
27658WAT     H283217   8.092   3.213   7.785
27659WAT      O83218   2.207   5.139   3.068
27659WAT     H183219   2.179   5.154   2.973
27659WAT     H283220   2.258   5.053   3.074
27660WAT      O83221   5.193   2.825   6.035
27660WAT     H183222   5.271   2.768   6.059
27660WAT     H283223   5.133   2.774   5.973
27661WAT      O83224   8.940   2.451   3.191
27661WAT     H183225   9.006   2.519   3.222
27661WAT     H283226   8.873   2.494   3.132
27662WAT      O83227   3.971   0.674   7.827
27662WAT     H183228   3.997   0.759   7.872
27662WAT     H283229   4.039   0.651   7.757
27663WAT      O83230   8.816   6.246   5.415
27663WAT     H183231   8.857   6.157   5.437
27663WAT     H283232   8.822   6.306   5.494
27664WAT      O83233   5.868   4.733   2.970
27664WAT     H183234   5.855   4.824   2.930
27664WAT     H283235   5.822   4.728   3.058
27665WAT      O83236   6.804   4.766   4.073
27665WAT     H183237   6.888   4.767   4.020
27665WAT     H283238   6.786   4.858   4.110
27666WAT      O83239   4.507   1.596   0.146
27666WAT     H183240   4.484   1.663   0.076
27666WAT     H283241   4.426   1.577   0.202
27667WAT      O83242   3.060   2.606   9.739
27667WAT     H183243   3.054   2.692   9.688
27667WAT     H283244   2.985   2.602   9.805
27668WAT      O83245   5.076   0.962   0.484
27668WAT     H183246   5.126   0.909   0.553
27668WAT     H283247   4.981   0.932   0.483
27669WAT      O83248   2.080   5.411   2.838
27669WAT     H183249   2.037   5.410   2.929
27669WAT     H283250   2.102   5.317   2.810
27670WAT      O83251   7.909   3.855   5.707
27670WAT     H183252   7.909   3.769   5.759
27670WAT     H283253   7.815   3.883   5.688
27671WAT      O83254   3.079   2.328   1.647
27671WAT     H183255   3.100   2.395   1.717
27671WAT     H283256   3.084   2.236   1.686
27672WAT      O83257   2.325   9.053   6.988
27672WAT     H183258   2.241   9.078   6.939
27672WAT     H283259   2.405   9.078   6.933
27673WAT      O83260   5.390   8.174   3.400
27673WAT     H183261   5.411   8.172   3.303
27673WAT     H283262   5.298   8.211   3.414
27674WAT      O83263   6.481   4.142   7.052
27674WAT     H183264   6.471   4.182   6.961
27674WAT     H283265   6.391   4.132   7.093
27675WAT      O83266   4.423   7.714   0.434
27675WAT     H183267   4.454   7.718   0.340
27675WAT     H283268   4.394   7.620   0.456
27676WAT      O83269   2.698   1.891   5.653
27676WAT     H183270   2.770   1.934   5.597
27676WAT     H283271   2.609   1.914   5.615
27677WAT      O83272   6.444   5.832   1.260
27677WAT     H183273   6.428   5.827   1.358
27677WAT     H283274   6.502   5.911   1.239
27678WAT      O83275   6.923   4.124   0.818
27678WAT     H183276   6.873   4.045   0.855
27678WAT     H283277   6.921   4.199   0.885
27679WAT      O83278   9.448   7.157   7.433
27679WAT     H183279   9.355   7.134   7.404
27679WAT     H283280   9.444   7.221   7.510
27680WAT      O83281   3.931   6.408   1.823
27680WAT     H183282   3.874   6.426   1.904
27680WAT     H283283   4.027   6.419   1.848
27681WAT      O83284   4.106   2.500   4.477
27681WAT     H183285   4.130   2.468   4.569
27681WAT     H283286   4.117   2.425   4.412
27682WAT      O83287   6.340   2.174   1.893
27682WAT     H183288   6.289   2.189   1.978
27682WAT     H283289   6.423   2.122   1.912
27683WAT      O83290   0.085   9.595   8.728
27683WAT     H183291  -0.000   9.646   8.718
27683WAT     H283292   0.148   9.620   8.654
27684WAT      O83293   8.014   9.213   1.080
27684WAT     H183294   8.034   9.127   1.126
27684WAT     H283295   7.938   9.200   1.017
27685WAT      O83296   7.321   4.455   3.520
27685WAT     H183297   7.272   4.382   3.568
27685WAT     H283298   7.259   4.500   3.456
27686WAT      O83299   8.514   2.634   0.344
27686WAT     H183300   8.428   2.593   0.374
27686WAT     H283301   8.569   2.658   0.424
27687WAT      O83302   7.693   4.189   6.157
27687WAT     H183303   7.774   4.235   6.123
27687WAT     H283304   7.695   4.093   6.131
27688WAT      O83305   7.604   0.418   4.583
27688WAT     H183306   7.544   0.438   4.661
27688WAT     H283307   7.549   0.414   4.499
27689WAT      O83308   9.703   1.596   6.014
27689WAT     H183309   9.734   1.580   5.920
27689WAT     H283310   9.688   1.508   6.060
27690WAT      O83311   7.718   5.771   1.459
27690WAT     H183312   7.694   5.699   1.525
27690WAT     H283313   7.659   5.763   1.378
27691WAT      O83314   1.866   1.726   8.299
27691WAT     H183315   1.781   1.692   8.259
27691WAT     H283316   1.874   1.824   8.282
27692WAT      O83317   0.528   7.413   6.738
27692WAT     H183318   0.578   7.492   6.701
27692WAT     H283319   0.490   7.438   6.828
27693WAT      O83320   2.533   7.882   3.992
27693WAT     H183321   2.499   7.822   3.920
27693WAT     H283322   2.456   7.924   4.040
27694WAT      O83323   8.788   6.867   9.186
27694WAT     H183324   8.836   6.955   9.181
27694WAT     H283325   8.840   6.804   9.243
27695WAT      O83326   6.108   3.061   4.476
27695WAT     H183327   6.126   3.136   4.539
27695WAT     H283328   6.189   3.043   4.420
27696WAT      O83329   0.201   5.081   3.040
27696WAT     H183330   0.265   5.058   3.114
27696WAT     H283331   0.130   5.010   3.035
27697WAT      O83332   5.471   9.491   2.950
27697WAT     H183333   5.466   9.567   2.885
27697WAT     H283334   5.379   9.471   2.985
27698WAT      O83335   3.234   9.397   4.576
27698WAT     H183336   3.231   9.354   4.666
27698WAT     H283337   3.162   9.466   4.569
27699WAT      O83338   1.543   8.216   6.799
27699WAT     H183339   1.460   8.212   6.744
27699WAT     H283340   1.621   8.241   6.741
27700WAT      O83341   2.918   1.542   2.619
27700WAT     H183342   2.906   1.502   2.528
27700WAT     H283343   3.012   1.526   2.649
27701WAT      O83344   0.012   2.411   9.312
27701WAT     H183345   0.083   2.471   9.350
27701WAT     H283346  -0.078   2.444   9.340
27702WAT      O83347   9.447   3.910   2.844
27702WAT     H183348   9.440   3.860   2.758
27702WAT     H283349   9.536   3.956   2.848
27703WAT      O83350   1.091   0.012   0.179
27703WAT     H183351   1.105   0.056   0.090
27703WAT     H283352   1.048  -0.077   0.165
27704WAT      O83353   0.212   0.876   6.868
27704WAT     H183354   0.295   0.820   6.868
27704WAT     H283355   0.236   0.971   6.889
27705WAT      O83356   3.370   1.020   0.086
27705WAT     H183357   3.362   1.007   0.185
27705WAT     H283358   3.335   0.940   0.038
27706WAT      O83359   6.747   2.414   8.160
27706WAT     H183360   6.830   2.363   8.184
27706WAT     H283361   6.670   2.351   8.149
27707WAT      O83362   2.748   7.094   5.317
27707WAT     H183363   2.736   6.995   5.328
27707WAT     H283364   2.839   7.113   5.282
27708WAT      O83365   9.785   6.535   5.867
27708WAT     H183366   9.796   6.600   5.791
27708WAT     H283367   9.830   6.571   5.948
27709WAT      O83368   2.621   2.856   3.364
27709WAT     H183369   2.585   2.885   3.452
27709WAT     H283370   2.683   2.926   3.328
27710WAT      O83371   1.745   0.376   2.704
27710WAT     H183372   1.666   0.344   2.652
27710WAT     H283373   1.724   0.374   2.802
27711WAT      O83374   6.522   0.778   4.851
27711WAT     H183375   6.497   0.870   4.881
27711WAT     H283376   6.496   0.767   4.755
27712WAT      O83377   1.201   3.611   3.334
27712WAT     H183378   1.246   3.638   3.249
27712WAT     H283379   1.169   3.517   3.327
27713WAT      O83380   9.752   4.220   6.331
27713WAT     H183381   9.794   4.192   6.245
27713WAT     H283382   9.660   4.180   6.339
27714WAT      O83383   1.278   9.846   7.071
27714WAT     H183384   1.332   9.781   7.124
27714WAT     H283385   1.297   9.833   6.973
27715WAT      O83386   8.661   8.997   4.728
27715WAT     H183387   8.729   9.069   4.710
27715WAT     H283388   8.674   8.922   4.664
27716WAT      O83389   4.569   0.776   2.036
27716WAT     H183390   4.614   0.687   2.041
27716WAT     H283391   4.472   0.766   2.060
27717WAT      O83392   8.792   2.917   0.680
27717WAT     H183393   8.825   2.953   0.593
27717WAT     H283394   8.861   2.856   0.719
27718WAT      O83395   6.720   0.607   4.921
27718WAT     H183396   6.674   0.520   4.941
27718WAT     H283397   6.651   0.677   4.899
27719WAT      O83398   6.813   7.606   7.859
27719WAT     H183399   6.821   7.545   7.780
27719WAT     H283400   6.777   7.695   7.829
27720WAT      O83401   5.661   3.923   3.184
27720WAT     H183402   5.636   3.898   3.277
27720WAT     H283403   5.586   3.899   3.121
27721WAT      O83404   7.259   4.172   7.354
27721WAT     H183405   7.201   4.163   7.273
27721WAT     H283406   7.317   4.253   7.345
27722WAT      O83407   6.119   0.105   3.829
27722WAT     H183408   6.079   0.195   3.846
27722WAT     H283409   6.200   0.093   3.886
27723WAT      O83410   6.063   3.119   6.706
27723WAT     H183411   6.124   3.040   6.698
27723WAT     H283412   6.099   3.181   6.775
27724WAT      O83413   5.240   8.744   7.353
27724WAT     H183414   5.166   8.702   7.406
27724WAT     H283415   5.325   8.740   7.404
27725WAT      O83416   1.425   3.981   9.682
27725WAT     H183417   1.428   3.909   9.752
27725WAT     H283418   1.512   3.981   9.632
27726WAT      O83419   8.047   3.795   9.774
27726WAT     H183420   8.053   3.830   9.680
27726WAT     H283421   8.006   3.704   9.773
27727WAT      O83422   6.740   8.186   7.236
27727WAT     H183423   6.781   8.273   7.208
27727WAT     H283424   6.665   8.204   7.300
27728WAT      O83425   6.031   5.625   8.286
27728WAT     H183426   5.956   5.678   8.247
27728WAT     H283427   6.113   5.683   8.293
27729WAT      O83428   7.589   6.585   1.767
27729WAT     H183429   7.519   6.524   1.730
27729WAT     H283430   7.562   6.617   1.858
27730WAT      O83431   9.165   0.333   9.634
27730WAT     H183432   9.203   0.360   9.545
27730WAT     H283433   9.075   0.373   9.646
27731WAT      O83434   1.204   2.568   4.709
27731WAT     H183435   1.189   2.622   4.626
27731WAT     H283436   1.131   2.587   4.775
27732WAT      O83437   8.261   8.063   6.871
27732WAT     H183438   8.235   8.032   6.779
27732WAT     H283439   8.349   8.021   6.896
27733WAT      O83440   0.543   5.444   2.477
27733WAT     H183441   0.578   5.401   2.394
27733WAT     H283442   0.504   5.533   2.455
27734WAT      O83443   1.907   7.558   8.435
27734WAT     H183444   1.870   7.533   8.524
27734WAT     H283445   1.992   7.507   8.419
27735WAT      O83446   5.394   9.053   9.723
27735WAT     H183447   5.491   9.033   9.738
27735WAT     H283448   5.377   9.150   9.742
27736WAT      O83449   7.054   3.189   8.040
27736WAT     H183450   7.071   3.200   7.943
27736WAT     H283451   7.117   3.247   8.092
27737WAT      O83452   9.329   3.043   8.138
27737WAT     H183453   9.294   2.964   8.088
27737WAT     H283454   9.384   3.100   8.076
27738WAT      O83455   6.154   1.130   3.333
27738WAT     H183456   6.190   1.113   3.242
27738WAT     H283457   6.222   1.177   3.389
27739WAT      O83458   4.696   7.208   1.899
27739WAT     H183459   4.697   7.257   1.812
27739WAT     H283460   4.696   7.109   1.881
27740WAT      O83461   9.109   7.234   2.150
27740WAT     H183462   9.128   7.169   2.223
27740WAT     H283463   9.018   7.274   2.164
27741WAT      O83464   1.768   6.514   4.918
27741WAT     H183465   1.827   6.582   4.962
27741WAT     H283466   1.822   6.433   4.896
27742WAT      O83467   5.935   9.338   9.649
27742WAT     H183468   5.850   9.322   9.599
27742WAT     H283469   5.977   9.424   9.618
27743WAT      O83470   2.162   5.196   5.924
27743WAT     H183471   2.069   5.215   5.893
27743WAT     H283472   2.198   5.276   5.971
27744WAT      O83473   0.505   8.658   3.973
27744WAT     H183474   0.560   8.742   3.972
27744WAT     H283475   0.468   8.642   3.881
27745WAT      O83476   8.998   5.866   3.839
27745WAT     H183477   9.096   5.863   3.822
27745WAT     H283478   8.953   5.791   3.789
27746WAT      O83479   7.212   0.306   9.767
27746WAT     H183480   7.141   0.266   9.825
27746WAT     H283481   7.173   0.331   9.678
27747WAT      O83482   3.734   9.470   1.313
27747WAT     H183483   3.801   9.397   1.299
27747WAT     H283484   3.683   9.484   1.229
27748WAT      O83485   8.172   5.586   5.500
27748WAT     H183486   8.089   5.639   5.513
27748WAT     H283487   8.204   5.597   5.406
27749WAT      O83488   1.561   8.416   8.546
27749WAT     H183489   1.611   8.502   8.554
27749WAT     H283490   1.464   8.432   8.564
27750WAT      O83491   6.478   7.754   0.687
27750WAT     H183492   6.397   7.698   0.705
27750WAT     H283493   6.541   7.748   0.764
27751WAT      O83494   3.298   0.979   2.676
27751WAT     H183495   3.384   0.933   2.697
27751WAT     H283496   3.229   0.911   2.650
27752WAT      O83497   1.820   2.147   4.296
27752WAT     H183498   1.780   2.073   4.242
27752WAT     H283499   1.884   2.110   4.363
27753WAT      O83500   4.806   6.463   6.014
27753WAT     H183501   4.834   6.410   5.934
27753WAT     H283502   4.884   6.518   6.047
27754WAT      O83503   0.642   8.003   8.352
27754WAT     H183504   0.710   7.969   8.417
27754WAT     H283505   0.684   8.071   8.293
27755WAT      O83506   2.275   9.257   4.771
27755WAT     H183507   2.277   9.166   4.814
27755WAT     H283508   2.180   9.289   4.767
27756WAT      O83509   1.824   5.374   9.425
27756WAT     H183510   1.898   5.440   9.438
27756WAT     H283511   1.775   5.394   9.340
27757WAT      O83512   0.925   8.648   4.243
27757WAT     H183513   0.895   8.556   4.219
27757WAT     H283514   0.845   8.708   4.249
27758WAT      O83515   7.369   3.741   7.937
27758WAT     H183516   7.360   3.745   8.036
27758WAT     H283517   7.354   3.832   7.898
27759WAT      O83518   5.098   5.196   6.143
27759WAT     H183519   5.039   5.252   6.201
27759WAT     H283520   5.059   5.190   6.051
27760WAT      O83521   3.617   3.519   1.158
27760WAT     H183522   3.596   3.542   1.254
27760WAT     H283523   3.704   3.560   1.133
27761WAT      O83524   5.811   9.567   1.597
27761WAT     H183525   5.789   9.651   1.647
27761WAT     H283526   5.733   9.505   1.601
27762WAT      O83527   3.856   8.775   0.739
27762WAT     H183528   3.944   8.807   0.703
27762WAT     H283529   3.799   8.854   0.762
27763WAT      O83530   7.658   2.729   7.892
27763WAT     H183531   7.634   2.633   7.874
27763WAT     H283532   7.718   2.733   7.972
27764WAT      O83533   2.838   2.760   6.926
27764WAT     H183534   2.812   2.687   6.863
27764WAT     H283535   2.825   2.729   7.020
27765WAT      O83536   4.201   6.134   2.319
27765WAT     H183537   4.273   6.083   2.367
27765WAT     H283538   4.112   6.092   2.337
27766WAT      O83539   9.429   0.922   1.511
27766WAT     H183540   9.482   0.925   1.426
27766WAT     H283541   9.363   0.997   1.511
27767WAT      O83542   4.555   0.841   8.501
27767WAT     H183543   4.480   0.904   8.480
27767WAT     H283544   4.612   0.881   8.573
27768WAT      O83545   9.540   4.333   3.868
27768WAT     H183546   9.613   4.296   3.811
27768WAT     H283547   9.453   4.289   3.843
27769WAT      O83548   6.494   5.554   8.725
27769WAT     H183549   6.410   5.506   8.749
27769WAT     H283550   6.508   5.552   8.626
27770WAT      O83551   7.587   5.831   8.235
27770WAT     H183552   7.604   5.895   8.309
27770WAT     H283553   7.501   5.782   8.252
27771WAT      O83554   5.084   1.977   4.029
27771WAT     H183555   5.048   1.905   4.089
27771WAT     H283556   5.050   1.961   3.936
27772WAT      O83557   3.178   4.881   6.987
27772WAT     H183558   3.084   4.913   6.973
27772WAT     H283559   3.201   4.815   6.916
27773WAT      O83560   2.776   9.609   6.214
27773WAT     H183561   2.710   9.551   6.166
27773WAT     H283562   2.864   9.562   6.219
27774WAT      O83563   6.269   6.805   2.055
27774WAT     H183564   6.349   6.781   2.110
27774WAT     H283565   6.187   6.798   2.111
27775WAT      O83566   2.106   8.104   2.515
27775WAT     H183567   2.103   8.103   2.615
27775WAT     H283568   2.114   8.198   2.483
27776WAT      O83569   6.021   8.659   2.175
27776WAT     H183570   5.969   8.700   2.100
27776WAT     H283571   6.075   8.582   2.140
27777WAT      O83572   8.357   8.913   5.479
27777WAT     H183573   8.318   8.989   5.427
27777WAT     H283574   8.401   8.949   5.561
27778WAT      O83575   5.205   5.118   1.620
27778WAT     H183576   5.214   5.178   1.541
27778WAT     H283577   5.113   5.078   1.621
27779WAT      O83578   2.875   7.640   2.620
27779WAT     H183579   2.891   7.579   2.698
27779WAT     H283580   2.787   7.618   2.578
27780WAT      O83581   0.307   7.860   9.634
27780WAT     H183582   0.289   7.776   9.685
27780WAT     H283583   0.369   7.840   9.558
27781WAT      O83584   5.131   3.866   0.526
27781WAT     H183585   5.039   3.837   0.550
27781WAT     H283586   5.135   3.965   0.521
27782WAT      O83587   7.497   4.538   3.805
27782WAT     H183588   7.499   4.609   3.875
27782WAT     H283589   7.485   4.449   3.848
27783WAT      O83590   6.641   1.953   0.360
27783WAT     H183591   6.739   1.935   0.350
27783WAT     H283592   6.591   1.901   0.291
27784WAT      O83593   1.846   2.795   2.631
27784WAT     H183594   1.913   2.739   2.583
27784WAT     H283595   1.754   2.771   2.600
27785WAT      O83596   9.116   5.187   7.037
27785WAT     H183597   9.105   5.098   7.081
27785WAT     H283598   9.031   5.239   7.045
27786WAT      O83599   5.071   6.553   0.855
27786WAT     H183600   5.070   6.571   0.756
27786WAT     H283601   5.136   6.615   0.899
27787WAT      O83602   5.350   8.405   9.491
27787WAT     H183603   5.334   8.403   9.392
27787WAT     H283604   5.365   8.312   9.524
27788WAT      O83605   8.862   9.731   6.151
27788WAT     H183606   8.914   9.771   6.075
27788WAT     H283607   8.858   9.632   6.141
27789WAT      O83608   0.346   6.102   6.441
27789WAT     H183609   0.257   6.065   6.467
27789WAT     H283610   0.383   6.049   6.365
27790WAT      O83611   7.659   0.594   3.114
27790WAT     H183612   7.737   0.569   3.172
27790WAT     H283613   7.580   0.538   3.139
27791WAT      O83614   0.390   4.965   2.323
27791WAT     H183615   0.323   5.031   2.290
27791WAT     H283616   0.367   4.874   2.288
27792WAT      O83617   6.849   1.537   0.682
27792WAT     H183618   6.945   1.507   0.687
27792WAT     H283619   6.846   1.631   0.648
27793WAT      O83620   6.844   9.397   6.707
27793WAT     H183621   6.922   9.411   6.768
27793WAT     H283622   6.852   9.458   6.628
27794WAT      O83623   5.025   3.773   3.906
27794WAT     H183624   5.038   3.713   3.827
27794WAT     H283625   5.080   3.739   3.983
27795WAT      O83626   4.175   7.255   7.141
27795WAT     H183627   4.118   7.329   7.104
27795WAT     H283628   4.218   7.286   7.226
27796WAT      O83629   4.522   6.938   6.750
27796WAT     H183630   4.481   6.856   6.710
27796WAT     H283631   4.509   6.938   6.849
27797WAT      O83632   2.297   1.231   8.603
27797WAT     H183633   2.220   1.196   8.550
27797WAT     H283634   2.317   1.168   8.678
27798WAT      O83635   9.558   0.136   0.571
27798WAT     H183636   9.487   0.206   0.565
27798WAT     H283637   9.600   0.124   0.481
27799WAT      O83638   0.326   8.485   1.269
27799WAT     H183639   0.417   8.509   1.236
27799WAT     H283640   0.319   8.386   1.279
27800WAT      O83641   3.326   7.250   0.370
27800WAT     H183642   3.425   7.263   0.372
27800WAT     H283643   3.304   7.156   0.345
27801WAT      O83644   8.972   4.872   7.974
27801WAT     H183645   8.941   4.963   7.944
27801WAT     H283646   8.950   4.805   7.904
27802WAT      O83647   3.285   5.798   5.446
27802WAT     H183648   3.191   5.792   5.414
27802WAT     H283649   3.286   5.817   5.544
27803WAT      O83650   1.022   9.000   7.903
27803WAT     H183651   1.042   8.922   7.963
27803WAT     H283652   0.998   8.966   7.812
27804WAT      O83653   6.768   2.931   1.421
27804WAT     H183654   6.732   3.022   1.402
27804WAT     H283655   6.795   2.924   1.517
27805WAT      O83656   7.855   0.898   6.911
27805WAT     H183657   7.803   0.982   6.922
27805WAT     H283658   7.799   0.820   6.939
27806WAT      O83659   6.424   1.434   2.650
27806WAT     H183660   6.506   1.493   2.650
27806WAT     H283661   6.413   1.392   2.561
27807WAT      O83662   3.401   8.741   0.811
27807WAT     H183663   3.322   8.679   0.817
27807WAT     H283664   3.400   8.788   0.723
27808WAT      O83665   9.443   2.842   3.931
27808WAT     H183666   9.441   2.752   3.974
27808WAT     H283667   9.376   2.847   3.857
27809WAT      O83668   7.689   6.336   9.763
27809WAT     H183669   7.748   6.352   9.842
27809WAT     H283670   7.685   6.238   9.742
27810WAT      O83671   1.792   2.500   6.824
27810WAT     H183672   1.809   2.405   6.847
27810WAT     H283673   1.785   2.510   6.725
27811WAT      O83674   0.971   3.063   1.264
27811WAT     H183675   1.070   3.052   1.252
27811WAT     H283676   0.941   3.146   1.217
27812WAT      O83677   4.206   1.388   5.024
27812WAT     H183678   4.197   1.296   5.061
27812WAT     H283679   4.157   1.394   4.937
27813WAT      O83680   9.353   8.917   6.428
27813WAT     H183681   9.395   8.982   6.491
27813WAT     H283682   9.253   8.924   6.435
27814WAT      O83683   0.296   3.087   2.399
27814WAT     H183684   0.361   3.127   2.335
27814WAT     H283685   0.274   2.993   2.370
27815WAT      O83686   2.844   3.239   1.097
27815WAT     H183687   2.767   3.239   1.034
27815WAT     H283688   2.926   3.205   1.051
27816WAT      O83689   1.273   6.020   7.058
27816WAT     H183690   1.257   6.081   7.135
27816WAT     H283691   1.254   6.068   6.973
27817WAT      O83692   7.085   1.826   8.840
27817WAT     H183693   6.997   1.874   8.835
27817WAT     H283694   7.078   1.739   8.792
27818WAT      O83695   5.714   2.446   0.353
27818WAT     H183696   5.634   2.410   0.400
27818WAT     H283697   5.697   2.541   0.326
27819WAT      O83698   6.968   1.339   3.356
27819WAT     H183699   6.989   1.258   3.412
27819WAT     H283700   6.888   1.320   3.299
27820WAT      O83701   6.906   8.232   4.515
27820WAT     H183702   6.925   8.195   4.606
27820WAT     H283703   6.922   8.330   4.515
27821WAT      O83704   3.608   7.925   1.468
27821WAT     H183705   3.667   7.942   1.548
27821WAT     H283706   3.514   7.909   1.499
27822WAT      O83707   2.833   8.915   4.049
27822WAT     H183708   2.882   8.997   4.077
27822WAT     H283709   2.864   8.837   4.103
27823WAT      O83710   4.857   1.537   7.348
27823WAT     H183711   4.922   1.598   7.394
27823WAT     H283712   4.842   1.456   7.405
27824WAT      O83713   6.017   6.827   0.725
27824WAT     H183714   5.957   6.748   0.739
27824WAT     H283715   5.962   6.910   0.719
27825WAT      O83716   1.259   5.171   7.226
27825WAT     H183717   1.190   5.214   7.168
27825WAT     H283718   1.272   5.076   7.196
27826WAT      O83719   3.861   7.912   8.052
27826WAT     H183720   3.819   7.849   8.118
27826WAT     H283721   3.859   8.005   8.089
27827WAT      O83722   4.792   0.430   1.069
27827WAT     H183723   4.782   0.334   1.095
27827WAT     H283724   4.761   0.443   0.975
27828WAT      O83725   7.516   3.432   5.736
27828WAT     H183726   7.468   3.477   5.812
27828WAT     H283727   7.461   3.439   5.653
27829WAT      O83728   5.055   6.620   6.097
27829WAT     H183729   5.058   6.711   6.139
27829WAT     H283730   5.103   6.622   6.010
27830WAT      O83731   1.776   9.083   7.052
27830WAT     H183732   1.853   9.106   7.112
27830WAT     H283733   1.764   8.984   7.052
27831WAT      O83734   4.855   9.225   5.732
27831WAT     H183735   4.919   9.154   5.764
27831WAT     H283736   4.840   9.213   5.634
27832WAT      O83737   5.827   4.309   5.283
27832WAT     H183738   5.905   4.369   5.265
27832WAT     H283739   5.779   4.341   5.365
27833WAT      O83740   6.936   8.371   7.219
27833WAT     H183741   6.944   8.465   7.251
27833WAT     H283742   7.017   8.319   7.247
27834WAT      O83743   3.314   5.799   3.606
27834WAT     H183744   3.344   5.721   3.662
27834WAT     H283745   3.391   5.859   3.588
27835WAT      O83746   2.986   2.358   8.131
27835WAT     H183747   3.029   2.277   8.091
27835WAT     H283748   2.953   2.417   8.059
27836WAT      O83749   6.377   3.510   4.156
27836WAT     H183750   6.340   3.429   4.202
27836WAT     H283751   6.469   3.490   4.122
27837WAT      O83752   1.228   9.809   3.019
27837WAT     H183753   1.242   9.899   2.976
27837WAT     H283754   1.302   9.792   3.083
27838WAT      O83755   4.988   3.955   6.550
27838WAT     H183756   5.088   3.954   6.544
27838WAT     H283757   4.949   3.949   6.458
27839WAT      O83758   9.249   1.779   8.227
27839WAT     H183759   9.290   1.864   8.194
27839WAT     H283760   9.151   1.779   8.207
27840WAT      O83761   5.218   8.682   5.783
27840WAT     H183762   5.146   8.721   5.840
27840WAT     H283763   5.208   8.582   5.779
27841WAT      O83764   3.356   3.551   3.910
27841WAT     H183765   3.393   3.543   4.002
27841WAT     H283766   3.346   3.460   3.869
27842WAT      O83767   3.356   1.012   5.772
27842WAT     H183768   3.381   1.109   5.772
27842WAT     H283769   3.425   0.960   5.722
27843WAT      O83770   9.142   3.939   0.229
27843WAT     H183771   9.234   3.967   0.201
27843WAT     H283772   9.075   3.992   0.177
27844WAT      O83773   5.780   5.595   0.882
27844WAT     H183774   5.833   5.630   0.959
27844WAT     H283775   5.836   5.529   0.831
27845WAT      O83776   1.432   6.137   2.238
27845WAT     H183777   1.451   6.235   2.229
27845WAT     H283778   1.335   6.121   2.220
27846WAT      O83779   0.284   7.766   2.262
27846WAT     H183780   0.208   7.821   2.228
27846WAT     H283781   0.369   7.795   2.219
27847WAT      O83782   6.271   5.827   6.506
27847WAT     H183783   6.191   5.772   6.532
27847WAT     H283784   6.334   5.832   6.584
27848WAT      O83785   6.793   5.787   3.878
27848WAT     H183786   6.817   5.799   3.782
27848WAT     H283787   6.784   5.876   3.922
27849WAT      O83788   3.185   2.172   2.127
27849WAT     H183789   3.094   2.210   2.138
27849WAT     H283790   3.253   2.239   2.157
27850WAT      O83791   0.735   0.930   0.550
27850WAT     H183792   0.699   0.859   0.490
27850WAT     H283793   0.667   0.953   0.620
27851WAT      O83794   1.668   2.451   4.902
27851WAT     H183795   1.593   2.392   4.873
27851WAT     H283796   1.754   2.401   4.895
27852WAT      O83797   1.394   5.591   5.677
27852WAT     H183798   1.434   5.560   5.591
27852WAT     H283799   1.320   5.655   5.658
27853WAT      O83800   9.886   3.617   0.989
27853WAT     H183801   9.940   3.551   0.938
27853WAT     H283802   9.813   3.569   1.038
27854WAT      O83803   0.167   7.742   8.435
27854WAT     H183804   0.240   7.805   8.461
27854WAT     H283805   0.089   7.793   8.398
27855WAT      O83806   7.695   5.277   9.298
27855WAT     H183807   7.703   5.215   9.376
27855WAT     H283808   7.598   5.296   9.281
27856WAT      O83809   0.928   9.188   4.910
27856WAT     H183810   1.005   9.212   4.970
27856WAT     H283811   0.843   9.198   4.961
27857WAT      O83812   5.299   0.725   4.562
27857WAT     H183813   5.376   0.678   4.604
27857WAT     H283814   5.219   0.718   4.621
27858WAT      O83815   8.372   8.006   7.599
27858WAT     H183816   8.400   7.910   7.594
27858WAT     H283817   8.273   8.012   7.588
27859WAT      O83818   4.419   1.479   4.535
27859WAT     H183819   4.410   1.489   4.436
27859WAT     H283820   4.454   1.387   4.556
27860WAT      O83821   7.433   4.585   6.133
27860WAT     H183822   7.468   4.498   6.097
27860WAT     H283823   7.433   4.582   6.233
27861WAT      O83824   4.021   2.575   0.711
27861WAT     H183825   3.959   2.653   0.724
27861WAT     H283826   3.973   2.503   0.661
27862WAT      O83827   8.914   0.693   8.889
27862WAT     H183828   8.826   0.649   8.872
27862WAT     H283829   8.966   0.696   8.804
27863WAT      O83830   1.504   0.896   1.233
27863WAT     H183831   1.422   0.944   1.263
27863WAT     H283832   1.479   0.828   1.164
27864WAT      O83833   9.378   6.250   3.028
27864WAT     H183834   9.341   6.330   3.075
27864WAT     H283835   9.467   6.272   2.989
27865WAT      O83836   6.203   4.504   4.567
27865WAT     H183837   6.231   4.455   4.485
27865WAT     H283838   6.237   4.456   4.648
27866WAT      O83839   2.253   8.730   6.508
27866WAT     H183840   2.274   8.657   6.444
27866WAT     H283841   2.264   8.819   6.462
27867WAT      O83842   2.484   5.143   1.100
27867WAT     H183843   2.526   5.218   1.151
27867WAT     H283844   2.424   5.091   1.160
27868WAT      O83845   9.081   4.463   5.130
27868WAT     H183846   9.055   4.486   5.036
27868WAT     H283847   9.181   4.455   5.136
27869WAT      O83848   0.009   3.519   0.575
27869WAT     H183849   0.036   3.492   0.668
27869WAT     H283850   0.050   3.455   0.509
27870WAT      O83851   2.556   7.400   3.332
27870WAT     H183852   2.625   7.471   3.317
27870WAT     H283853   2.468   7.432   3.298
27871WAT      O83854   8.850   5.037   0.302
27871WAT     H183855   8.776   4.999   0.247
27871WAT     H283856   8.818   5.053   0.396
27872WAT      O83857   2.021   7.564   7.025
27872WAT     H183858   2.060   7.647   6.984
27872WAT     H283859   1.987   7.504   6.952
27873WAT      O83860   5.403   2.276   8.458
27873WAT     H183861   5.400   2.327   8.372
27873WAT     H283862   5.312   2.238   8.477
27874WAT      O83863   4.225   6.538   7.906
27874WAT     H183864   4.284   6.542   7.825
27874WAT     H283865   4.187   6.447   7.915
27875WAT      O83866   2.935   2.151   5.680
27875WAT     H183867   2.944   2.121   5.585
27875WAT     H283868   2.947   2.250   5.686
27876WAT      O83869   5.370   1.733   9.621
27876WAT     H183870   5.387   1.828   9.648
27876WAT     H283871   5.375   1.725   9.522
27877WAT      O83872   1.101   8.081   0.739
27877WAT     H183873   1.165   8.084   0.662
27877WAT     H283874   1.024   8.022   0.716
27878WAT      O83875   0.832   8.607   4.622
27878WAT     H183876   0.868   8.695   4.652
27878WAT     H283877   0.748   8.586   4.673
27879WAT      O83878   8.443   8.610   3.597
27879WAT     H183879   8.391   8.634   3.515
27879WAT     H283880   8.469   8.514   3.593
27880WAT      O83881   3.327   3.429   6.269
27880WAT     H183882   3.291   3.503   6.326
27880WAT     H283883   3.285   3.342   6.298
27881WAT      O83884   2.078   6.440   6.446
27881WAT     H183885   2.171   6.406   6.434
27881WAT     H283886   2.025   6.425   6.362
27882WAT      O83887   9.752   9.771   4.812
27882WAT     H183888   9.794   9.686   4.782
27882WAT     H283889   9.653   9.759   4.820
27883WAT      O83890   1.140   6.856   9.127
27883WAT     H183891   1.233   6.872   9.159
27883WAT     H283892   1.128   6.760   9.102
27884WAT      O83893   4.444   2.353   2.393
27884WAT     H183894   4.373   2.408   2.436
27884WAT     H283895   4.423   2.341   2.296
27885WAT      O83896   1.849   7.789   2.475
27885WAT     H183897   1.811   7.852   2.408
27885WAT     H283898   1.930   7.744   2.437
27886WAT      O83899   3.099   7.383   8.639
27886WAT     H183900   3.180   7.442   8.637
27886WAT     H283901   3.087   7.341   8.549
27887WAT      O83902   1.774   3.706   2.908
27887WAT     H183903   1.794   3.614   2.873
27887WAT     H283904   1.702   3.748   2.854
27888WAT      O83905   6.840   9.710   2.062
27888WAT     H183906   6.813   9.791   2.114
27888WAT     H283907   6.883   9.738   1.976
27889WAT      O83908   8.876   1.971   7.572
27889WAT     H183909   8.887   1.995   7.669
27889WAT     H283910   8.964   1.979   7.525
27890WAT      O83911   7.166   2.376   5.369
27890WAT     H183912   7.232   2.329   5.427
27890WAT     H283913   7.193   2.472   5.357
27891WAT      O83914   9.135   3.322   5.311
27891WAT     H183915   9.106   3.414   5.337
27891WAT     H283916   9.098   3.299   5.221
27892WAT      O83917   0.151   3.139   0.625
27892WAT     H183918   0.186   3.099   0.710
27892WAT     H283919   0.052   3.126   0.619
27893WAT      O83920   7.158   4.808   1.571
27893WAT     H183921   7.161   4.906   1.552
27893WAT     H283922   7.228   4.785   1.639
27894WAT      O83923   5.977   9.022   5.861
27894WAT     H183924   6.063   9.034   5.910
27894WAT     H283925   5.930   9.110   5.854
27895WAT      O83926   4.314   5.262   0.106
27895WAT     H183927   4.300   5.170   0.068
27895WAT     H283928   4.235   5.286   0.163
27896WAT      O83929   1.940   9.256   4.281
27896WAT     H183930   1.945   9.199   4.200
27896WAT     H283931   2.033   9.280   4.311
27897WAT      O83932   6.869   0.184   1.895
27897WAT     H183933   6.948   0.163   1.952
27897WAT     H283934   6.798   0.227   1.951
27898WAT      O83935   4.307   2.606   1.301
27898WAT     H183936   4.324   2.704   1.310
27898WAT     H283937   4.238   2.578   1.368
27899WAT      O83938   2.699   5.006   1.350
27899WAT     H183939   2.756   4.937   1.305
27899WAT     H283940   2.629   5.038   1.287
27900WAT      O83941   9.088   1.314   7.928
27900WAT     H183942   9.103   1.216   7.916
27900WAT     H283943   8.993   1.330   7.955
27901WAT      O83944   2.181   8.414   9.805
27901WAT     H183945   2.210   8.430   9.710
27901WAT     H283946   2.256   8.437   9.867
27902WAT      O83947   2.753   0.567   5.387
27902WAT     H183948   2.818   0.492   5.403
27902WAT     H283949   2.661   0.537   5.411
27903WAT      O83950   5.542   1.850   8.597
27903WAT     H183951   5.462   1.876   8.651
27903WAT     H283952   5.568   1.925   8.537
27904WAT      O83953   7.028   4.882   9.500
27904WAT     H183954   7.060   4.973   9.527
27904WAT     H283955   7.087   4.846   9.428
27905WAT      O83956   3.380   5.631   3.782
27905WAT     H183957   3.355   5.604   3.875
27905WAT     H283958   3.479   5.623   3.770
27906WAT      O83959   3.708   6.837   8.573
27906WAT     H183960   3.674   6.905   8.508
27906WAT     H283961   3.631   6.801   8.626
27907WAT      O83962   3.670   6.802   4.527
27907WAT     H183963   3.714   6.812   4.438
27907WAT     H283964   3.670   6.705   4.554
27908WAT      O83965   9.451   8.798   6.681
27908WAT     H183966   9.550   8.792   6.676
27908WAT     H283967   9.410   8.727   6.623
27909WAT      O83968   0.897   2.105   7.260
27909WAT     H183969   0.873   2.013   7.228
27909WAT     H283970   0.970   2.098   7.327
27910WAT      O83971   4.627   8.247   6.078
27910WAT     H183972   4.615   8.169   6.141
27910WAT     H283973   4.611   8.332   6.128
27911WAT      O83974   2.582   6.966   1.531
27911WAT     H183975   2.595   7.042   1.468
27911WAT     H283976   2.490   6.929   1.521
27912WAT      O83977   8.354   3.716   8.210
27912WAT     H183978   8.448   3.749   8.197
27912WAT     H283979   8.351   3.655   8.289
27913WAT      O83980   7.746   2.115   5.646
27913WAT     H183981   7.697   2.196   5.614
27913WAT     H283982   7.776   2.061   5.568
27914WAT      O83983   0.668   0.232   9.269
27914WAT     H183984   0.726   0.238   9.188
27914WAT     H283985   0.669   0.139   9.304
27915WAT      O83986   9.265   6.562   6.903
27915WAT     H183987   9.210   6.574   6.820
27915WAT     H283988   9.338   6.630   6.905
27916WAT      O83989   7.980   4.740   0.675
27916WAT     H183990   7.920   4.685   0.617
27916WAT     H283991   7.940   4.830   0.690
27917WAT      O83992   6.562   8.315   8.373
27917WAT     H183993   6.644   8.258   8.372
27917WAT     H283994   6.586   8.408   8.345
27918WAT      O83995   9.276   4.243   8.568
27918WAT     H183996   9.370   4.229   8.534
27918WAT     H283997   9.251   4.166   8.627
27919WAT      O83998   3.078   1.868   1.955
27919WAT     H183999   3.124   1.819   1.880
27919WAT     H284000   2.980   1.854   1.947
27920WAT      O84001   8.509   6.617   1.243
27920WAT     H184002   8.484   6.551   1.314
27920WAT     H284003   8.460   6.596   1.159
27921WAT      O84004   6.912   9.531   3.344
27921WAT     H184005   7.001   9.503   3.308
27921WAT     H284006   6.848   9.454   3.338
27922WAT      O84007   4.406   0.526   4.917
27922WAT     H184008   4.348   0.579   4.979
27922WAT     H284009   4.370   0.532   4.824
27923WAT      O84010   8.069   9.762   0.332
27923WAT     H184011   8.100   9.827   0.401
27923WAT     H284012   8.138   9.691   0.320
27924WAT      O84013   0.076   2.432   1.965
27924WAT     H184014   0.038   2.489   1.893
27924WAT     H284015   0.168   2.464   1.988
27925WAT      O84016   8.790   0.474   7.996
27925WAT     H184017   8.713   0.494   8.056
27925WAT     H284018   8.776   0.518   7.908
27926WAT      O84019   1.725   8.676   8.955
27926WAT     H184020   1.749   8.739   9.030
27926WAT     H284021   1.788   8.598   8.956
27927WAT      O84022   5.922   6.415   6.995
27927WAT     H184023   5.931   6.503   7.043
27927WAT     H284024   5.876   6.430   6.907
27928WAT      O84025   3.820   1.252   7.959
27928WAT     H184026   3.855   1.220   8.048
27928WAT     H284027   3.840   1.349   7.949
27929WAT      O84028   8.689   6.762   5.681
27929WAT     H184029   8.610   6.702   5.663
27929WAT     H284030   8.712   6.758   5.778
27930WAT      O84031   2.530   8.165   7.358
27930WAT     H184032   2.628   8.180   7.372
27930WAT     H284033   2.509   8.172   7.260
27931WAT      O84034   5.478   2.674   4.252
27931WAT     H184035   5.429   2.608   4.309
27931WAT     H284036   5.564   2.699   4.295
27932WAT      O84037   3.312   4.103   1.528
27932WAT     H184038   3.400   4.055   1.534
27932WAT     H284039   3.248   4.063   1.593
27933WAT      O84040   2.906   2.390   7.462
27933WAT     H184041   2.995   2.351   7.437
27933WAT     H284042   2.834   2.340   7.414
27934WAT      O84043   3.767   1.214   0.801
27934WAT     H184044   3.799   1.259   0.884
27934WAT     H284045   3.828   1.236   0.725
27935WAT      O84046   7.059   0.646   6.229
27935WAT     H184047   6.975   0.611   6.188
27935WAT     H284048   7.131   0.578   6.220
27936WAT      O84049   1.788   6.447   1.440
27936WAT     H184050   1.703   6.462   1.389
27936WAT     H284051   1.863   6.434   1.375
27937WAT      O84052   2.716   5.121   1.599
27937WAT     H184053   2.747   5.076   1.515
27937WAT     H284054   2.778   5.197   1.621
27938WAT      O84055   0.995   2.301   5.588
27938WAT     H184056   1.045   2.349   5.516
27938WAT     H284057   0.900   2.330   5.587
27939WAT      O84058   4.030   5.372   2.230
27939WAT     H184059   4.036   5.281   2.189
27939WAT     H284060   3.947   5.418   2.197
27940WAT      O84061   5.271   6.529   3.047
27940WAT     H184062   5.348   6.484   3.003
27940WAT     H284063   5.277   6.628   3.032
27941WAT      O84064   2.404   3.760   7.758
27941WAT     H184065   2.336   3.826   7.790
27941WAT     H284066   2.376   3.668   7.783
27942WAT      O84067   1.688   4.888   5.469
27942WAT     H184068   1.678   4.860   5.564
27942WAT     H284069   1.763   4.953   5.461
27943WAT      O84070   8.298   4.340   5.885
27943WAT     H184071   8.373   4.287   5.845
27943WAT     H284072   8.335   4.424   5.925
27944WAT      O84073   2.503   0.929   3.599
27944WAT     H184074   2.603   0.931   3.594
27944WAT     H284075   2.473   0.838   3.629
27945WAT      O84076   9.861   9.385   0.598
27945WAT     H184077   9.911   9.394   0.684
27945WAT     H284078   9.766   9.413   0.612
27946WAT      O84079   7.816   8.478   5.543
27946WAT     H184080   7.722   8.506   5.563
27946WAT     H284081   7.865   8.463   5.629
27947WAT      O84082   4.355   8.106   0.937
27947WAT     H184083   4.439   8.104   0.992
27947WAT     H284084   4.327   8.201   0.923
27948WAT      O84085   1.166   3.193   8.820
27948WAT     H184086   1.112   3.200   8.904
27948WAT     H284087   1.128   3.120   8.763
27949WAT      O84088   7.675   4.919   6.846
27949WAT     H184089   7.695   4.973   6.928
27949WAT     H284090   7.753   4.859   6.826
27950WAT      O84091   8.200   2.916   3.162
27950WAT     H184092   8.224   3.012   3.168
27950WAT     H284093   8.209   2.873   3.252
27951WAT      O84094   6.871   1.243   1.275
27951WAT     H184095   6.907   1.155   1.304
27951WAT     H284096   6.923   1.277   1.197
27952WAT      O84097   5.562   5.696   0.044
27952WAT     H184098   5.587   5.656  -0.044
27952WAT     H284099   5.518   5.627   0.101
27953WAT      O84100   9.643   9.435   8.882
27953WAT     H184101   9.739   9.462   8.881
27953WAT     H284102   9.598   9.465   8.798
27954WAT      O84103   5.792   2.362   6.336
27954WAT     H184104   5.746   2.440   6.379
27954WAT     H284105   5.742   2.278   6.359
27955WAT      O84106   1.452   3.273   8.126
27955WAT     H184107   1.462   3.228   8.215
27955WAT     H284108   1.504   3.359   8.127
27956WAT      O84109   7.066   3.061   1.113
27956WAT     H184110   7.039   3.067   1.017
27956WAT     H284111   7.022   3.135   1.164
27957WAT      O84112   6.486   3.517   9.829
27957WAT     H184113   6.421   3.592   9.820
27957WAT     H284114   6.525   3.518   9.922
27958WAT      O84115   3.062   8.326   5.396
27958WAT     H184116   3.090   8.315   5.492
27958WAT     H284117   3.121   8.394   5.352
27959WAT      O84118   0.378   4.207   6.871
27959WAT     H184119   0.357   4.151   6.790
27959WAT     H284120   0.431   4.153   6.936
27960WAT      O84121   3.196   4.117   5.944
27960WAT     H184122   3.170   4.022   5.963
27960WAT     H284123   3.147   4.149   5.863
27961WAT      O84124   0.809   3.201   7.825
27961WAT     H184125   0.783   3.191   7.729
27961WAT     H284126   0.859   3.287   7.838
27962WAT      O84127   7.528   5.598   8.795
27962WAT     H184128   7.429   5.607   8.780
27962WAT     H284129   7.577   5.617   8.710
27963WAT      O84130   2.056   2.397   2.609
27963WAT     H184131   2.116   2.453   2.666
27963WAT     H284132   2.110   2.329   2.560
27964WAT      O84133   7.433   2.476   1.678
27964WAT     H184134   7.509   2.411   1.675
27964WAT     H284135   7.358   2.443   1.620
27965WAT      O84136   0.407   4.794   3.584
27965WAT     H184137   0.498   4.752   3.586
27965WAT     H284138   0.408   4.877   3.640
27966WAT      O84139   1.033   5.097   2.868
27966WAT     H184140   1.077   5.009   2.853
27966WAT     H284141   1.081   5.147   2.939
27967WAT      O84142   2.936   0.009   3.051
27967WAT     H184143   2.851  -0.026   3.090
27967WAT     H284144   2.916   0.084   2.987
27968WAT      O84145   7.501   4.904   8.584
27968WAT     H184146   7.592   4.907   8.625
27968WAT     H284147   7.500   4.839   8.509
27969WAT      O84148   6.696   1.052   1.110
27969WAT     H184149   6.741   1.118   1.170
27969WAT     H284150   6.674   0.970   1.163
27970WAT      O84151   4.149   0.255   0.855
27970WAT     H184152   4.084   0.258   0.779
27970WAT     H284153   4.111   0.198   0.928
27971WAT      O84154   9.059   7.335   8.672
27971WAT     H184155   9.078   7.305   8.579
27971WAT     H284156   9.143   7.371   8.713
27972WAT      O84157   3.438   5.295   5.572
27972WAT     H184158   3.356   5.351   5.565
27972WAT     H284159   3.504   5.323   5.502
27973WAT      O84160   9.284   3.303   3.860
27973WAT     H184161   9.298   3.308   3.959
27973WAT     H284162   9.373   3.303   3.814
27974WAT      O84163   2.800   1.676   4.891
27974WAT     H184164   2.763   1.683   4.799
27974WAT     H284165   2.894   1.640   4.887
27975WAT      O84166   2.784   9.171   1.541
27975WAT     H184167   2.870   9.171   1.592
27975WAT     H284168   2.801   9.148   1.445
27976WAT      O84169   4.433   3.046   9.602
27976WAT     H184170   4.436   3.133   9.553
27976WAT     H284171   4.516   2.994   9.581
27977WAT      O84172   8.811   6.854   1.865
27977WAT     H184173   8.832   6.901   1.951
27977WAT     H284174   8.879   6.783   1.849
27978WAT      O84175   1.347   7.039   5.392
27978WAT     H184176   1.258   7.058   5.432
27978WAT     H284177   1.399   6.978   5.453
27979WAT      O84178   9.249   7.223   4.009
27979WAT     H184179   9.255   7.310   4.059
27979WAT     H284180   9.300   7.153   4.059
27980WAT      O84181   4.097   8.428   9.667
27980WAT     H184182   4.079   8.524   9.644
27980WAT     H284183   4.160   8.425   9.744
27981WAT      O84184   1.923   4.110   9.821
27981WAT     H184185   1.972   4.168   9.886
27981WAT     H284186   1.985   4.040   9.786
27982WAT      O84187   0.218   1.295   9.203
27982WAT     H184188   0.263   1.228   9.262
27982WAT     H284189   0.282   1.367   9.179
27983WAT      O84190   0.817   1.787   1.102
27983WAT     H184191   0.826   1.787   1.002
27983WAT     H284192   0.885   1.849   1.142
27984WAT      O84193   3.726   4.400   3.673
27984WAT     H184194   3.779   4.373   3.753
27984WAT     H284195   3.682   4.320   3.633
27985WAT      O84196   2.142   3.386   8.966
27985WAT     H184197   2.123   3.318   8.895
27985WAT     H284198   2.105   3.355   9.053
27986WAT      O84199   0.248   5.559   2.574
27986WAT     H184200   0.178   5.547   2.504
27986WAT     H284201   0.272   5.469   2.612
27987WAT      O84202   0.831   8.268   0.445
27987WAT     H184203   0.775   8.326   0.386
27987WAT     H284204   0.865   8.322   0.522
27988WAT      O84205   0.149   8.448   2.026
27988WAT     H184206   0.165   8.519   1.957
27988WAT     H284207   0.089   8.484   2.098
27989WAT      O84208   1.978   1.353   7.911
27989WAT     H184209   1.885   1.347   7.946
27989WAT     H284210   1.975   1.361   7.811
27990WAT      O84211   7.174   6.247   8.217
27990WAT     H184212   7.078   6.257   8.242
27990WAT     H284213   7.198   6.317   8.149
27991WAT      O84214   2.127   3.072   8.026
27991WAT     H184215   2.035   3.087   7.991
27991WAT     H284216   2.132   3.100   8.122
27992WAT      O84217   7.153   3.108   2.004
27992WAT     H184218   7.054   3.122   2.001
27992WAT     H284219   7.196   3.180   2.058
27993WAT      O84220   1.981   1.315   6.143
27993WAT     H184221   1.976   1.251   6.066
27993WAT     H284222   2.033   1.275   6.217
27994WAT      O84223   2.363   8.315   3.198
27994WAT     H184224   2.376   8.258   3.117
27994WAT     H284225   2.451   8.325   3.245
27995WAT      O84226   5.563   6.879   7.613
27995WAT     H184227   5.541   6.834   7.699
27995WAT     H284228   5.636   6.945   7.628
27996WAT      O84229   8.581   7.251   6.553
27996WAT     H184230   8.649   7.235   6.624
27996WAT     H284231   8.490   7.254   6.593
27997WAT      O84232   7.459   6.665   4.727
27997WAT     H184233   7.540   6.702   4.680
27997WAT     H284234   7.478   6.660   4.825
27998WAT      O84235   2.128   0.438   0.667
27998WAT     H184236   2.151   0.519   0.614
27998WAT     H284237   2.034   0.445   0.700
27999WAT      O84238   2.227   5.430   7.094
27999WAT     H184239   2.286   5.391   7.024
27999WAT     H284240   2.167   5.359   7.131
28000WAT      O84241   7.422   5.734   7.375
28000WAT     H184242   7.378   5.782   7.300
28000WAT     H284243   7.439   5.639   7.348
28001WAT      O84244   2.425   1.888   5.164
28001WAT     H184245   2.486   1.846   5.097
28001WAT     H284246   2.354   1.940   5.117
28002WAT      O84247   2.914   4.921   6.952
28002WAT     H184248   2.891   4.868   7.033
28002WAT     H284249   2.832   4.969   6.920
28003WAT      O84250   2.613   1.176   1.654
28003WAT     H184251   2.547   1.248   1.635
28003WAT     H284252   2.638   1.178   1.751
28004WAT      O84253   3.425   9.406   6.117
28004WAT     H184254   3.521   9.408   6.090
28004WAT     H284255   3.368   9.390   6.036
28005WAT      O84256   8.119   8.255   8.580
28005WAT     H184257   8.028   8.225   8.608
28005WAT     H284258   8.153   8.324   8.644
28006WAT      O84259   7.126   2.222   9.465
28006WAT     H184260   7.055   2.281   9.425
28006WAT     H284261   7.082   2.150   9.519
28007WAT      O84262   6.737   3.954   2.607
28007WAT     H184263   6.710   3.859   2.622
28007WAT     H284264   6.829   3.957   2.568
28008WAT      O84265   5.945   6.639   7.189
28008WAT     H184266   5.871   6.677   7.245
28008WAT     H284267   6.000   6.576   7.245
28009WAT      O84268   2.673   2.573   8.720
28009WAT     H184269   2.606   2.500   8.708
28009WAT     H284270   2.756   2.552   8.668
28010WAT      O84271   1.224   8.909   3.218
28010WAT     H184272   1.170   8.837   3.176
28010WAT     H284273   1.306   8.870   3.260
28011WAT      O84274   5.146   1.400   4.617
28011WAT     H184275   5.169   1.491   4.651
28011WAT     H284276   5.223   1.338   4.632
28012WAT      O84277   4.945   0.542   2.819
28012WAT     H184278   5.013   0.473   2.797
28012WAT     H284279   4.883   0.553   2.741
28013WAT      O84280   6.013   7.732   0.574
28013WAT     H184281   6.017   7.787   0.491
28013WAT     H284282   6.008   7.792   0.654
28014WAT      O84283   2.367   1.859   0.931
28014WAT     H184284   2.273   1.836   0.956
28014WAT     H284285   2.386   1.826   0.839
28015WAT      O84286   7.827   2.955   3.543
28015WAT     H184287   7.758   3.004   3.597
28015WAT     H284288   7.918   2.977   3.578
28016WAT      O84289   4.328   4.455   5.974
28016WAT     H184290   4.277   4.524   6.026
28016WAT     H284291   4.297   4.364   5.999
28017WAT      O84292   7.855   8.310   7.061
28017WAT     H184293   7.801   8.385   7.101
28017WAT     H284294   7.868   8.326   6.963
28018WAT      O84295   5.480   5.720   7.307
28018WAT     H184296   5.535   5.794   7.269
28018WAT     H284297   5.456   5.741   7.402
28019WAT      O84298   2.554   2.453   2.687
28019WAT     H184299   2.649   2.425   2.672
28019WAT     H284300   2.543   2.550   2.664
28020WAT      O84301   2.539   0.708   9.716
28020WAT     H184302   2.460   0.725   9.776
28020WAT     H284303   2.618   0.683   9.772
28021WAT      O84304   7.386   9.464   7.332
28021WAT     H184305   7.406   9.421   7.244
28021WAT     H284306   7.368   9.561   7.318
28022WAT      O84307   1.985   4.190   4.294
28022WAT     H184308   1.902   4.138   4.310
28022WAT     H284309   2.057   4.159   4.357
28023WAT      O84310   5.093   3.137   3.339
28023WAT     H184311   5.109   3.234   3.358
28023WAT     H284312   5.053   3.094   3.420
28024WAT      O84313   1.448   9.165   0.450
28024WAT     H184314   1.358   9.139   0.414
28024WAT     H284315   1.445   9.258   0.484
28025WAT      O84316   5.113   1.150   2.912
28025WAT     H184317   5.025   1.102   2.909
28025WAT     H284318   5.184   1.088   2.945
28026WAT      O84319   2.170   2.515   7.888
28026WAT     H184320   2.133   2.608   7.890
28026WAT     H284321   2.238   2.505   7.961
28027WAT      O84322   2.927   4.377   1.107
28027WAT     H184323   2.961   4.445   1.043
28027WAT     H284324   2.830   4.360   1.091
28028WAT      O84325   2.707   6.756   7.139
28028WAT     H184326   2.655   6.826   7.089
28028WAT     H284327   2.647   6.709   7.204
28029WAT      O84328   2.701   7.744   4.913
28029WAT     H184329   2.612   7.697   4.910
28029WAT     H284330   2.697   7.819   4.979
28030WAT      O84331   5.609   6.800   9.153
28030WAT     H184332   5.680   6.775   9.219
28030WAT     H284333   5.590   6.722   9.094
28031WAT      O84334   0.401   1.950   0.939
28031WAT     H184335   0.416   1.856   0.908
28031WAT     H284336   0.305   1.974   0.928
28032WAT      O84337   5.213   8.109   0.016
28032WAT     H184338   5.252   8.172   0.083
28032WAT     H284339   5.283   8.041  -0.010
28033WAT      O84340   0.293   6.842   0.013
28033WAT     H184341   0.314   6.807  -0.078
28033WAT     H284342   0.313   6.939   0.017
28034WAT      O84343   2.612   9.733   5.559
28034WAT     H184344   2.628   9.804   5.490
28034WAT     H284345   2.600   9.776   5.648
28035WAT      O84346   0.949   0.909   5.686
28035WAT     H184347   0.996   0.990   5.650
28035WAT     H284348   0.868   0.937   5.738
28036WAT      O84349   6.849   5.418   2.378
28036WAT     H184350   6.898   5.331   2.377
28036WAT     H284351   6.786   5.420   2.455
28037WAT      O84352   1.950   9.841   7.765
28037WAT     H184353   1.997   9.929   7.752
28037WAT     H284354   2.005   9.782   7.823
28038WAT      O84355   8.229   8.550   5.409
28038WAT     H184356   8.309   8.590   5.365
28038WAT     H284357   8.184   8.486   5.347
28039WAT      O84358   1.999   4.358   0.927
28039WAT     H184359   2.086   4.320   0.896
28039WAT     H284360   1.998   4.457   0.908
28040WAT      O84361   9.478   6.287   3.996
28040WAT     H184362   9.426   6.238   4.066
28040WAT     H284363   9.509   6.375   4.032
28041WAT      O84364   1.703   2.458   9.069
28041WAT     H184365   1.707   2.385   9.138
28041WAT     H284366   1.621   2.513   9.084
28042WAT      O84367   4.618   1.326   2.481
28042WAT     H184368   4.534   1.274   2.497
28042WAT     H284369   4.630   1.340   2.382
28043WAT      O84370   6.448   5.471   2.173
28043WAT     H184371   6.471   5.531   2.097
28043WAT     H284372   6.516   5.398   2.180
28044WAT      O84373   8.537   2.359   3.053
28044WAT     H184374   8.504   2.338   3.145
28044WAT     H284375   8.588   2.280   3.018
28045WAT      O84376   8.410   9.735   9.669
28045WAT     H184377   8.409   9.743   9.570
28045WAT     H284378   8.418   9.826   9.710
28046WAT      O84379   6.357   0.912   6.656
28046WAT     H184380   6.314   0.857   6.584
28046WAT     H284381   6.285   0.952   6.714
28047WAT      O84382   6.646   2.604   2.022
28047WAT     H184383   6.595   2.663   2.085
28047WAT     H284384   6.588   2.581   1.944
28048WAT      O84385   2.176   8.373   7.069
28048WAT     H184386   2.209   8.331   6.984
28048WAT     H284387   2.168   8.303   7.140
28049WAT      O84388   6.158   6.289   3.622
28049WAT     H184389   6.168   6.230   3.542
28049WAT     H284390   6.100   6.367   3.599
28050WAT      O84391   9.679   5.444   0.057
28050WAT     H184392   9.619   5.524   0.049
28050WAT     H284393   9.773   5.472   0.041
28051WAT      O84394   9.771   4.254   2.604
28051WAT     H184395   9.862   4.214   2.612
28051WAT     H284396   9.779   4.347   2.567
28052WAT      O84397   0.501   1.520   1.073
28052WAT     H184398   0.561   1.453   1.029
28052WAT     H284399   0.409   1.482   1.078
28053WAT      O84400   0.399   0.591   6.906
28053WAT     H184401   0.333   0.522   6.935
28053WAT     H284402   0.468   0.549   6.848
28054WAT      O84403   0.878   0.824   8.043
28054WAT     H184404   0.964   0.801   8.088
28054WAT     H284405   0.808   0.841   8.112
28055WAT      O84406   0.746   8.479   9.760
28055WAT     H184407   0.700   8.464   9.673
28055WAT     H284408   0.679   8.507   9.829
28056WAT      O84409   3.092   2.556   4.443
28056WAT     H184410   3.140   2.593   4.363
28056WAT     H284411   3.009   2.609   4.459
28057WAT      O84412   0.344   8.318   4.698
28057WAT     H184413   0.345   8.332   4.599
28057WAT     H284414   0.413   8.249   4.722
28058WAT      O84415   8.977   0.922   2.036
28058WAT     H184416   9.067   0.965   2.048
28058WAT     H284417   8.911   0.967   2.097
28059WAT      O84418   8.832   7.262   5.349
28059WAT     H184419   8.781   7.336   5.306
28059WAT     H284420   8.803   7.251   5.444
28060WAT      O84421   0.367   0.276   5.747
28060WAT     H184422   0.420   0.359   5.728
28060WAT     H284423   0.376   0.251   5.843
28061WAT      O84424   9.544   8.656   6.294
28061WAT     H184425   9.449   8.644   6.325
28061WAT     H284426   9.606   8.640   6.370
28062WAT      O84427   4.554   5.078   2.153
28062WAT     H184428   4.508   5.116   2.233
28062WAT     H284429   4.582   4.984   2.172
28063WAT      O84430   5.197   0.995   2.387
28063WAT     H184431   5.255   0.922   2.351
28063WAT     H284432   5.105   0.988   2.349
28064WAT      O84433   3.198   8.601   7.847
28064WAT     H184434   3.124   8.655   7.805
28064WAT     H284435   3.160   8.547   7.922
28065WAT      O84436   8.986   0.378   4.261
28065WAT     H184437   8.974   0.283   4.290
28065WAT     H284438   8.900   0.428   4.275
28066WAT      O84439   3.728   9.578   6.631
28066WAT     H184440   3.737   9.501   6.568
28066WAT     H284441   3.802   9.574   6.698
28067WAT      O84442   8.259   4.655   2.593
28067WAT     H184443   8.335   4.682   2.653
28067WAT     H284444   8.219   4.569   2.626
28068WAT      O84445   6.720   9.786   7.598
28068WAT     H184446   6.773   9.798   7.514
28068WAT     H284447   6.758   9.844   7.670
28069WAT      O84448   4.630   1.383   3.983
28069WAT     H184449   4.639   1.478   4.015
28069WAT     H284450   4.566   1.379   3.906
28070WAT      O84451   7.858   6.640   8.532
28070WAT     H184452   7.825   6.666   8.622
28070WAT     H284453   7.789   6.661   8.463
28071WAT      O84454   4.067   3.013   9.585
28071WAT     H184455   4.008   3.093   9.597
28071WAT     H284456   4.112   2.992   9.672
28072WAT      O84457   9.169   3.275   1.539
28072WAT     H184458   9.098   3.279   1.610
28072WAT     H284459   9.218   3.362   1.536
28073WAT      O84460   3.500   0.758   4.158
28073WAT     H184461   3.488   0.827   4.229
28073WAT     H284462   3.451   0.675   4.184
28074WAT      O84463   6.213   1.526   2.816
28074WAT     H184464   6.160   1.444   2.838
28074WAT     H284465   6.289   1.502   2.755
28075WAT      O84466   1.224   2.316   5.330
28075WAT     H184467   1.210   2.234   5.386
28075WAT     H284468   1.259   2.390   5.389
28076WAT      O84469   9.747   4.321   3.479
28076WAT     H184470   9.834   4.275   3.495
28076WAT     H284471   9.765   4.413   3.442
28077WAT      O84472   5.512   5.875   9.098
28077WAT     H184473   5.605   5.895   9.128
28077WAT     H284474   5.496   5.776   9.102
28078WAT      O84475   4.713   0.951   3.255
28078WAT     H184476   4.783   0.924   3.188
28078WAT     H284477   4.626   0.910   3.230
28079WAT      O84478   2.731   1.456   4.181
28079WAT     H184479   2.747   1.450   4.083
28079WAT     H284480   2.790   1.391   4.229
28080WAT      O84481   6.780   4.475   5.785
28080WAT     H184482   6.845   4.405   5.755
28080WAT     H284483   6.694   4.432   5.812
28081WAT      O84484   6.473   0.061   2.515
28081WAT     H184485   6.521   0.136   2.470
28081WAT     H284486   6.522   0.036   2.599
28082WAT      O84487   5.589   7.100   2.535
28082WAT     H184488   5.580   7.187   2.584
28082WAT     H284489   5.503   7.050   2.538
28083WAT      O84490   9.070   6.736   7.037
28083WAT     H184491   9.121   6.817   7.007
28083WAT     H284492   9.117   6.653   7.006
28084WAT      O84493   6.736   1.552   0.987
28084WAT     H184494   6.637   1.553   0.999
28084WAT     H284495   6.759   1.564   0.891
28085WAT      O84496   8.528   1.295   1.391
28085WAT     H184497   8.564   1.305   1.298
28085WAT     H284498   8.602   1.302   1.457
28086WAT      O84499   0.368   6.092   1.486
28086WAT     H184500   0.313   6.078   1.569
28086WAT     H284501   0.435   6.165   1.503
28087WAT      O84502   3.225   0.250   6.506
28087WAT     H184503   3.265   0.337   6.478
28087WAT     H284504   3.298   0.184   6.524
28088WAT      O84505   1.405   2.962   4.475
28088WAT     H184506   1.350   2.921   4.403
28088WAT     H284507   1.420   3.059   4.454
28089WAT      O84508   2.167   5.663   4.769
28089WAT     H184509   2.196   5.575   4.731
28089WAT     H284510   2.215   5.680   4.855
28090WAT      O84511   3.966   2.047   3.535
28090WAT     H184512   3.919   1.959   3.543
28090WAT     H284513   3.943   2.089   3.448
28091WAT      O84514   1.051   8.980   2.144
28091WAT     H184515   1.006   8.929   2.071
28091WAT     H284516   1.141   8.939   2.161
28092WAT      O84517   1.821   8.954   3.025
28092WAT     H184518   1.840   9.029   3.088
28092WAT     H284519   1.877   8.874   3.050
28093WAT      O84520   1.416   9.638   4.169
28093WAT     H184521   1.437   9.615   4.264
28093WAT     H284522   1.317   9.638   4.155
28094WAT      O84523   6.104   8.951   8.258
28094WAT     H184524   6.056   9.017   8.315
28094WAT     H284525   6.193   8.989   8.231
28095WAT      O84526   0.162   2.783   1.882
28095WAT     H184527   0.187   2.869   1.925
28095WAT     H284528   0.210   2.708   1.927
28096WAT      O84529   0.542   5.929   7.037
28096WAT     H184530   0.500   6.016   7.010
28096WAT     H284531   0.622   5.947   7.094
28097WAT      O84532   8.722   0.816   1.781
28097WAT     H184533   8.717   0.908   1.821
28097WAT     H284534   8.632   0.791   1.745
28098WAT      O84535   1.737   2.053   3.631
28098WAT     H184536   1.824   2.074   3.586
28098WAT     H284537   1.684   2.137   3.640
28099WAT      O84538   3.152   4.146   1.892
28099WAT     H184539   3.166   4.235   1.849
28099WAT     H284540   3.146   4.075   1.822
28100WAT      O84541   3.658   6.132   7.768
28100WAT     H184542   3.723   6.193   7.814
28100WAT     H284543   3.572   6.181   7.751
28101WAT      O84544   3.048   7.906   2.538
28101WAT     H184545   2.976   7.929   2.604
28101WAT     H284546   3.096   7.989   2.510
28102WAT      O84547   0.240   1.425   1.056
28102WAT     H184548   0.188   1.397   1.137
28102WAT     H284549   0.220   1.363   0.981
28103WAT      O84550   9.546   3.851   7.784
28103WAT     H184551   9.501   3.938   7.803
28103WAT     H284552   9.526   3.786   7.857
28104WAT      O84553   7.127   7.979   6.444
28104WAT     H184554   7.127   7.925   6.360
28104WAT     H284555   7.057   7.944   6.506
28105WAT      O84556   0.495   7.577   2.068
28105WAT     H184557   0.594   7.564   2.075
28105WAT     H284558   0.476   7.661   2.017
28106WAT      O84559   9.522   8.054   6.138
28106WAT     H184560   9.582   8.021   6.065
28106WAT     H284561   9.557   8.023   6.226
28107WAT      O84562   8.324   6.772   9.087
28107WAT     H184563   8.412   6.813   9.064
28107WAT     H284564   8.305   6.787   9.184
28108WAT      O84565   9.031   3.343   4.528
28108WAT     H184566   9.010   3.396   4.447
28108WAT     H284567   9.130   3.337   4.539
28109WAT      O84568   8.241   1.273   9.690
28109WAT     H184569   8.174   1.238   9.624
28109WAT     H284570   8.198   1.282   9.780
28110WAT      O84571   3.446   1.914   2.831
28110WAT     H184572   3.484   1.954   2.915
28110WAT     H284573   3.433   1.985   2.763
28111WAT      O84574   9.757   1.014   3.280
28111WAT     H184575   9.762   0.939   3.214
28111WAT     H284576   9.844   1.023   3.327
28112WAT      O84577   0.372   5.507   0.368
28112WAT     H184578   0.364   5.585   0.429
28112WAT     H284579   0.324   5.429   0.408
28113WAT      O84580   4.675   0.789   5.406
28113WAT     H184581   4.731   0.773   5.487
28113WAT     H284582   4.614   0.711   5.392
28114WAT      O84583   5.391   5.770   7.568
28114WAT     H184584   5.441   5.855   7.585
28114WAT     H284585   5.313   5.764   7.631
28115WAT      O84586   0.652   0.926   3.400
28115WAT     H184587   0.734   0.961   3.444
28115WAT     H284588   0.589   1.001   3.381
28116WAT      O84589   0.113   3.275   4.864
28116WAT     H184590   0.039   3.227   4.910
28116WAT     H284591   0.149   3.347   4.923
28117WAT      O84592   2.945   8.450   1.116
28117WAT     H184593   2.953   8.524   1.049
28117WAT     H284594   2.884   8.480   1.190
28118WAT      O84595   5.523   0.518   6.042
28118WAT     H184596   5.540   0.616   6.055
28118WAT     H284597   5.578   0.485   5.965
28119WAT      O84598   9.186   2.409   9.849
28119WAT     H184599   9.223   2.399   9.757
28119WAT     H284600   9.183   2.320   9.894
28120WAT      O84601   8.802   8.371   4.125
28120WAT     H184602   8.831   8.417   4.208
28120WAT     H284603   8.734   8.427   4.078
28121WAT      O84604   6.962   6.892   4.946
28121WAT     H184605   7.020   6.821   4.987
28121WAT     H284606   7.016   6.976   4.935
28122WAT      O84607   1.916   4.507   6.639
28122WAT     H184608   1.955   4.415   6.636
28122WAT     H284609   1.957   4.563   6.567
28123WAT      O84610   3.646   7.539   6.004
28123WAT     H184611   3.704   7.484   6.065
28123WAT     H284612   3.550   7.526   6.030
28124WAT      O84613   3.865   9.671   0.209
28124WAT     H184614   3.812   9.660   0.293
28124WAT     H284615   3.802   9.685   0.132
28125WAT      O84616   1.367   7.485   1.848
28125WAT     H184617   1.304   7.562   1.859
28125WAT     H284618   1.325   7.402   1.885
28126WAT      O84619   6.537   2.324   8.702
28126WAT     H184620   6.578   2.381   8.631
28126WAT     H284621   6.488   2.248   8.660
28127WAT      O84622   8.620   9.057   5.473
28127WAT     H184623   8.613   9.156   5.458
28127WAT     H284624   8.573   9.033   5.558
28128WAT      O84625   2.915   2.435   7.029
28128WAT     H184626   2.884   2.519   7.072
28128WAT     H284627   2.979   2.457   6.955
28129WAT      O84628   4.255   9.754   3.476
28129WAT     H184629   4.291   9.806   3.398
28129WAT     H284630   4.171   9.796   3.508
28130WAT      O84631   3.300   5.914   1.480
28130WAT     H184632   3.283   6.011   1.495
28130WAT     H284633   3.393   5.901   1.445
28131WAT      O84634   7.824   8.810   6.572
28131WAT     H184635   7.834   8.717   6.538
28131WAT     H284636   7.754   8.858   6.518
28132WAT      O84637   3.812   3.403   4.220
28132WAT     H184638   3.776   3.460   4.294
28132WAT     H284639   3.793   3.447   4.133
28133WAT      O84640   9.375   1.679   6.671
28133WAT     H184641   9.357   1.735   6.752
28133WAT     H284642   9.453   1.619   6.690
28134WAT      O84643   8.454   8.005   9.884
28134WAT     H184644   8.384   7.953   9.835
28134WAT     H284645   8.467   8.094   9.840
28135WAT      O84646   9.106   9.042   9.453
28135WAT     H184647   9.197   9.030   9.493
28135WAT     H284648   9.068   8.953   9.430
28136WAT      O84649   7.364   0.707   3.167
28136WAT     H184650   7.283   0.725   3.111
28136WAT     H284651   7.369   0.609   3.188
28137WAT      O84652   3.498   7.083   2.000
28137WAT     H184653   3.402   7.059   1.991
28137WAT     H284654   3.506   7.181   2.019
28138WAT      O84655   8.557   0.430   4.415
28138WAT     H184656   8.550   0.332   4.431
28138WAT     H284657   8.509   0.453   4.330
28139WAT      O84658   4.304   0.238   4.680
28139WAT     H184659   4.305   0.335   4.701
28139WAT     H284660   4.324   0.224   4.583
28140WAT      O84661   7.041   4.442   2.230
28140WAT     H184662   7.000   4.523   2.189
28140WAT     H284663   7.140   4.455   2.238
28141WAT      O84664   2.893   6.848   0.828
28141WAT     H184665   2.961   6.812   0.763
28141WAT     H284666   2.935   6.919   0.884
28142WAT      O84667   9.491   4.301   4.955
28142WAT     H184668   9.527   4.210   4.933
28142WAT     H284669   9.513   4.364   4.881
28143WAT      O84670   6.538   3.080   8.162
28143WAT     H184671   6.616   3.115   8.111
28143WAT     H284672   6.554   2.984   8.186
28144WAT      O84673   0.559   6.279   1.494
28144WAT     H184674   0.558   6.378   1.478
28144WAT     H284675   0.636   6.238   1.446
28145WAT      O84676   0.715   7.374   0.339
28145WAT     H184677   0.622   7.344   0.317
28145WAT     H284678   0.781   7.318   0.289
28146WAT      O84679   0.206   0.043   6.873
28146WAT     H184680   0.299   0.079   6.881
28146WAT     H284681   0.209  -0.046   6.827
28147WAT      O84682   8.597   5.071   5.612
28147WAT     H184683   8.634   5.164   5.613
28147WAT     H284684   8.671   5.006   5.593
28148WAT      O84685   8.718   1.121   6.570
28148WAT     H184686   8.688   1.210   6.537
28148WAT     H284687   8.735   1.125   6.669
28149WAT      O84688   8.692   3.925   4.056
28149WAT     H184689   8.616   3.969   4.009
28149WAT     H284690   8.699   3.959   4.149
28150WAT      O84691   5.582   0.799   0.465
28150WAT     H184692   5.511   0.866   0.443
28150WAT     H284693   5.548   0.707   0.443
28151WAT      O84694   3.063   3.724   3.940
28151WAT     H184695   3.004   3.663   3.888
28151WAT     H284696   3.053   3.818   3.906
28152WAT      O84697   9.316   1.829   3.217
28152WAT     H184698   9.289   1.831   3.121
28152WAT     H284699   9.406   1.786   3.224
28153WAT      O84700   2.412   6.716   0.800
28153WAT     H184701   2.343   6.750   0.736
28153WAT     H284702   2.398   6.619   0.816
28154WAT      O84703   2.373   7.938   8.396
28154WAT     H184704   2.287   7.941   8.446
28154WAT     H284705   2.370   7.863   8.330
28155WAT      O84706   1.567   4.835   8.536
28155WAT     H184707   1.514   4.858   8.455
28155WAT     H284708   1.541   4.895   8.612
28156WAT      O84709   0.361   8.816   7.431
28156WAT     H184710   0.422   8.740   7.407
28156WAT     H284711   0.308   8.843   7.351
28157WAT      O84712   1.260   7.265   4.411
28157WAT     H184713   1.206   7.186   4.385
28157WAT     H284714   1.356   7.238   4.420
28158WAT      O84715   7.567   4.490   0.947
28158WAT     H184716   7.596   4.586   0.951
28158WAT     H284717   7.578   4.456   0.854
28159WAT      O84718   4.408   4.101   8.615
28159WAT     H184719   4.475   4.099   8.690
28159WAT     H284720   4.381   4.195   8.597
28160WAT      O84721   1.355   4.390   7.926
28160WAT     H184722   1.259   4.416   7.928
28160WAT     H284723   1.381   4.366   7.832
28161WAT      O84724   7.828   5.384   3.167
28161WAT     H184725   7.844   5.302   3.224
28161WAT     H284726   7.879   5.375   3.082
28162WAT      O84727   7.689   9.718   7.925
28162WAT     H184728   7.631   9.748   8.001
28162WAT     H284729   7.687   9.787   7.852
28163WAT      O84730   0.151   9.017   4.654
28163WAT     H184731   0.234   9.063   4.685
28163WAT     H284732   0.115   9.063   4.573
28164WAT      O84733   2.289   3.362   9.865
28164WAT     H184734   2.315   3.329   9.956
28164WAT     H284735   2.248   3.453   9.873
28165WAT      O84736   4.436   2.487   6.536
28165WAT     H184737   4.486   2.456   6.456
28165WAT     H284738   4.501   2.522   6.604
28166WAT      O84739   6.775   2.671   0.459
28166WAT     H184740   6.792   2.749   0.399
28166WAT     H284741   6.863   2.630   0.485
28167WAT      O84742   3.252   6.467   0.039
28167WAT     H184743   3.336   6.512   0.008
28167WAT     H284744   3.182   6.477  -0.031
28168WAT      O84745   4.636   0.294   0.017
28168WAT     H184746   4.645   0.394   0.016
28168WAT     H284747   4.598   0.263  -0.069
28169WAT      O84748   0.603   9.731   6.298
28169WAT     H184749   0.598   9.709   6.396
28169WAT     H284750   0.631   9.650   6.247
28170WAT      O84751   1.469   4.981   1.474
28170WAT     H184752   1.419   4.899   1.446
28170WAT     H284753   1.552   4.954   1.523
28171WAT      O84754   0.878   7.580   7.452
28171WAT     H184755   0.859   7.667   7.498
28171WAT     H284756   0.880   7.506   7.519
28172WAT      O84757   7.305   2.964   5.666
28172WAT     H184758   7.382   2.915   5.707
28172WAT     H284759   7.285   3.046   5.720
28173WAT      O84760   1.296   6.416   4.911
28173WAT     H184761   1.297   6.479   4.989
28173WAT     H284762   1.293   6.469   4.826
28174WAT      O84763   5.155   2.917   5.145
28174WAT     H184764   5.214   2.923   5.226
28174WAT     H284765   5.212   2.922   5.063
28175WAT      O84766   9.261   3.230   4.301
28175WAT     H184767   9.267   3.287   4.383
28175WAT     H284768   9.287   3.283   4.221
28176WAT      O84769   1.113   7.555   6.277
28176WAT     H184770   1.047   7.603   6.219
28176WAT     H284771   1.067   7.480   6.324
28177WAT      O84772   1.333   5.336   1.217
28177WAT     H184773   1.296   5.300   1.131
28177WAT     H284774   1.258   5.352   1.281
28178WAT      O84775   0.462   1.570   8.582
28178WAT     H184776   0.481   1.638   8.653
28178WAT     H284777   0.477   1.611   8.492
28179WAT      O84778   9.533   4.462   8.798
28179WAT     H184779   9.570   4.552   8.819
28179WAT     H284780   9.568   4.432   8.710
28180WAT      O84781   4.094   1.172   3.836
28180WAT     H184782   4.181   1.218   3.852
28180WAT     H284783   4.070   1.118   3.917
28181WAT      O84784   6.822   3.600   4.311
28181WAT     H184785   6.788   3.652   4.389
28181WAT     H284786   6.906   3.551   4.337
28182WAT      O84787   9.402   9.297   4.589
28182WAT     H184788   9.440   9.389   4.602
28182WAT     H284789   9.378   9.284   4.493
28183WAT      O84790   3.460   9.481   9.295
28183WAT     H184791   3.481   9.526   9.382
28183WAT     H284792   3.363   9.493   9.274
28184WAT      O84793   8.419   1.461   5.213
28184WAT     H184794   8.461   1.550   5.225
28184WAT     H284795   8.461   1.395   5.276
28185WAT      O84796   0.151   0.199   8.036
28185WAT     H184797   0.061   0.240   8.030
28185WAT     H284798   0.214   0.247   7.976
28186WAT      O84799   8.551   6.338   2.330
28186WAT     H184800   8.575   6.368   2.422
28186WAT     H284801   8.543   6.238   2.329
28187WAT      O84802   5.656   2.195   4.309
28187WAT     H184803   5.629   2.120   4.370
28187WAT     H284804   5.753   2.214   4.320
28188WAT      O84805   8.767   3.812   4.741
28188WAT     H184806   8.682   3.796   4.791
28188WAT     H284807   8.836   3.746   4.770
28189WAT      O84808   6.224   8.735   5.035
28189WAT     H184809   6.162   8.754   5.111
28189WAT     H284810   6.270   8.647   5.051
28190WAT      O84811   8.282   0.603   1.671
28190WAT     H184812   8.315   0.581   1.579
28190WAT     H284813   8.223   0.684   1.667
28191WAT      O84814   1.722   9.189   6.782
28191WAT     H184815   1.759   9.192   6.874
28191WAT     H284816   1.780   9.131   6.724
28192WAT      O84817   5.001   1.326   8.404
28192WAT     H184818   5.047   1.279   8.479
28192WAT     H284819   5.006   1.425   8.419
28193WAT      O84820   3.142   4.115   2.375
28193WAT     H184821   3.167   4.147   2.283
28193WAT     H284822   3.130   4.194   2.435
28194WAT      O84823   1.874   2.846   7.129
28194WAT     H184824   1.843   2.807   7.216
28194WAT     H284825   1.886   2.772   7.062
28195WAT      O84826   5.241   5.381   7.030
28195WAT     H184827   5.201   5.299   7.072
28195WAT     H284828   5.227   5.460   7.090
28196WAT      O84829   8.614   2.375   2.577
28196WAT     H184830   8.709   2.402   2.561
28196WAT     H284831   8.598   2.285   2.537
28197WAT      O84832   8.997   8.956   2.601
28197WAT     H184833   9.018   8.948   2.698
28197WAT     H284834   8.929   8.887   2.576
28198WAT      O84835   9.272   5.188   2.323
28198WAT     H184836   9.193   5.239   2.356
28198WAT     H284837   9.330   5.248   2.268
28199WAT      O84838   4.542   6.321   7.830
28199WAT     H184839   4.593   6.237   7.850
28199WAT     H284840   4.499   6.355   7.913
28200WAT      O84841   9.866   8.478   6.053
28200WAT     H184842   9.940   8.418   6.084
28200WAT     H284843   9.787   8.422   6.029
28201WAT      O84844   2.225   8.173   9.198
28201WAT     H184845   2.221   8.248   9.132
28201WAT     H284846   2.318   8.137   9.201
28202WAT      O84847   4.998   1.640   4.965
28202WAT     H184848   5.083   1.669   4.921
28202WAT     H284849   5.002   1.663   5.062
28203WAT      O84850   1.054   2.622   5.709
28203WAT     H184851   1.115   2.699   5.726
28203WAT     H284852   1.028   2.620   5.612
28204WAT      O84853   6.559   8.340   2.482
28204WAT     H184854   6.648   8.369   2.518
28204WAT     H284855   6.486   8.374   2.541
28205WAT      O84856   2.024   6.723   3.484
28205WAT     H184857   2.032   6.723   3.384
28205WAT     H284858   2.003   6.631   3.516
28206WAT      O84859   4.552   4.597   7.044
28206WAT     H184860   4.593   4.568   6.958
28206WAT     H284861   4.580   4.535   7.117
28207WAT      O84862   8.442   1.066   1.708
28207WAT     H184863   8.416   1.081   1.613
28207WAT     H284864   8.361   1.041   1.762
28208WAT      O84865   4.589   8.587   8.292
28208WAT     H184866   4.595   8.681   8.324
28208WAT     H284867   4.498   8.550   8.311
28209WAT      O84868   7.462   2.000   9.213
28209WAT     H184869   7.497   1.913   9.247
28209WAT     H284870   7.397   1.983   9.139
28210WAT      O84871   2.136   4.067   5.066
28210WAT     H184872   2.053   4.046   5.118
28210WAT     H284873   2.151   3.996   4.998
28211WAT      O84874   3.431   2.506   2.543
28211WAT     H184875   3.363   2.434   2.530
28211WAT     H284876   3.423   2.573   2.470
28212WAT      O84877   7.612   8.199   8.041
28212WAT     H184878   7.675   8.134   7.997
28212WAT     H284879   7.526   8.200   7.990
28213WAT      O84880   2.599   9.006   2.533
28213WAT     H184881   2.530   8.934   2.533
28213WAT     H284882   2.680   8.974   2.484
28214WAT      O84883   2.135  -0.004   8.344
28214WAT     H184884   2.147   0.030   8.251
28214WAT     H284885   2.151   0.070   8.409
28215WAT      O84886   3.314   8.902   8.517
28215WAT     H184887   3.266   8.893   8.429
28215WAT     H284888   3.343   8.996   8.530
28216WAT      O84889   8.198   5.483   7.220
28216WAT     H184890   8.294   5.504   7.241
28216WAT     H284891   8.140   5.508   7.297
28217WAT      O84892   6.949   2.674   9.590
28217WAT     H184893   6.912   2.595   9.540
28217WAT     H284894   6.891   2.753   9.574
28218WAT      O84895   3.129   4.245   5.674
28218WAT     H184896   3.213   4.232   5.621
28218WAT     H284897   3.133   4.332   5.722
28219WAT      O84898   3.974   0.182   3.353
28219WAT     H184899   3.917   0.253   3.395
28219WAT     H284900   3.980   0.103   3.415
28220WAT      O84901   1.609   8.226   6.147
28220WAT     H184902   1.603   8.325   6.133
28220WAT     H284903   1.532   8.195   6.202
28221WAT      O84904   5.685   9.026   8.133
28221WAT     H184905   5.760   8.965   8.111
28221WAT     H284906   5.669   9.025   8.231
28222WAT      O84907   1.921   1.788   7.206
28222WAT     H184908   1.936   1.839   7.290
28222WAT     H284909   1.868   1.844   7.142
28223WAT      O84910   1.934   0.808   1.907
28223WAT     H184911   1.902   0.796   1.814
28223WAT     H284912   1.864   0.776   1.971
28224WAT      O84913   4.599   5.303   4.325
28224WAT     H184914   4.574   5.370   4.255
28224WAT     H284915   4.636   5.221   4.281
28225WAT      O84916   1.565   2.345   5.132
28225WAT     H184917   1.490   2.296   5.087
28225WAT     H284918   1.590   2.425   5.077
28226WAT      O84919   0.261   3.391   2.778
28226WAT     H184920   0.268   3.296   2.808
28226WAT     H284921   0.265   3.451   2.858
28227WAT      O84922   5.135   8.417   5.830
28227WAT     H184923   5.115   8.342   5.767
28227WAT     H284924   5.185   8.382   5.909
28228WAT      O84925   0.344   1.884   0.259
28228WAT     H184926   0.379   1.803   0.212
28228WAT     H284927   0.317   1.953   0.191
28229WAT      O84928   5.443   2.265   2.312
28229WAT     H184929   5.503   2.285   2.235
28229WAT     H284930   5.461   2.330   2.386
28230WAT      O84931   3.739   1.090   3.493
28230WAT     H184932   3.770   1.087   3.398
28230WAT     H284933   3.818   1.097   3.554
28231WAT      O84934   1.677   5.087   6.033
28231WAT     H184935   1.613   5.163   6.021
28231WAT     H284936   1.663   5.045   6.123
28232WAT      O84937   0.059   2.848   9.136
28232WAT     H184938   0.008   2.838   9.221
28232WAT     H284939   0.022   2.786   9.067
28233WAT      O84940   7.803   1.197   0.526
28233WAT     H184941   7.749   1.114   0.535
28233WAT     H284942   7.786   1.238   0.436
28234WAT      O84943   7.903   1.413   2.719
28234WAT     H184944   7.913   1.484   2.789
28234WAT     H284945   7.817   1.425   2.670
28235WAT      O84946   6.244   7.470   8.390
28235WAT     H184947   6.200   7.554   8.422
28235WAT     H284948   6.336   7.490   8.356
28236WAT      O84949   3.405   5.416   6.121
28236WAT     H184950   3.398   5.382   6.028
28236WAT     H284951   3.404   5.339   6.185
28237WAT      O84952   6.929   5.166   4.218
28237WAT     H184953   7.003   5.158   4.283
28237WAT     H284954   6.913   5.262   4.197
28238WAT      O84955   5.158   1.898   7.754
28238WAT     H184956   5.228   1.840   7.712
28238WAT     H284957   5.196   1.988   7.771
28239WAT      O84958   5.900   1.270   8.428
28239WAT     H184959   5.923   1.341   8.361
28239WAT     H284960   5.953   1.188   8.409
28240WAT      O84961   4.724   9.024   2.453
28240WAT     H184962   4.657   8.963   2.496
28240WAT     H284963   4.816   8.997   2.480
28241WAT      O84964   0.895   4.748   3.935
28241WAT     H184965   0.966   4.682   3.908
28241WAT     H284966   0.891   4.821   3.868
28242WAT      O84967   6.264   2.884   7.082
28242WAT     H184968   6.281   2.893   7.180
28242WAT     H284969   6.349   2.858   7.036
28243WAT      O84970   9.516   1.391   2.349
28243WAT     H184971   9.604   1.351   2.323
28243WAT     H284972   9.523   1.430   2.441
28244WAT      O84973   1.459   8.262   2.650
28244WAT     H184974   1.402   8.340   2.677
28244WAT     H284975   1.553   8.294   2.634
28245WAT      O84976   3.825   6.141   4.295
28245WAT     H184977   3.761   6.217   4.293
28245WAT     H284978   3.806   6.080   4.218
28246WAT      O84979   5.119   0.821   6.940
28246WAT     H184980   5.133   0.909   6.985
28246WAT     H284981   5.185   0.810   6.865
28247WAT      O84982   8.102   8.260   6.447
28247WAT     H184983   8.004   8.274   6.431
28247WAT     H284984   8.117   8.236   6.543
28248WAT      O84985   1.737   2.737   8.609
28248WAT     H184986   1.831   2.720   8.636
28248WAT     H284987   1.704   2.821   8.652
28249WAT      O84988   4.462   4.626   6.651
28249WAT     H184989   4.369   4.623   6.689
28249WAT     H284990   4.469   4.704   6.588
28250WAT      O84991   3.116   6.865   3.531
28250WAT     H184992   3.142   6.864   3.628
28250WAT     H284993   3.143   6.779   3.488
28251WAT      O84994   8.072   8.768   6.450
28251WAT     H184995   8.031   8.789   6.361
28251WAT     H284996   8.127   8.846   6.481
28252WAT      O84997   7.206   1.172   2.691
28252WAT     H184998   7.282   1.171   2.756
28252WAT     H284999   7.145   1.095   2.708
28253WAT      O85000   5.194   9.095   2.493
28253WAT     H185001   5.185   9.152   2.411
28253WAT     H285002   5.155   9.143   2.571
28254WAT      O85003   2.873   7.745   8.602
28254WAT     H185004   2.809   7.809   8.560
28254WAT     H285005   2.917   7.789   8.681
28255WAT      O85006   2.208   1.279   0.739
28255WAT     H185007   2.277   1.346   0.768
28255WAT     H285008   2.219   1.259   0.642
28256WAT      O85009   8.885   9.203   6.701
28256WAT     H185010   8.966   9.211   6.760
28256WAT     H285011   8.835   9.289   6.702
28257WAT      O85012   1.173   5.857   6.723
28257WAT     H185013   1.079   5.841   6.752
28257WAT     H285014   1.206   5.944   6.760
28258WAT      O85015   2.009   8.748   3.016
28258WAT     H185016   1.978   8.679   3.082
28258WAT     H285017   2.106   8.732   2.995
28259WAT      O85018   6.339   0.474   8.534
28259WAT     H185019   6.409   0.546   8.542
28259WAT     H285020   6.383   0.388   8.507
28260WAT      O85021   6.116   3.553   6.233
28260WAT     H185022   6.112   3.637   6.179
28260WAT     H285023   6.208   3.540   6.268
28261WAT      O85024   1.631   3.177   2.270
28261WAT     H185025   1.542   3.137   2.251
28261WAT     H285026   1.634   3.271   2.236
28262WAT      O85027   7.892   9.152   3.025
28262WAT     H185028   7.936   9.094   3.093
28262WAT     H285029   7.825   9.098   2.973
28263WAT      O85030   6.104   1.092   8.395
28263WAT     H185031   6.107   1.001   8.435
28263WAT     H285032   6.136   1.088   8.300
28264WAT      O85033   0.208   6.920   3.464
28264WAT     H185034   0.171   7.007   3.496
28264WAT     H285035   0.306   6.928   3.450
28265WAT      O85036   8.037   7.106   8.483
28265WAT     H185037   8.107   7.144   8.422
28265WAT     H285038   8.019   7.011   8.457
28266WAT      O85039   4.625   0.784   6.958
28266WAT     H185040   4.723   0.770   6.964
28266WAT     H285041   4.584   0.714   6.900
28267WAT      O85042   0.615   8.254   4.169
28267WAT     H185043   0.591   8.166   4.128
28267WAT     H285044   0.629   8.243   4.267
28268WAT      O85045   2.262   4.665   4.776
28268WAT     H185046   2.339   4.702   4.726
28268WAT     H285047   2.180   4.719   4.757
28269WAT      O85048   2.886   4.841   7.233
28269WAT     H185049   2.797   4.872   7.266
28269WAT     H285050   2.918   4.764   7.289
28270WAT      O85051   4.474   2.096   0.442
28270WAT     H185052   4.525   2.182   0.434
28270WAT     H285053   4.509   2.030   0.376
28271WAT      O85054   5.659   4.911   2.522
28271WAT     H185055   5.712   4.829   2.499
28271WAT     H285056   5.722   4.984   2.549
28272WAT      O85057   8.055   7.252   3.686
28272WAT     H185058   7.966   7.266   3.729
28272WAT     H285059   8.043   7.240   3.587
28273WAT      O85060   4.759   6.174   7.911
28273WAT     H185061   4.816   6.179   7.829
28273WAT     H285062   4.797   6.234   7.981
28274WAT      O85063   7.670   1.120   2.006
28274WAT     H185064   7.670   1.035   1.954
28274WAT     H285065   7.730   1.186   1.962
28275WAT      O85066   0.414   6.906   2.445
28275WAT     H185067   0.459   6.854   2.517
28275WAT     H285068   0.416   7.003   2.468
28276WAT      O85069   1.412   9.219   4.302
28276WAT     H185070   1.360   9.268   4.373
28276WAT     H285071   1.349   9.179   4.236
28277WAT      O85072   9.714   7.368   9.565
28277WAT     H185073   9.737   7.272   9.580
28277WAT     H285074   9.793   7.425   9.589
28278WAT      O85075   2.986   6.582   5.807
28278WAT     H185076   3.023   6.672   5.828
28278WAT     H285077   3.057   6.513   5.817
28279WAT      O85078   4.396   1.777   5.848
28279WAT     H185079   4.473   1.780   5.911
28279WAT     H285080   4.331   1.850   5.871
28280WAT      O85081   2.640   6.474   1.132
28280WAT     H185082   2.546   6.495   1.160
28280WAT     H285083   2.668   6.537   1.060
28281WAT      O85084   7.016   5.648   9.586
28281WAT     H185085   7.073   5.696   9.519
28281WAT     H285086   6.941   5.601   9.539
28282WAT      O85087   6.365   5.067   5.081
28282WAT     H185088   6.329   5.147   5.033
28282WAT     H285089   6.412   5.096   5.164
28283WAT      O85090   1.394   6.293   0.845
28283WAT     H185091   1.331   6.243   0.905
28283WAT     H285092   1.460   6.230   0.806
28284WAT      O85093   8.109   3.840   8.921
28284WAT     H185094   8.053   3.773   8.872
28284WAT     H285095   8.145   3.907   8.856
28285WAT      O85096   4.579   3.855   6.787
28285WAT     H185097   4.653   3.857   6.719
28285WAT     H285098   4.495   3.826   6.743
28286WAT      O85099   2.164   0.682   0.550
28286WAT     H185100   2.126   0.697   0.459
28286WAT     H285101   2.131   0.753   0.612
28287WAT      O85102   3.440   2.994   3.093
28287WAT     H185103   3.373   3.059   3.127
28287WAT     H285104   3.531   3.019   3.126
28288WAT      O85105   3.139   4.500   5.818
28288WAT     H185106   3.075   4.577   5.829
28288WAT     H285107   3.224   4.521   5.866
28289WAT      O85108   9.037   7.490   1.352
28289WAT     H185109   9.134   7.481   1.376
28289WAT     H285110   9.027   7.555   1.278
28290WAT      O85111   9.121   8.408   8.578
28290WAT     H185112   9.074   8.464   8.509
28290WAT     H285113   9.218   8.401   8.555
28291WAT      O85114   5.012   6.259   6.908
28291WAT     H185115   5.065   6.177   6.892
28291WAT     H285116   4.932   6.260   6.846
28292WAT      O85117   8.446   2.849   1.814
28292WAT     H185118   8.493   2.925   1.858
28292WAT     H285119   8.350   2.849   1.841
28293WAT      O85120   2.828   4.901   4.080
28293WAT     H185121   2.748   4.956   4.105
28293WAT     H285122   2.853   4.842   4.157
28294WAT      O85123   3.659   7.688   1.352
28294WAT     H185124   3.758   7.675   1.354
28294WAT     H285125   3.638   7.785   1.362
28295WAT      O85126   6.696   2.557   9.087
28295WAT     H185127   6.639   2.559   9.005
28295WAT     H285128   6.786   2.519   9.065
28296WAT      O85129   8.669   1.803   6.627
28296WAT     H185130   8.732   1.757   6.563
28296WAT     H285131   8.589   1.745   6.643
28297WAT      O85132   9.830   1.362   5.202
28297WAT     H185133   9.902   1.306   5.162
28297WAT     H285134   9.803   1.326   5.291
28298WAT      O85135   9.881   1.825   4.360
28298WAT     H185136   9.811   1.757   4.383
28298WAT     H285137   9.952   1.823   4.430
28299WAT      O85138   3.504   7.872   6.878
28299WAT     H185139   3.564   7.918   6.813
28299WAT     H285140   3.557   7.835   6.953
28300WAT      O85141   6.615   9.352   0.705
28300WAT     H185142   6.584   9.436   0.659
28300WAT     H285143   6.705   9.327   0.670
28301WAT      O85144   3.888   5.174   0.565
28301WAT     H185145   3.857   5.090   0.520
28301WAT     H285146   3.823   5.248   0.544
28302WAT      O85147   3.957   9.068   0.066
28302WAT     H185148   3.917   9.115  -0.013
28302WAT     H285149   3.893   9.071   0.142
28303WAT      O85150   2.087   4.592   3.946
28303WAT     H185151   2.182   4.563   3.940
28303WAT     H285152   2.031   4.536   3.885
28304WAT      O85153   7.558   3.477   0.211
28304WAT     H185154   7.537   3.395   0.266
28304WAT     H285155   7.576   3.450   0.117
28305WAT      O85156   4.907   3.849   1.962
28305WAT     H185157   4.967   3.893   2.028
28305WAT     H285158   4.941   3.756   1.943
28306WAT      O85159   8.076   4.535   3.780
28306WAT     H185160   8.025   4.454   3.753
28306WAT     H285161   8.125   4.571   3.700
28307WAT      O85162   8.768   4.443   0.943
28307WAT     H185163   8.827   4.363   0.941
28307WAT     H285164   8.688   4.427   0.886
28308WAT      O85165   8.533   9.620   0.518
28308WAT     H185166   8.459   9.558   0.544
28308WAT     H285167   8.522   9.707   0.567
28309WAT      O85168   3.361   7.473   3.944
28309WAT     H185169   3.385   7.377   3.957
28309WAT     H285170   3.275   7.493   3.990
28310WAT      O85171   0.575   7.042   1.234
28310WAT     H185172   0.674   7.032   1.225
28310WAT     H285173   0.554   7.130   1.277
28311WAT      O85174   8.850   2.231   9.458
28311WAT     H185175   8.832   2.179   9.542
28311WAT     H285176   8.938   2.203   9.420
28312WAT      O85177   0.209   1.048   3.538
28312WAT     H185178   0.177   1.123   3.596
28312WAT     H285179   0.148   0.970   3.549
28313WAT      O85180   4.278   3.212   1.218
28313WAT     H185181   4.308   3.169   1.303
28313WAT     H285182   4.346   3.279   1.189
28314WAT      O85183   6.342   9.326   9.114
28314WAT     H185184   6.276   9.330   9.189
28314WAT     H285185   6.400   9.244   9.124
28315WAT      O85186   1.938   6.533   1.219
28315WAT     H185187   1.975   6.451   1.176
28315WAT     H285188   1.890   6.588   1.151
28316WAT      O85189   7.229   4.646   2.742
28316WAT     H185190   7.283   4.679   2.819
28316WAT     H285191   7.218   4.719   2.675
28317WAT      O85192   9.689   9.463   3.882
28317WAT     H185193   9.607   9.515   3.857
28317WAT     H285194   9.664   9.389   3.944
28318WAT      O85195   6.510   9.828   4.578
28318WAT     H185196   6.570   9.748   4.576
28318WAT     H285197   6.486   9.849   4.672
28319WAT      O85198   1.384   6.375   8.152
28319WAT     H185199   1.335   6.449   8.104
28319WAT     H285200   1.323   6.297   8.164
28320WAT      O85201   5.949   7.938   1.493
28320WAT     H185202   5.925   7.854   1.543
28320WAT     H285203   6.032   7.976   1.534
28321WAT      O85204   8.999   8.292   7.305
28321WAT     H185205   8.938   8.362   7.267
28321WAT     H285206   9.066   8.336   7.364
28322WAT      O85207   4.507   1.915   6.108
28322WAT     H185208   4.430   1.892   6.168
28322WAT     H285209   4.495   2.007   6.072
28323WAT      O85210   9.310   4.955   4.012
28323WAT     H185211   9.409   4.951   4.000
28323WAT     H285212   9.272   4.863   4.014
28324WAT      O85213   0.413   7.141   2.020
28324WAT     H185214   0.313   7.148   2.015
28324WAT     H285215   0.445   7.185   2.104
28325WAT      O85216   3.257   7.916   7.506
28325WAT     H185217   3.252   7.901   7.407
28325WAT     H285218   3.250   8.014   7.525
28326WAT      O85219   3.767   9.388   9.414
28326WAT     H185220   3.809   9.310   9.460
28326WAT     H285221   3.692   9.355   9.355
28327WAT      O85222   2.742   2.637   4.003
28327WAT     H185223   2.777   2.578   4.075
28327WAT     H285224   2.717   2.726   4.041
28328WAT      O85225   0.973   5.393   0.788
28328WAT     H185226   1.002   5.489   0.800
28328WAT     H285227   0.875   5.390   0.772
28329WAT      O85228   1.300   6.556   4.668
28329WAT     H185229   1.383   6.509   4.637
28329WAT     H285230   1.308   6.654   4.649
28330WAT      O85231   4.732   5.737   9.211
28330WAT     H185232   4.747   5.829   9.173
28330WAT     H285233   4.639   5.707   9.190
28331WAT      O85234   0.809   1.518   8.803
28331WAT     H185235   0.764   1.435   8.769
28331WAT     H285236   0.791   1.593   8.740
28332WAT      O85237   6.104   9.322   9.865
28332WAT     H185238   6.055   9.266   9.931
28332WAT     H285239   6.057   9.318   9.776
28333WAT      O85240   7.019   3.181   8.622
28333WAT     H185241   6.993   3.148   8.713
28333WAT     H285242   6.939   3.221   8.576
28334WAT      O85243   5.130   8.840   0.695
28334WAT     H185244   5.222   8.857   0.729
28334WAT     H285245   5.130   8.843   0.596
28335WAT      O85246   3.163   0.427   3.092
28335WAT     H185247   3.132   0.504   3.036
28335WAT     H285248   3.085   0.385   3.137
28336WAT      O85249   2.360   5.795   3.743
28336WAT     H185250   2.376   5.700   3.714
28336WAT     H285251   2.271   5.825   3.708
28337WAT      O85252   9.810   3.231   2.280
28337WAT     H185253   9.735   3.183   2.326
28337WAT     H285254   9.875   3.264   2.348
28338WAT      O85255   9.180   7.513   7.148
28338WAT     H185256   9.144   7.562   7.227
28338WAT     H285257   9.273   7.545   7.129
28339WAT      O85258   6.675   8.407   3.114
28339WAT     H185259   6.726   8.348   3.052
28339WAT     H285260   6.705   8.502   3.102
28340WAT      O85261   1.969   6.139   2.303
28340WAT     H185262   1.869   6.137   2.314
28340WAT     H285263   1.997   6.062   2.246
28341WAT      O85264   6.126   4.399   2.546
28341WAT     H185265   6.172   4.484   2.571
28341WAT     H285266   6.186   4.322   2.564
28342WAT      O85267   7.491   8.564   2.751
28342WAT     H185268   7.451   8.489   2.699
28342WAT     H285269   7.487   8.544   2.849
28343WAT      O85270   4.950   9.421   6.979
28343WAT     H185271   4.953   9.380   6.888
28343WAT     H285272   5.041   9.451   7.006
28344WAT      O85273   4.776   9.674   2.257
28344WAT     H185274   4.729   9.600   2.210
28344WAT     H285275   4.868   9.683   2.221
28345WAT      O85276   8.393   0.825   2.833
28345WAT     H185277   8.325   0.766   2.790
28345WAT     H285278   8.371   0.921   2.813
28346WAT      O85279   8.833   0.912   3.805
28346WAT     H185280   8.824   0.973   3.884
28346WAT     H285281   8.752   0.854   3.798
28347WAT      O85282   0.222   6.195   6.138
28347WAT     H185283   0.143   6.237   6.093
28347WAT     H285284   0.195   6.107   6.177
28348WAT      O85285   0.459   6.136   0.182
28348WAT     H185286   0.497   6.092   0.101
28348WAT     H285287   0.363   6.112   0.192
28349WAT      O85288   2.118   5.253   7.718
28349WAT     H185289   2.152   5.289   7.805
28349WAT     H285290   2.031   5.206   7.733
28350WAT      O85291   3.136   9.428   1.518
28350WAT     H185292   3.086   9.489   1.457
28350WAT     H285293   3.186   9.482   1.586
28351WAT      O85294   7.872   1.464   0.899
28351WAT     H185295   7.784   1.419   0.920
28351WAT     H285296   7.907   1.507   0.981
28352WAT      O85297   8.830   5.260   8.557
28352WAT     H185298   8.904   5.207   8.599
28352WAT     H285299   8.844   5.264   8.458
28353WAT      O85300   1.447   9.137   6.719
28353WAT     H185301   1.415   9.095   6.634
28353WAT     H285302   1.546   9.122   6.727
28354WAT      O85303   8.619   7.086   2.193
28354WAT     H185304   8.598   7.098   2.096
28354WAT     H285305   8.548   7.030   2.236
28355WAT      O85306   6.584   3.161   0.060
28355WAT     H185307   6.493   3.138   0.095
28355WAT     H285308   6.642   3.193   0.135
28356WAT      O85309   9.171   5.889   3.490
28356WAT     H185310   9.132   5.976   3.460
28356WAT     H285311   9.101   5.818   3.484
28357WAT      O85312   3.527   3.012   5.450
28357WAT     H185313   3.586   3.050   5.522
28357WAT     H285314   3.558   2.920   5.427
28358WAT      O85315   7.081   1.269   8.896
28358WAT     H185316   7.063   1.314   8.984
28358WAT     H285317   7.002   1.213   8.871
28359WAT      O85318   3.843   7.359   8.926
28359WAT     H185319   3.832   7.405   8.838
28359WAT     H285320   3.768   7.294   8.939
28360WAT      O85321   6.515   3.765   5.884
28360WAT     H185322   6.500   3.850   5.833
28360WAT     H285323   6.561   3.787   5.971
28361WAT      O85324   4.316   1.947   9.140
28361WAT     H185325   4.245   1.892   9.182
28361WAT     H285326   4.298   2.044   9.156
28362WAT      O85327   1.710   4.436   4.128
28362WAT     H185328   1.792   4.430   4.071
28362WAT     H285329   1.633   4.392   4.081
28363WAT      O85330   1.032   6.501   4.583
28363WAT     H185331   1.127   6.515   4.612
28363WAT     H285332   0.972   6.508   4.662
28364WAT      O85333   6.452   4.087   3.198
28364WAT     H185334   6.427   4.049   3.109
28364WAT     H285335   6.450   4.016   3.267
28365WAT      O85336   4.432   4.324   8.991
28365WAT     H185337   4.382   4.377   9.060
28365WAT     H285338   4.512   4.282   9.032
28366WAT      O85339   4.316   8.048   6.841
28366WAT     H185340   4.313   7.951   6.865
28366WAT     H285341   4.314   8.057   6.741
28367WAT      O85342   9.246   5.830   5.252
28367WAT     H185343   9.279   5.736   5.236
28367WAT     H285344   9.300   5.872   5.325
28368WAT      O85345   6.790   4.685   8.620
28368WAT     H185346   6.821   4.603   8.571
28368WAT     H285347   6.835   4.689   8.709
28369WAT      O85348   4.300   6.460   4.864
28369WAT     H185349   4.213   6.480   4.909
28369WAT     H285350   4.324   6.536   4.803
28370WAT      O85351   3.359   8.796   4.853
28370WAT     H185352   3.348   8.794   4.754
28370WAT     H285353   3.376   8.890   4.882
28371WAT      O85354   0.274   3.043   9.571
28371WAT     H185355   0.242   3.021   9.479
28371WAT     H285356   0.351   2.984   9.595
28372WAT      O85357   0.840   0.547   9.344
28372WAT     H185358   0.859   0.621   9.409
28372WAT     H285359   0.774   0.483   9.384
28373WAT      O85360   9.710   2.276   5.850
28373WAT     H185361   9.724   2.362   5.801
28373WAT     H285362   9.785   2.260   5.914
28374WAT      O85363   0.154   3.766   4.700
28374WAT     H185364   0.159   3.668   4.680
28374WAT     H285365   0.161   3.818   4.615
28375WAT      O85366   0.043   2.507   4.456
28375WAT     H185367   0.101   2.537   4.380
28375WAT     H285368   0.013   2.413   4.439
28376WAT      O85369   4.185   2.334   7.728
28376WAT     H185370   4.171   2.235   7.733
28376WAT     H285371   4.098   2.379   7.708
28377WAT      O85372   6.244   1.446   0.299
28377WAT     H185373   6.270   1.468   0.393
28377WAT     H285374   6.236   1.530   0.247
28378WAT      O85375   1.162   5.326   9.680
28378WAT     H185376   1.108   5.262   9.625
28378WAT     H285377   1.112   5.412   9.687
28379WAT      O85378   1.271   8.259   1.532
28379WAT     H185379   1.346   8.216   1.483
28379WAT     H285380   1.306   8.310   1.610
28380WAT      O85381   5.205   2.099   8.481
28380WAT     H185382   5.136   2.114   8.411
28380WAT     H285383   5.264   2.022   8.454
28381WAT      O85384   6.040   8.689   1.698
28381WAT     H185385   5.955   8.726   1.659
28381WAT     H285386   6.115   8.705   1.634
28382WAT      O85387   7.437   3.484   1.729
28382WAT     H185388   7.445   3.463   1.632
28382WAT     H285389   7.444   3.583   1.742
28383WAT      O85390   2.620   4.972   5.099
28383WAT     H185391   2.682   4.943   5.026
28383WAT     H285392   2.669   4.977   5.185
28384WAT      O85393   6.966   3.032   5.299
28384WAT     H185394   6.893   3.094   5.270
28384WAT     H285395   7.054   3.078   5.290
28385WAT      O85396   3.703   3.984   5.087
28385WAT     H185397   3.769   3.971   5.162
28385WAT     H285398   3.651   3.899   5.074
28386WAT      O85399   9.262   2.503   1.568
28386WAT     H185400   9.224   2.519   1.476
28386WAT     H285401   9.235   2.413   1.600
28387WAT      O85402   3.829   1.373   4.036
28387WAT     H185403   3.781   1.458   4.053
28387WAT     H285404   3.872   1.341   4.120
28388WAT      O85405   6.956   7.812   2.267
28388WAT     H185406   7.039   7.840   2.317
28388WAT     H285407   6.883   7.878   2.285
28389WAT      O85408   5.088   2.387   7.607
28389WAT     H185409   5.171   2.365   7.658
28389WAT     H285410   5.084   2.486   7.593
28390WAT      O85411   6.594   5.181   0.323
28390WAT     H185412   6.576   5.083   0.338
28390WAT     H285413   6.512   5.234   0.345
28391WAT      O85414   5.910   8.229   1.118
28391WAT     H185415   5.960   8.215   1.204
28391WAT     H285416   5.972   8.268   1.050
28392WAT      O85417   1.801   2.443   1.632
28392WAT     H185418   1.810   2.433   1.533
28392WAT     H285419   1.744   2.369   1.669
28393WAT      O85420   7.792   4.403   7.783
28393WAT     H185421   7.833   4.314   7.759
28393WAT     H285422   7.714   4.388   7.845
28394WAT      O85423   0.096   4.130   0.487
28394WAT     H185424   0.054   4.127   0.396
28394WAT     H285425   0.177   4.188   0.484
28395WAT      O85426   7.245   1.041   7.737
28395WAT     H185427   7.216   0.982   7.813
28395WAT     H285428   7.272   1.130   7.773
28396WAT      O85429   2.658   6.931   9.671
28396WAT     H185430   2.688   6.953   9.763
28396WAT     H285431   2.633   6.834   9.665
28397WAT      O85432   7.121   1.380   8.243
28397WAT     H185433   7.158   1.287   8.246
28397WAT     H285434   7.193   1.445   8.263
28398WAT      O85435   1.271   6.760   4.006
28398WAT     H185436   1.244   6.797   3.917
28398WAT     H285437   1.370   6.749   4.009
28399WAT      O85438   1.254   4.189   6.591
28399WAT     H185439   1.332   4.199   6.529
28399WAT     H285440   1.238   4.275   6.639
28400WAT      O85441   6.433   6.043   6.099
28400WAT     H185442   6.364   6.051   6.172
28400WAT     H285443   6.436   5.948   6.068
28401WAT      O85444   6.927   6.456   7.132
28401WAT     H185445   6.829   6.439   7.134
28401WAT     H285446   6.947   6.541   7.180
28402WAT      O85447   9.569   8.161   9.742
28402WAT     H185448   9.583   8.139   9.646
28402WAT     H285449   9.523   8.084   9.788
28403WAT      O85450   3.706   2.857   4.742
28403WAT     H185451   3.630   2.861   4.806
28403WAT     H285452   3.689   2.919   4.666
28404WAT      O85453   4.800   3.143   2.399
28404WAT     H185454   4.770   3.061   2.448
28404WAT     H285455   4.769   3.138   2.304
28405WAT      O85456   0.980   2.765   6.695
28405WAT     H185457   1.032   2.741   6.777
28405WAT     H285458   1.040   2.813   6.631
28406WAT      O85459   8.471   6.073   7.653
28406WAT     H185460   8.500   6.153   7.706
28406WAT     H285461   8.521   5.993   7.685
28407WAT      O85462   0.726   6.516   1.202
28407WAT     H185463   0.715   6.469   1.114
28407WAT     H285464   0.675   6.602   1.199
28408WAT      O85465   2.432   3.756   5.733
28408WAT     H185466   2.337   3.733   5.757
28408WAT     H285467   2.480   3.673   5.705
28409WAT      O85468   3.818   3.196   1.399
28409WAT     H185469   3.755   3.264   1.362
28409WAT     H285470   3.908   3.207   1.356
28410WAT      O85471   7.251   5.422   0.929
28410WAT     H185472   7.172   5.399   0.986
28410WAT     H285473   7.282   5.514   0.952
28411WAT      O85474   1.859   9.364   9.140
28411WAT     H185475   1.790   9.293   9.122
28411WAT     H285476   1.927   9.328   9.203
28412WAT      O85477   0.792   8.496   6.067
28412WAT     H185478   0.843   8.581   6.079
28412WAT     H285479   0.697   8.516   6.045
28413WAT      O85480   8.902   8.792   1.076
28413WAT     H185481   8.813   8.758   1.106
28413WAT     H285482   8.889   8.855   0.999
28414WAT      O85483   3.724   9.318   0.685
28414WAT     H185484   3.633   9.324   0.644
28414WAT     H285485   3.723   9.361   0.775
28415WAT      O85486   0.278   2.236   4.603
28415WAT     H185487   0.240   2.251   4.512
28415WAT     H285488   0.228   2.292   4.669
28416WAT      O85489   1.594   3.254   6.436
28416WAT     H185490   1.669   3.192   6.459
28416WAT     H285491   1.581   3.256   6.337
28417WAT      O85492   9.351   9.089   9.583
28417WAT     H185493   9.400   9.010   9.619
28417WAT     H285494   9.323   9.148   9.659
28418WAT      O85495   6.112   3.454   9.348
28418WAT     H185496   6.072   3.458   9.257
28418WAT     H285497   6.182   3.382   9.351
28419WAT      O85498   0.233   3.537   9.228
28419WAT     H185499   0.253   3.484   9.311
28419WAT     H285500   0.226   3.634   9.251
28420WAT      O85501   5.289   5.126   4.302
28420WAT     H185502   5.329   5.198   4.358
28420WAT     H285503   5.361   5.061   4.275
28421WAT      O85504   7.261   6.134   7.054
28421WAT     H185505   7.194   6.112   7.124
28421WAT     H285506   7.269   6.233   7.044
28422WAT      O85507   9.320   7.968   2.827
28422WAT     H185508   9.414   7.965   2.795
28422WAT     H285509   9.284   8.061   2.817
28423WAT      O85510   7.026   7.928   8.363
28423WAT     H185511   7.025   8.027   8.377
28423WAT     H285512   7.076   7.907   8.279
28424WAT      O85513   8.057   8.849   3.976
28424WAT     H185514   7.973   8.873   4.026
28424WAT     H285515   8.046   8.875   3.880
28425WAT      O85516   5.772   4.458   2.260
28425WAT     H185517   5.698   4.483   2.197
28425WAT     H285518   5.733   4.426   2.346
28426WAT      O85519   1.789   8.226   2.252
28426WAT     H185520   1.701   8.254   2.213
28426WAT     H285521   1.775   8.193   2.345
28427WAT      O85522   7.405   7.311   7.213
28427WAT     H185523   7.402   7.319   7.114
28427WAT     H285524   7.336   7.370   7.254
28428WAT      O85525   4.756   1.118   9.797
28428WAT     H185526   4.749   1.139   9.700
28428WAT     H285527   4.714   1.029   9.816
28429WAT      O85528   4.495   1.981   3.007
28429WAT     H185529   4.395   1.978   3.001
28429WAT     H285530   4.522   2.027   3.092
28430WAT      O85531   5.321   1.238   4.234
28430WAT     H185532   5.390   1.227   4.163
28430WAT     H285533   5.234   1.199   4.202
28431WAT      O85534   4.056   2.548   9.389
28431WAT     H185535   4.068   2.600   9.473
28431WAT     H285536   4.142   2.547   9.338
28432WAT      O85537   5.109   1.938   6.103
28432WAT     H185538   5.073   1.848   6.082
28432WAT     H285539   5.037   2.007   6.090
28433WAT      O85540   0.111   8.843   6.741
28433WAT     H185541   0.120   8.748   6.771
28433WAT     H285542   0.014   8.866   6.733
28434WAT      O85543   1.109   9.057   2.895
28434WAT     H185544   1.125   9.147   2.856
28434WAT     H285545   1.043   9.064   2.970
28435WAT      O85546   8.784   1.076   5.764
28435WAT     H185547   8.814   1.098   5.671
28435WAT     H285548   8.684   1.081   5.768
28436WAT      O85549   4.731   2.368   6.004
28436WAT     H185550   4.761   2.339   6.095
28436WAT     H285551   4.669   2.300   5.966
28437WAT      O85552   7.953   7.310   1.686
28437WAT     H185553   7.876   7.297   1.749
28437WAT     H285554   8.038   7.287   1.734
28438WAT      O85555   3.077   6.187   3.865
28438WAT     H185556   3.040   6.152   3.951
28438WAT     H285557   3.087   6.112   3.799
28439WAT      O85558   3.929   8.454   3.438
28439WAT     H185559   3.981   8.393   3.497
28439WAT     H285560   3.862   8.504   3.492
28440WAT      O85561   0.487   3.487   6.915
28440WAT     H185562   0.536   3.429   6.979
28440WAT     H285563   0.411   3.532   6.961
28441WAT      O85564   3.397   4.304   5.998
28441WAT     H185565   3.348   4.219   5.975
28441WAT     H285566   3.432   4.297   6.091
28442WAT      O85567   7.928   9.534   8.947
28442WAT     H185568   8.003   9.490   8.996
28442WAT     H285569   7.842   9.489   8.971
28443WAT      O85570   5.787   3.134   6.314
28443WAT     H185571   5.690   3.158   6.318
28443WAT     H285572   5.818   3.106   6.405
28444WAT      O85573   0.283   0.824   4.277
28444WAT     H185574   0.319   0.864   4.192
28444WAT     H285575   0.186   0.846   4.285
28445WAT      O85576   6.322   7.009   8.148
28445WAT     H185577   6.375   7.030   8.230
28445WAT     H285578   6.259   7.084   8.129
28446WAT      O85579   6.394   0.307   0.920
28446WAT     H185580   6.387   0.207   0.918
28446WAT     H285581   6.464   0.334   0.986
28447WAT      O85582   7.328   2.120   3.234
28447WAT     H185583   7.363   2.168   3.314
28447WAT     H285584   7.336   2.179   3.154
28448WAT      O85585   7.774   4.864   9.282
28448WAT     H185586   7.722   4.898   9.204
28448WAT     H285587   7.844   4.799   9.249
28449WAT      O85588   8.505   0.460   2.977
28449WAT     H185589   8.569   0.536   2.987
28449WAT     H285590   8.412   0.492   2.995
28450WAT      O85591   0.340   5.860   5.112
28450WAT     H185592   0.340   5.834   5.209
28450WAT     H285593   0.427   5.834   5.070
28451WAT      O85594   9.866   1.764   0.996
28451WAT     H185595   9.927   1.763   1.075
28451WAT     H285596   9.831   1.672   0.980
28452WAT      O85597   2.159   5.429   9.662
28452WAT     H185598   2.093   5.429   9.736
28452WAT     H285599   2.207   5.341   9.660
28453WAT      O85600   2.781   7.473   3.599
28453WAT     H185601   2.731   7.405   3.652
28453WAT     H285602   2.859   7.506   3.653
28454WAT      O85603   7.560   3.676   0.400
28454WAT     H185604   7.550   3.608   0.327
28454WAT     H285605   7.471   3.693   0.443
28455WAT      O85606   1.161   7.572   8.909
28455WAT     H185607   1.096   7.639   8.873
28455WAT     H285608   1.200   7.521   8.833
28456WAT      O85609   5.463   8.330   6.743
28456WAT     H185610   5.411   8.374   6.816
28456WAT     H285611   5.525   8.397   6.701
28457WAT      O85612   1.038   5.691   7.322
28457WAT     H185613   1.041   5.756   7.246
28457WAT     H285614   1.031   5.740   7.409
28458WAT      O85615   6.546   7.876   1.916
28458WAT     H185616   6.447   7.892   1.917
28458WAT     H285617   6.577   7.857   2.010
28459WAT      O85618   5.680   1.110   4.762
28459WAT     H185619   5.608   1.140   4.825
28459WAT     H285620   5.755   1.070   4.814
28460WAT      O85621   7.779   5.398   4.577
28460WAT     H185622   7.817   5.380   4.667
28460WAT     H285623   7.851   5.394   4.508
28461WAT      O85624   6.551   4.162   8.013
28461WAT     H185625   6.560   4.242   7.954
28461WAT     H285626   6.562   4.079   7.958
28462WAT      O85627   1.723   5.913   2.990
28462WAT     H185628   1.697   5.818   2.972
28462WAT     H285629   1.641   5.967   3.007
28463WAT      O85630   3.489   8.751   6.822
28463WAT     H185631   3.538   8.781   6.740
28463WAT     H285632   3.396   8.787   6.819
28464WAT      O85633   2.666   4.572   8.893
28464WAT     H185634   2.636   4.547   8.801
28464WAT     H285635   2.591   4.614   8.943
28465WAT      O85636   2.990   1.057   8.416
28465WAT     H185637   3.033   1.147   8.404
28465WAT     H285638   3.060   0.990   8.440
28466WAT      O85639   6.159   9.237   4.620
28466WAT     H185640   6.232   9.248   4.553
28466WAT     H285641   6.155   9.317   4.679
28467WAT      O85642   1.450   0.057   2.499
28467WAT     H185643   1.432  -0.018   2.563
28467WAT     H285644   1.367   0.080   2.449
28468WAT      O85645   1.869   9.397   0.309
28468WAT     H185646   1.877   9.491   0.344
28468WAT     H285647   1.856   9.400   0.210
28469WAT      O85648   5.136   7.784   2.147
28469WAT     H185649   5.194   7.705   2.127
28469WAT     H285650   5.071   7.761   2.219
28470WAT      O85651   3.054   8.682   7.034
28470WAT     H185652   2.966   8.640   7.057
28470WAT     H285653   3.126   8.613   7.039
28471WAT      O85654   1.452   8.495   9.294
28471WAT     H185655   1.442   8.534   9.202
28471WAT     H285656   1.544   8.456   9.304
28472WAT      O85657   9.808   0.301   3.866
28472WAT     H185658   9.747   0.365   3.912
28472WAT     H285659   9.862   0.251   3.933
28473WAT      O85660   8.980   4.899   3.865
28473WAT     H185661   9.024   4.952   3.793
28473WAT     H285662   9.046   4.877   3.936
28474WAT      O85663   1.456   9.726   0.282
28474WAT     H185664   1.397   9.699   0.207
28474WAT     H285665   1.551   9.720   0.254
28475WAT      O85666   0.811   7.215   0.693
28475WAT     H185667   0.749   7.294   0.698
28475WAT     H285668   0.875   7.219   0.769
28476WAT      O85669   4.571   3.604   4.257
28476WAT     H185670   4.494   3.661   4.231
28476WAT     H285671   4.537   3.517   4.294
28477WAT      O85672   1.980   1.546   6.730
28477WAT     H185673   2.034   1.617   6.774
28477WAT     H285674   1.939   1.582   6.646
28478WAT      O85675   2.759   4.596   1.771
28478WAT     H185676   2.688   4.533   1.741
28478WAT     H285677   2.729   4.643   1.854
28479WAT      O85678   4.107   4.596   0.654
28479WAT     H185679   4.035   4.636   0.711
28479WAT     H285680   4.196   4.628   0.685
28480WAT      O85681   3.600   7.284   0.332
28480WAT     H185682   3.664   7.350   0.372
28480WAT     H285683   3.643   7.238   0.255
28481WAT      O85684   1.342   7.003   6.898
28481WAT     H185685   1.395   7.078   6.938
28481WAT     H285686   1.250   7.004   6.936
28482WAT      O85687   0.650   6.877   7.398
28482WAT     H185688   0.594   6.848   7.476
28482WAT     H285689   0.637   6.975   7.383
28483WAT      O85690   6.876   6.940   8.623
28483WAT     H185691   6.806   6.875   8.650
28483WAT     H285692   6.881   6.945   8.523
28484WAT      O85693   4.865   3.882   7.213
28484WAT     H185694   4.869   3.813   7.140
28484WAT     H285695   4.806   3.958   7.183
28485WAT      O85696   2.474   8.857   2.844
28485WAT     H185697   2.561   8.867   2.891
28485WAT     H285698   2.447   8.945   2.804
28486WAT      O85699   0.134   6.673   5.618
28486WAT     H185700   0.163   6.732   5.543
28486WAT     H285701   0.119   6.580   5.584
28487WAT      O85702   7.399   7.846   5.579
28487WAT     H185703   7.493   7.813   5.570
28487WAT     H285704   7.343   7.776   5.624
28488WAT      O85705   7.078   6.834   9.576
28488WAT     H185706   7.171   6.847   9.543
28488WAT     H285707   7.073   6.861   9.673
28489WAT      O85708   7.447   1.772   4.567
28489WAT     H185709   7.455   1.676   4.541
28489WAT     H285710   7.536   1.807   4.596
28490WAT      O85711   6.032   1.551   5.943
28490WAT     H185712   6.072   1.605   5.869
28490WAT     H285713   5.949   1.596   5.975
28491WAT      O85714   2.465   6.454   3.072
28491WAT     H185715   2.552   6.470   3.025
28491WAT     H285716   2.442   6.357   3.066
28492WAT      O85717   2.232   9.211   5.794
28492WAT     H185718   2.198   9.305   5.800
28492WAT     H285719   2.320   9.203   5.840
28493WAT      O85720   2.962   4.061   9.184
28493WAT     H185721   2.995   3.967   9.172
28493WAT     H285722   2.888   4.078   9.120
28494WAT      O85723   5.449   3.934   2.173
28494WAT     H185724   5.437   3.952   2.270
28494WAT     H285725   5.424   4.016   2.121
28495WAT      O85726   0.799   1.767   7.163
28495WAT     H185727   0.784   1.699   7.235
28495WAT     H285728   0.877   1.741   7.107
28496WAT      O85729   2.761   7.179   9.561
28496WAT     H185730   2.847   7.217   9.595
28496WAT     H285731   2.732   7.104   9.620
28497WAT      O85732   8.632   8.749   7.317
28497WAT     H185733   8.634   8.756   7.416
28497WAT     H285734   8.690   8.820   7.277
28498WAT      O85735   5.950   9.185   4.076
28498WAT     H185736   5.937   9.090   4.048
28498WAT     H285737   5.902   9.246   4.012
28499WAT      O85738   4.587   8.784   1.551
28499WAT     H185739   4.550   8.694   1.528
28499WAT     H285740   4.657   8.773   1.622
28500WAT      O85741   5.172   0.089   5.593
28500WAT     H185742   5.118   0.010   5.562
28500WAT     H285743   5.115   0.171   5.590
28501WAT      O85744   7.103   5.710   2.425
28501WAT     H185745   7.054   5.793   2.399
28501WAT     H285746   7.182   5.735   2.481
28502WAT      O85747   7.086   7.172   9.644
28502WAT     H185748   7.081   7.179   9.544
28502WAT     H285749   7.182   7.164   9.672
28503WAT      O85750   3.602   2.947   9.359
28503WAT     H185751   3.577   3.022   9.420
28503WAT     H285752   3.692   2.911   9.384
28504WAT      O85753   1.171   5.269   5.319
28504WAT     H185754   1.191   5.253   5.415
28504WAT     H285755   1.072   5.260   5.304
28505WAT      O85756   5.446   4.267   3.298
28505WAT     H185757   5.416   4.363   3.296
28505WAT     H285758   5.368   4.208   3.317
28506WAT      O85759   2.342   8.603   7.385
28506WAT     H185760   2.349   8.512   7.426
28506WAT     H285761   2.403   8.666   7.432
28507WAT      O85762   8.569   7.467   1.764
28507WAT     H185763   8.657   7.505   1.736
28507WAT     H285764   8.563   7.466   1.863
28508WAT      O85765   7.417   6.374   9.707
28508WAT     H185766   7.516   6.361   9.713
28508WAT     H285767   7.397   6.471   9.695
28509WAT      O85768   5.546   8.509   2.438
28509WAT     H185769   5.554   8.465   2.528
28509WAT     H285770   5.524   8.606   2.450
28510WAT      O85771   8.427   8.267   6.581
28510WAT     H185772   8.436   8.312   6.493
28510WAT     H285773   8.423   8.168   6.568
28511WAT      O85774   4.955   6.898   8.542
28511WAT     H185775   5.016   6.926   8.468
28511WAT     H285776   4.962   6.799   8.555
28512WAT      O85777   8.052   4.386   9.231
28512WAT     H185778   7.968   4.371   9.180
28512WAT     H285779   8.031   4.427   9.320
28513WAT      O85780   3.645   3.553   1.423
28513WAT     H185781   3.652   3.473   1.483
28513WAT     H285782   3.630   3.635   1.478
28514WAT      O85783   0.548   7.412   8.132
28514WAT     H185784   0.473   7.477   8.148
28514WAT     H285785   0.531   7.328   8.183
28515WAT      O85786   1.325   8.441   7.597
28515WAT     H185787   1.324   8.541   7.599
28515WAT     H285788   1.242   8.408   7.552
28516WAT      O85789   5.912   3.391   0.082
28516WAT     H185790   5.919   3.310   0.139
28516WAT     H285791   5.993   3.449   0.096
28517WAT      O85792   2.482   9.400   3.275
28517WAT     H185793   2.396   9.368   3.236
28517WAT     H285794   2.548   9.325   3.279
28518WAT      O85795   6.212   9.243   1.360
28518WAT     H185796   6.134   9.253   1.422
28518WAT     H285797   6.218   9.323   1.301
28519WAT      O85798   2.228   4.233   0.819
28519WAT     H185799   2.275   4.216   0.732
28519WAT     H285800   2.215   4.146   0.866
28520WAT      O85801   8.512   8.622   0.569
28520WAT     H185802   8.583   8.650   0.634
28520WAT     H285803   8.555   8.574   0.492
28521WAT      O85804   1.960   2.887   2.851
28521WAT     H185805   1.910   2.860   2.768
28521WAT     H285806   1.973   2.807   2.909
28522WAT      O85807   7.909   4.109   3.952
28522WAT     H185808   8.001   4.070   3.956
28522WAT     H285809   7.898   4.158   3.865
28523WAT      O85810   0.266   0.373   7.347
28523WAT     H185811   0.343   0.333   7.298
28523WAT     H285812   0.287   0.467   7.374
28524WAT      O85813   8.262   8.346   6.895
28524WAT     H185814   8.221   8.338   6.986
28524WAT     H285815   8.293   8.255   6.865
28525WAT      O85816   4.690   4.606   5.891
28525WAT     H185817   4.659   4.632   5.799
28525WAT     H285818   4.789   4.620   5.897
28526WAT      O85819   1.281   7.249   1.964
28526WAT     H185820   1.377   7.221   1.962
28526WAT     H285821   1.230   7.187   2.024
28527WAT      O85822   8.771   1.210   7.193
28527WAT     H185823   8.735   1.299   7.221
28527WAT     H285824   8.728   1.138   7.246
28528WAT      O85825   9.467   5.597   2.955
28528WAT     H185826   9.524   5.603   2.873
28528WAT     H285827   9.520   5.557   3.029
28529WAT      O85828   2.599   6.903   1.197
28529WAT     H185829   2.589   6.899   1.098
28529WAT     H285830   2.573   6.995   1.229
28530WAT      O85831   0.274   6.524   5.195
28530WAT     H185832   0.179   6.500   5.173
28530WAT     H285833   0.310   6.459   5.262
28531WAT      O85834   8.477   2.377   6.771
28531WAT     H185835   8.455   2.297   6.827
28531WAT     H285836   8.392   2.417   6.736
28532WAT      O85837   5.280   8.813   8.626
28532WAT     H185838   5.252   8.780   8.716
28532WAT     H285839   5.373   8.849   8.631
28533WAT      O85840   6.419   7.814   4.068
28533WAT     H185841   6.372   7.767   4.143
28533WAT     H285842   6.451   7.903   4.100
28534WAT      O85843   8.155   3.426   7.063
28534WAT     H185844   8.240   3.384   7.096
28534WAT     H285845   8.177   3.504   7.004
28535WAT      O85846   7.521   6.883   6.525
28535WAT     H185847   7.452   6.836   6.471
28535WAT     H285848   7.513   6.855   6.621
28536WAT      O85849   9.537   5.813   0.629
28536WAT     H185850   9.556   5.907   0.602
28536WAT     H285851   9.442   5.791   0.607
28537WAT      O85852   7.194   8.022   7.794
28537WAT     H185853   7.191   8.021   7.695
28537WAT     H285854   7.283   8.058   7.824
28538WAT      O85855   0.340   3.146   4.812
28538WAT     H185856   0.337   3.048   4.832
28538WAT     H285857   0.254   3.189   4.839
28539WAT      O85858   2.989   1.201   6.794
28539WAT     H185859   3.010   1.184   6.891
28539WAT     H285860   2.899   1.244   6.786
28540WAT      O85861   8.169   3.099   5.242
28540WAT     H185862   8.247   3.144   5.199
28540WAT     H285863   8.150   3.143   5.330
28541WAT      O85864   0.013   0.793   2.047
28541WAT     H185865   0.033   0.867   2.110
28541WAT     H285866  -0.085   0.773   2.048
28542WAT      O85867   0.033   7.789   4.842
28542WAT     H185868  -0.011   7.792   4.753
28542WAT     H285869   0.072   7.879   4.864
28543WAT      O85870   8.419   5.927   1.898
28543WAT     H185871   8.480   5.849   1.913
28543WAT     H285872   8.466   6.011   1.925
28544WAT      O85873   4.470   9.081   0.078
28544WAT     H185874   4.509   9.145   0.144
28544WAT     H285875   4.536   9.067   0.004
28545WAT      O85876   2.129   1.794   4.796
28545WAT     H185877   2.185   1.792   4.878
28545WAT     H285878   2.056   1.862   4.807
28546WAT      O85879   6.254   3.497   3.613
28546WAT     H185880   6.297   3.510   3.702
28546WAT     H285881   6.254   3.583   3.562
28547WAT      O85882   6.831   3.155   3.862
28547WAT     H185883   6.793   3.078   3.811
28547WAT     H285884   6.759   3.197   3.918
28548WAT      O85885   8.059   2.707   2.753
28548WAT     H185886   8.151   2.746   2.760
28548WAT     H285887   8.021   2.692   2.844
28549WAT      O85888   2.701   2.545   9.400
28549WAT     H185889   2.687   2.473   9.332
28549WAT     H285890   2.671   2.512   9.490
28550WAT      O85891   0.758   2.814   5.338
28550WAT     H185892   0.726   2.850   5.251
28550WAT     H285893   0.838   2.866   5.368
28551WAT      O85894   5.011   5.484   8.079
28551WAT     H185895   4.982   5.451   8.169
28551WAT     H285896   5.098   5.533   8.088
28552WAT      O85897   2.255   7.897   5.901
28552WAT     H185898   2.297   7.927   5.987
28552WAT     H285899   2.326   7.875   5.835
28553WAT      O85900   6.311   1.860   6.890
28553WAT     H185901   6.378   1.840   6.961
28553WAT     H285902   6.221   1.870   6.932
28554WAT      O85903   2.456   2.427   2.114
28554WAT     H185904   2.489   2.438   2.020
28554WAT     H285905   2.409   2.339   2.123
28555WAT      O85906   6.126   3.095   2.081
28555WAT     H185907   6.141   3.167   2.014
28555WAT     H285908   6.093   3.135   2.167
28556WAT      O85909   5.677   9.536   2.018
28556WAT     H185910   5.659   9.512   2.113
28556WAT     H285911   5.739   9.468   1.978
28557WAT      O85912   5.683   9.667   4.912
28557WAT     H185913   5.605   9.604   4.917
28557WAT     H285914   5.766   9.615   4.892
28558WAT      O85915   7.711   1.378   5.230
28558WAT     H185916   7.710   1.477   5.241
28558WAT     H285917   7.618   1.342   5.242
28559WAT      O85918   9.558   0.373   6.294
28559WAT     H185919   9.510   0.353   6.209
28559WAT     H285920   9.492   0.385   6.368
28560WAT      O85921   1.494   5.837   6.146
28560WAT     H185922   1.575   5.785   6.174
28560WAT     H285923   1.520   5.901   6.074
28561WAT      O85924   1.614   3.278   2.529
28561WAT     H185925   1.580   3.360   2.575
28561WAT     H285926   1.566   3.266   2.442
28562WAT      O85927   1.198   1.404   8.070
28562WAT     H185928   1.258   1.388   7.992
28562WAT     H285929   1.110   1.360   8.053
28563WAT      O85930   7.871   9.577   4.267
28563WAT     H185931   7.962   9.610   4.243
28563WAT     H285932   7.802   9.639   4.228
28564WAT      O85933   3.228   6.894   2.392
28564WAT     H185934   3.135   6.902   2.427
28564WAT     H285935   3.246   6.799   2.367
28565WAT      O85936   5.978   2.101   4.711
28565WAT     H185937   6.003   2.004   4.710
28565WAT     H285938   5.988   2.139   4.619
28566WAT      O85939   8.264   2.102   5.769
28566WAT     H185940   8.165   2.109   5.779
28566WAT     H285941   8.309   2.161   5.836
28567WAT      O85942   3.021   9.772   9.078
28567WAT     H185943   3.078   9.833   9.133
28567WAT     H285944   3.040   9.787   8.981
28568WAT      O85945   4.505   5.190   1.070
28568WAT     H185946   4.480   5.211   1.164
28568WAT     H285947   4.423   5.169   1.017
28569WAT      O85948   2.289   5.659   7.881
28569WAT     H185949   2.345   5.664   7.798
28569WAT     H285950   2.218   5.729   7.877
28570WAT      O85951   8.279   5.801   3.825
28570WAT     H185952   8.375   5.772   3.821
28570WAT     H285953   8.220   5.720   3.829
28571WAT      O85954   4.218   1.583   0.638
28571WAT     H185955   4.247   1.489   0.619
28571WAT     H285956   4.119   1.589   0.634
28572WAT      O85957   6.604   6.806   2.817
28572WAT     H185958   6.689   6.852   2.844
28572WAT     H285959   6.547   6.791   2.897
28573WAT      O85960   3.889   3.879   8.573
28573WAT     H185961   3.938   3.955   8.617
28573WAT     H285962   3.821   3.916   8.509
28574WAT      O85963   5.200   6.659   6.884
28574WAT     H185964   5.283   6.712   6.867
28574WAT     H285965   5.221   6.561   6.877
28575WAT      O85966   7.259   0.741   5.004
28575WAT     H185967   7.346   0.700   5.029
28575WAT     H285968   7.269   0.791   4.918
28576WAT      O85969   8.620   9.577   6.954
28576WAT     H185970   8.590   9.519   6.879
28576WAT     H285971   8.601   9.673   6.931
28577WAT      O85972   1.474   7.344   8.929
28577WAT     H185973   1.420   7.366   9.009
28577WAT     H285974   1.442   7.397   8.850
28578WAT      O85975   7.544   6.877   1.252
28578WAT     H185976   7.582   6.871   1.345
28578WAT     H285977   7.495   6.964   1.243
28579WAT      O85978   9.074   1.708   9.256
28579WAT     H185979   9.088   1.640   9.328
28579WAT     H285980   8.995   1.765   9.279
28580WAT      O85981   9.853   4.342   6.958
28580WAT     H185982   9.836   4.276   6.884
28580WAT     H285983   9.776   4.340   7.022
28581WAT      O85984   8.588   5.507   0.740
28581WAT     H185985   8.524   5.584   0.734
28581WAT     H285986   8.536   5.421   0.742
28582WAT      O85987   9.715   1.345   6.159
28582WAT     H185988   9.659   1.367   6.238
28582WAT     H285989   9.809   1.326   6.188
28583WAT      O85990   4.736   4.291   4.242
28583WAT     H185991   4.820   4.250   4.207
28583WAT     H285992   4.750   4.389   4.255
28584WAT      O85993   7.052   6.498   6.031
28584WAT     H185994   7.067   6.594   6.054
28584WAT     H285995   7.019   6.449   6.113
28585WAT      O85996   5.838   1.927   0.092
28585WAT     H185997   5.825   2.017   0.134
28585WAT     H285998   5.786   1.922   0.007
28586WAT      O85999   5.979   3.403   5.079
28586WAT     H186000   5.920   3.483   5.091
28586WAT     H286001   5.946   3.347   5.003
28587WAT      O86002   7.494   6.106   7.923
28587WAT     H186003   7.562   6.120   7.995
28587WAT     H286004   7.466   6.010   7.922
28588WAT      O86005   8.573   3.437   6.002
28588WAT     H186006   8.603   3.519   5.952
28588WAT     H286007   8.608   3.442   6.096
28589WAT      O86008   6.365   2.264   2.735
28589WAT     H186009   6.349   2.170   2.767
28589WAT     H286010   6.456   2.270   2.695
28590WAT      O86011   9.476   7.943   0.004
28590WAT     H186012   9.459   7.967   0.100
28590WAT     H286013   9.491   7.845  -0.004
28591WAT      O86014   1.922   7.942   8.851
28591WAT     H186015   1.898   8.017   8.790
28591WAT     H286016   1.952   7.863   8.796
28592WAT      O86017   2.230   6.303   1.546
28592WAT     H186018   2.302   6.353   1.499
28592WAT     H286019   2.187   6.362   1.615
28593WAT      O86020   3.103   9.337   8.954
28593WAT     H186021   3.146   9.355   8.866
28593WAT     H286022   3.006   9.361   8.949
28594WAT      O86023   2.829   4.360   8.126
28594WAT     H186024   2.808   4.316   8.213
28594WAT     H286025   2.918   4.329   8.092
28595WAT      O86026   3.261   3.435   5.572
28595WAT     H186027   3.266   3.517   5.514
28595WAT     H286028   3.330   3.370   5.544
28596WAT      O86029   2.909   2.309   2.156
28596WAT     H186030   2.941   2.395   2.115
28596WAT     H286031   2.884   2.325   2.251
28597WAT      O86032   6.770   2.917   9.038
28597WAT     H186033   6.805   2.859   9.111
28597WAT     H286034   6.842   2.980   9.009
28598WAT      O86035   5.939   4.123   1.216
28598WAT     H186036   6.035   4.100   1.204
28598WAT     H286037   5.923   4.218   1.188
28599WAT      O86038   2.054   8.251   5.780
28599WAT     H186039   2.019   8.311   5.852
28599WAT     H286040   2.141   8.287   5.746
28600WAT      O86041   5.141   8.430   7.370
28600WAT     H186042   5.222   8.489   7.368
28600WAT     H286043   5.131   8.391   7.461
28601WAT      O86044   9.269   3.426   6.687
28601WAT     H186045   9.299   3.437   6.781
28601WAT     H286046   9.171   3.446   6.680
28602WAT      O86047   5.336   0.827   2.240
28602WAT     H186048   5.271   0.778   2.180
28602WAT     H286049   5.419   0.847   2.189
28603WAT      O86050   0.685   1.264   4.651
28603WAT     H186051   0.722   1.183   4.696
28603WAT     H286052   0.706   1.345   4.705
28604WAT      O86053   4.816   4.245   4.837
28604WAT     H186054   4.804   4.155   4.797
28604WAT     H286055   4.759   4.312   4.789
28605WAT      O86056   4.957   8.622   7.912
28605WAT     H186057   4.866   8.638   7.875
28605WAT     H286058   4.973   8.682   7.990
28606WAT      O86059   8.684   7.987   0.869
28606WAT     H186060   8.642   8.076   0.886
28606WAT     H286061   8.645   7.948   0.785
28607WAT      O86062   7.828   3.613   6.341
28607WAT     H186063   7.807   3.526   6.385
28607WAT     H286064   7.899   3.599   6.272
28608WAT      O86065   4.499   2.952   5.801
28608WAT     H186066   4.504   2.853   5.799
28608WAT     H286067   4.538   2.989   5.716
28609WAT      O86068   8.928   2.739   7.173
28609WAT     H186069   8.977   2.664   7.219
28609WAT     H286070   8.911   2.714   7.078
28610WAT      O86071   6.478   1.265   0.290
28610WAT     H186072   6.413   1.334   0.255
28610WAT     H286073   6.533   1.305   0.362
28611WAT      O86074   5.657   1.426   3.787
28611WAT     H186075   5.672   1.346   3.729
28611WAT     H286076   5.605   1.495   3.737
28612WAT      O86077   1.466   6.332   7.112
28612WAT     H186078   1.392   6.276   7.150
28612WAT     H286079   1.554   6.287   7.129
28613WAT      O86080   1.000   2.554   9.441
28613WAT     H186081   0.951   2.629   9.486
28613WAT     H286082   1.099   2.569   9.448
28614WAT      O86083   4.946   4.420   8.222
28614WAT     H186084   4.856   4.443   8.257
28614WAT     H286085   4.989   4.501   8.183
28615WAT      O86086   7.490   8.988   3.970
28615WAT     H186087   7.589   8.978   3.971
28615WAT     H286088   7.454   8.967   4.061
28616WAT      O86089   8.326   9.512   6.052
28616WAT     H186090   8.263   9.590   6.056
28616WAT     H286091   8.416   9.540   6.084
28617WAT      O86092   4.975   1.039   9.341
28617WAT     H186093   4.996   1.136   9.329
28617WAT     H286094   4.971   1.017   9.438
28618WAT      O86095   9.245   8.916   3.633
28618WAT     H186096   9.213   9.008   3.657
28618WAT     H286097   9.336   8.902   3.672
28619WAT      O86098   5.724   4.790   7.535
28619WAT     H186099   5.715   4.792   7.436
28619WAT     H286100   5.723   4.883   7.571
28620WAT      O86101   4.723   4.899   6.705
28620WAT     H186102   4.656   4.856   6.645
28620WAT     H286103   4.712   4.864   6.798
28621WAT      O86104   0.712   2.872   0.130
28621WAT     H186105   0.758   2.952   0.169
28621WAT     H286106   0.750   2.789   0.171
28622WAT      O86107   3.440   5.140   2.836
28622WAT     H186108   3.528   5.134   2.881
28622WAT     H286109   3.451   5.120   2.738
28623WAT      O86110   0.727   2.207   0.228
28623WAT     H186111   0.810   2.220   0.174
28623WAT     H286112   0.731   2.118   0.274
28624WAT      O86113   5.892   9.320   7.927
28624WAT     H186114   5.952   9.260   7.979
28624WAT     H286115   5.839   9.266   7.862
28625WAT      O86116   3.454   8.478   7.645
28625WAT     H186117   3.372   8.428   7.671
28625WAT     H286118   3.523   8.471   7.717
28626WAT      O86119   4.980   4.497   7.006
28626WAT     H186120   4.889   4.525   6.976
28626WAT     H286121   5.045   4.572   6.990
28627WAT      O86122   6.242   0.361   9.631
28627WAT     H186123   6.196   0.447   9.608
28627WAT     H286124   6.330   0.381   9.674
28628WAT      O86125   0.670   1.759   1.848
28628WAT     H186126   0.705   1.679   1.799
28628WAT     H286127   0.578   1.780   1.815
28629WAT      O86128   2.758   5.723   1.572
28629WAT     H186129   2.709   5.755   1.654
28629WAT     H286130   2.847   5.687   1.599
28630WAT      O86131   8.676   4.663   9.191
28630WAT     H186132   8.642   4.590   9.250
28630WAT     H286133   8.775   4.670   9.202
28631WAT      O86134   3.914   5.117   2.864
28631WAT     H186135   3.967   5.147   2.944
28631WAT     H286136   3.949   5.162   2.782
28632WAT      O86137   9.881   6.350   4.719
28632WAT     H186138   9.882   6.441   4.677
28632WAT     H286139   9.944   6.290   4.669
28633WAT      O86140   4.793   7.086   9.453
28633WAT     H186141   4.880   7.041   9.472
28633WAT     H286142   4.725   7.056   9.519
28634WAT      O86143   4.149   0.032   1.649
28634WAT     H186144   4.196  -0.012   1.573
28634WAT     H286145   4.200   0.113   1.677
28635WAT      O86146   9.144   4.142   5.378
28635WAT     H186147   9.059   4.193   5.392
28635WAT     H286148   9.222   4.204   5.386
28636WAT      O86149   1.782   1.961   5.858
28636WAT     H186150   1.791   2.031   5.787
28636WAT     H286151   1.864   1.962   5.916
28637WAT      O86152   2.470   8.104   0.525
28637WAT     H186153   2.392   8.067   0.574
28637WAT     H286154   2.537   8.140   0.590
28638WAT      O86155   4.237   3.932   9.284
28638WAT     H186156   4.319   3.987   9.272
28638WAT     H286157   4.159   3.992   9.305
28639WAT      O86158   5.117   8.161   9.650
28639WAT     H186159   5.130   8.260   9.654
28639WAT     H286160   5.141   8.120   9.738
28640WAT      O86161   9.103   2.846   3.298
28640WAT     H186162   9.155   2.928   3.274
28640WAT     H286163   9.060   2.808   3.215
28641WAT      O86164   2.866   9.396   5.543
28641WAT     H186165   2.845   9.344   5.461
28641WAT     H286166   2.783   9.409   5.596
28642WAT      O86167   4.217   5.658   4.491
28642WAT     H186168   4.269   5.573   4.503
28642WAT     H286169   4.121   5.642   4.515
28643WAT      O86170   2.355   6.587   4.525
28643WAT     H186171   2.429   6.649   4.553
28643WAT     H286172   2.267   6.632   4.540
28644WAT      O86173   9.845   8.382   7.640
28644WAT     H186174   9.879   8.434   7.561
28644WAT     H286175   9.859   8.434   7.723
28645WAT      O86176   0.945   9.723   3.617
28645WAT     H186177   0.990   9.729   3.528
28645WAT     H286178   0.946   9.628   3.649
28646WAT      O86179   0.530   2.519   7.934
28646WAT     H186180   0.606   2.561   7.983
28646WAT     H286181   0.485   2.452   7.993
28647WAT      O86182   3.316   3.816   3.849
28647WAT     H186183   3.358   3.726   3.856
28647WAT     H286184   3.226   3.814   3.893
28648WAT      O86185   4.038   9.460   8.538
28648WAT     H186186   4.069   9.409   8.618
28648WAT     H286187   4.028   9.398   8.461
28649WAT      O86188   6.985   1.488   2.882
28649WAT     H186189   6.920   1.558   2.910
28649WAT     H286190   7.073   1.530   2.862
28650WAT      O86191   1.579   5.419   8.816
28650WAT     H186192   1.568   5.410   8.717
28650WAT     H286193   1.638   5.346   8.849
28651WAT      O86194   3.168   5.891   4.532
28651WAT     H186195   3.237   5.961   4.551
28651WAT     H286196   3.213   5.807   4.502
28652WAT      O86197   3.416   1.998   7.108
28652WAT     H186198   3.457   1.934   7.173
28652WAT     H286199   3.449   2.091   7.128
28653WAT      O86200   1.702   5.644   0.309
28653WAT     H186201   1.675   5.609   0.399
28653WAT     H286202   1.800   5.666   0.311
28654WAT      O86203   6.517   2.749   2.224
28654WAT     H186204   6.583   2.824   2.225
28654WAT     H286205   6.426   2.784   2.243
28655WAT      O86206   1.099   5.914   7.966
28655WAT     H186207   1.142   5.882   7.881
28655WAT     H286208   1.109   5.844   8.037
28656WAT      O86209   8.357   4.556   7.022
28656WAT     H186210   8.362   4.505   6.936
28656WAT     H286211   8.416   4.637   7.016
28657WAT      O86212   1.921   6.329   5.941
28657WAT     H186213   1.961   6.263   6.004
28657WAT     H286214   1.866   6.280   5.873
28658WAT      O86215   6.190   8.824   3.558
28658WAT     H186216   6.096   8.811   3.590
28658WAT     H286217   6.221   8.742   3.509
28659WAT      O86218   3.825   1.359   3.725
28659WAT     H186219   3.827   1.334   3.821
28659WAT     H286220   3.731   1.371   3.695
28660WAT      O86221   4.259   7.589   2.021
28660WAT     H186222   4.213   7.597   1.933
28660WAT     H286223   4.192   7.602   2.095
28661WAT      O86224   7.424   0.303   8.942
28661WAT     H186225   7.516   0.267   8.935
28661WAT     H286226   7.375   0.256   9.015
28662WAT      O86227   9.175   2.845   8.678
28662WAT     H186228   9.121   2.880   8.601
28662WAT     H286229   9.250   2.909   8.698
28663WAT      O86230   4.927   0.441   1.493
28663WAT     H186231   4.876   0.521   1.460
28663WAT     H286232   5.025   0.461   1.491
28664WAT      O86233   0.146   4.821   3.463
28664WAT     H186234   0.151   4.741   3.403
28664WAT     H286235   0.229   4.826   3.519
28665WAT      O86236   4.378   6.479   3.408
28665WAT     H186237   4.377   6.531   3.323
28665WAT     H286238   4.464   6.430   3.416
28666WAT      O86239   8.454   9.070   9.598
28666WAT     H186240   8.430   9.110   9.686
28666WAT     H286241   8.445   8.971   9.603
28667WAT      O86242   8.347   5.461   9.492
28667WAT     H186243   8.265   5.492   9.442
28667WAT     H286244   8.388   5.385   9.442
28668WAT      O86245   3.398   4.017   7.054
28668WAT     H186246   3.444   4.060   6.977
28668WAT     H286247   3.458   3.948   7.094
28669WAT      O86248   0.734   2.585   9.136
28669WAT     H186249   0.690   2.674   9.133
28669WAT     H286250   0.671   2.518   9.176
28670WAT      O86251   7.414   6.918   1.921
28670WAT     H186252   7.443   6.982   1.849
28670WAT     H286253   7.492   6.893   1.977
28671WAT      O86254   3.707   6.719   7.286
28671WAT     H186255   3.631   6.689   7.344
28671WAT     H286256   3.673   6.783   7.217
28672WAT      O86257   8.982   8.172   2.695
28672WAT     H186258   8.891   8.189   2.657
28672WAT     H286259   8.974   8.128   2.784
28673WAT      O86260   3.354   3.355   8.552
28673WAT     H186261   3.426   3.288   8.534
28673WAT     H286262   3.371   3.399   8.640
28674WAT      O86263   7.793   8.211   5.938
28674WAT     H186264   7.804   8.159   5.853
28674WAT     H286265   7.877   8.203   5.993
28675WAT      O86266   8.445   0.344   6.682
28675WAT     H186267   8.486   0.357   6.772
28675WAT     H286268   8.348   0.323   6.693
28676WAT      O86269   2.889   4.766   1.595
28676WAT     H186270   2.874   4.732   1.502
28676WAT     H286271   2.823   4.725   1.657
28677WAT      O86272   4.896   5.245   0.974
28677WAT     H186273   4.869   5.279   1.063
28677WAT     H286274   4.829   5.273   0.905
28678WAT      O86275   7.957   6.114   5.322
28678WAT     H186276   8.008   6.142   5.403
28678WAT     H286277   7.864   6.087   5.348
28679WAT      O86278   3.944   9.695   9.185
28679WAT     H186279   4.009   9.763   9.220
28679WAT     H286280   3.981   9.603   9.199
28680WAT      O86281   7.897   1.786   2.408
28680WAT     H186282   7.813   1.779   2.461
28680WAT     H286283   7.975   1.770   2.467
28681WAT      O86284   6.395   8.657   8.364
28681WAT     H186285   6.432   8.740   8.405
28681WAT     H286286   6.420   8.578   8.421
28682WAT      O86287   0.415   1.557   2.985
28682WAT     H186288   0.459   1.480   3.032
28682WAT     H286289   0.482   1.629   2.970
28683WAT      O86290   1.354   8.745   2.742
28683WAT     H186291   1.427   8.757   2.674
28683WAT     H286292   1.290   8.821   2.735
28684WAT      O86293   0.572   2.725   5.670
28684WAT     H186294   0.561   2.821   5.647
28684WAT     H286295   0.602   2.674   5.589
28685WAT      O86296   1.094   3.850   5.855
28685WAT     H186297   1.022   3.789   5.889
28685WAT     H286298   1.052   3.934   5.820
28686WAT      O86299   2.290   4.037   9.292
28686WAT     H186300   2.366   3.999   9.344
28686WAT     H286301   2.270   3.979   9.213
28687WAT      O86302   6.355   7.628   7.837
28687WAT     H186303   6.303   7.637   7.922
28687WAT     H286304   6.411   7.709   7.823
28688WAT      O86305   6.459   9.436   9.460
28688WAT     H186306   6.547   9.451   9.415
28688WAT     H286307   6.429   9.341   9.446
28689WAT      O86308   9.025   5.986   5.161
28689WAT     H186309   9.052   5.922   5.233
28689WAT     H286310   8.932   5.963   5.129
28690WAT      O86311   1.479   2.759   0.616
28690WAT     H186312   1.436   2.669   0.615
28690WAT     H286313   1.412   2.828   0.644
28691WAT      O86314   9.598   0.204   1.776
28691WAT     H186315   9.561   0.287   1.817
28691WAT     H286316   9.639   0.146   1.846
28692WAT      O86317   9.503   5.557   8.656
28692WAT     H186318   9.468   5.538   8.748
28692WAT     H286319   9.437   5.526   8.588
28693WAT      O86320   2.244   5.830   1.625
28693WAT     H186321   2.258   5.770   1.704
28693WAT     H286322   2.151   5.866   1.627
28694WAT      O86323   9.836   1.811   3.214
28694WAT     H186324   9.809   1.879   3.282
28694WAT     H286325   9.864   1.858   3.130
28695WAT      O86326   8.755   1.022   0.050
28695WAT     H186327   8.761   0.948   0.117
28695WAT     H286328   8.670   1.014  -0.001
28696WAT      O86329   5.344   9.721   3.125
28696WAT     H186330   5.432   9.717   3.078
28696WAT     H286331   5.308   9.815   3.119
28697WAT      O86332   6.168   9.341   4.185
28697WAT     H186333   6.243   9.277   4.192
28697WAT     H286334   6.099   9.305   4.121
28698WAT      O86335   1.787   8.674   9.256
28698WAT     H186336   1.772   8.579   9.283
28698WAT     H286337   1.712   8.731   9.289
28699WAT      O86338   2.841   3.402   6.927
28699WAT     H186339   2.874   3.416   7.020
28699WAT     H286340   2.920   3.389   6.866
28700WAT      O86341   7.960   8.956   2.355
28700WAT     H186342   7.983   8.987   2.447
28700WAT     H286343   7.989   9.024   2.288
28701WAT      O86344   0.230   9.473   9.154
28701WAT     H186345   0.240   9.571   9.138
28701WAT     H286346   0.221   9.456   9.252
28702WAT      O86347   2.427   2.146   3.921
28702WAT     H186348   2.440   2.061   3.972
28702WAT     H286349   2.350   2.136   3.858
28703WAT      O86350   3.714   6.894   0.813
28703WAT     H186351   3.803   6.893   0.768
28703WAT     H286352   3.648   6.941   0.754
28704WAT      O86353   0.773   9.616   4.890
28704WAT     H186354   0.754   9.713   4.877
28704WAT     H286355   0.810   9.577   4.805
28705WAT      O86356   1.927   1.650   3.547
28705WAT     H186357   1.838   1.641   3.593
28705WAT     H286358   1.924   1.601   3.460
28706WAT      O86359   2.227   9.173   8.910
28706WAT     H186360   2.180   9.146   8.994
28706WAT     H286361   2.324   9.191   8.931
28707WAT      O86362   2.281   1.411   5.827
28707WAT     H186363   2.316   1.371   5.912
28707WAT     H286364   2.185   1.435   5.838
28708WAT      O86365   5.837   4.731   8.934
28708WAT     H186366   5.802   4.756   9.024
28708WAT     H286367   5.778   4.770   8.864
28709WAT      O86368   6.599   6.745   4.238
28709WAT     H186369   6.545   6.792   4.308
28709WAT     H286370   6.691   6.781   4.237
28710WAT      O86371   3.643   5.140   1.932
28710WAT     H186372   3.604   5.231   1.919
28710WAT     H286373   3.706   5.120   1.857
28711WAT      O86374   6.143   7.270   5.376
28711WAT     H186375   6.140   7.230   5.284
28711WAT     H286376   6.051   7.302   5.401
28712WAT      O86377   5.386   1.647   6.557
28712WAT     H186378   5.481   1.676   6.542
28712WAT     H286379   5.340   1.640   6.469
28713WAT      O86380   8.901   4.655   3.451
28713WAT     H186381   8.866   4.626   3.362
28713WAT     H286382   8.851   4.736   3.481
28714WAT      O86383   8.439   1.643   6.741
28714WAT     H186384   8.436   1.545   6.725
28714WAT     H286385   8.415   1.692   6.657
28715WAT      O86386   6.288   6.750   9.111
28715WAT     H186387   6.243   6.836   9.088
28715WAT     H286388   6.317   6.752   9.206
28716WAT      O86389   2.062   7.830   0.110
28716WAT     H186390   1.990   7.818   0.178
28716WAT     H286391   2.031   7.895   0.040
28717WAT      O86392   5.780   1.535   1.351
28717WAT     H186393   5.726   1.503   1.273
28717WAT     H286394   5.825   1.621   1.327
28718WAT      O86395   1.590   1.778   5.908
28718WAT     H186396   1.655   1.845   5.873
28718WAT     H286397   1.625   1.738   5.993
28719WAT      O86398   2.229   2.778   2.745
28719WAT     H186399   2.182   2.774   2.833
28719WAT     H286400   2.249   2.873   2.722
28720WAT      O86401   0.455   2.679   3.787
28720WAT     H186402   0.359   2.651   3.777
28720WAT     H286403   0.487   2.716   3.700
28721WAT      O86404   5.138   7.350   9.420
28721WAT     H186405   5.064   7.312   9.365
28721WAT     H286406   5.210   7.281   9.431
28722WAT      O86407   7.077   7.220   2.999
28722WAT     H186408   7.142   7.224   3.075
28722WAT     H286409   6.992   7.177   3.029
28723WAT      O86410   6.544   1.620   9.259
28723WAT     H186411   6.618   1.596   9.322
28723WAT     H286412   6.526   1.718   9.265
28724WAT      O86413   8.203   9.220   6.446
28724WAT     H186414   8.233   9.137   6.493
28724WAT     H286415   8.144   9.195   6.370
28725WAT      O86416   9.589   1.641   5.363
28725WAT     H186417   9.510   1.698   5.340
28725WAT     H286418   9.572   1.592   5.448
28726WAT      O86419   1.247   1.935   0.933
28726WAT     H186420   1.249   1.874   0.855
28726WAT     H286421   1.222   2.027   0.903
28727WAT      O86422   0.788   0.336   1.096
28727WAT     H186423   0.790   0.314   1.193
28727WAT     H286424   0.866   0.294   1.050
28728WAT      O86425   4.391   0.822   3.000
28728WAT     H186426   4.437   0.738   2.970
28728WAT     H286427   4.410   0.838   3.097
28729WAT      O86428   5.689   9.575   9.043
28729WAT     H186429   5.680   9.548   9.139
28729WAT     H286430   5.777   9.541   9.008
28730WAT      O86431   7.449   5.292   1.049
28730WAT     H186432   7.378   5.328   0.989
28730WAT     H286433   7.469   5.197   1.024
28731WAT      O86434   9.659   1.545   4.673
28731WAT     H186435   9.660   1.487   4.592
28731WAT     H286436   9.746   1.536   4.721
28732WAT      O86437   0.263   0.638   3.468
28732WAT     H186438   0.362   0.641   3.455
28732WAT     H286439   0.242   0.627   3.565
28733WAT      O86440   5.876   8.577   3.871
28733WAT     H186441   5.834   8.487   3.864
28733WAT     H286442   5.942   8.579   3.946
28734WAT      O86443   4.173   0.768   6.174
28734WAT     H186444   4.261   0.732   6.204
28734WAT     H286445   4.141   0.715   6.095
28735WAT      O86446   1.917   5.212   2.235
28735WAT     H186447   1.951   5.124   2.202
28735WAT     H286448   1.921   5.213   2.335
28736WAT      O86449   4.343   5.782   7.638
28736WAT     H186450   4.364   5.748   7.547
28736WAT     H286451   4.381   5.720   7.707
28737WAT      O86452   2.389   6.125   8.649
28737WAT     H186453   2.426   6.093   8.737
28737WAT     H286454   2.413   6.059   8.577
28738WAT      O86455   3.165   0.645   7.232
28738WAT     H186456   3.191   0.658   7.328
28738WAT     H286457   3.066   0.637   7.225
28739WAT      O86458   8.832   8.916   1.492
28739WAT     H186459   8.848   8.962   1.580
28739WAT     H286460   8.914   8.864   1.467
28740WAT      O86461   9.552   1.944   0.302
28740WAT     H186462   9.584   1.857   0.339
28740WAT     H286463   9.479   1.980   0.360
28741WAT      O86464   2.517   7.193   7.662
28741WAT     H186465   2.499   7.240   7.748
28741WAT     H286466   2.534   7.260   7.590
28742WAT      O86467   8.514   4.905   7.821
28742WAT     H186468   8.465   4.822   7.796
28742WAT     H286469   8.599   4.881   7.867
28743WAT      O86470   9.096   8.533   4.130
28743WAT     H186471   9.051   8.460   4.079
28743WAT     H286472   9.183   8.500   4.166
28744WAT      O86473   8.876   4.652   3.778
28744WAT     H186474   8.781   4.685   3.771
28744WAT     H286475   8.936   4.728   3.799
28745WAT      O86476   0.131   9.361   0.811
28745WAT     H186477   0.103   9.359   0.907
28745WAT     H286478   0.188   9.281   0.791
28746WAT      O86479   6.242   5.783   1.617
28746WAT     H186480   6.142   5.780   1.614
28746WAT     H286481   6.271   5.855   1.681
28747WAT      O86482   6.501   5.732   3.923
28747WAT     H186483   6.601   5.727   3.916
28747WAT     H286484   6.476   5.796   3.995
28748WAT      O86485   6.149   7.108   4.306
28748WAT     H186486   6.167   7.012   4.284
28748WAT     H286487   6.219   7.165   4.263
28749WAT      O86488   8.659   6.891   6.255
28749WAT     H186489   8.594   6.944   6.309
28749WAT     H286490   8.744   6.943   6.246
28750WAT      O86491   8.885   3.891   2.215
28750WAT     H186492   8.823   3.948   2.161
28750WAT     H286493   8.865   3.904   2.312
28751WAT      O86494   7.557   4.719   4.940
28751WAT     H186495   7.581   4.797   4.999
28751WAT     H286496   7.496   4.658   4.989
28752WAT      O86497   6.733   4.453   3.486
28752WAT     H186498   6.635   4.458   3.503
28752WAT     H286499   6.751   4.393   3.408
28753WAT      O86500   5.848   5.276   4.586
28753WAT     H186501   5.893   5.187   4.573
28753WAT     H286502   5.842   5.323   4.498
28754WAT      O86503   2.444   7.549   6.600
28754WAT     H186504   2.426   7.461   6.556
28754WAT     H286505   2.394   7.621   6.552
28755WAT      O86506   3.684   8.055   4.253
28755WAT     H186507   3.717   8.134   4.203
28755WAT     H286508   3.607   8.014   4.205
28756WAT      O86509   6.571   3.003   9.418
28756WAT     H186510   6.591   3.046   9.330
28756WAT     H286511   6.580   2.904   9.410
28757WAT      O86512   7.165   1.172   3.200
28757WAT     H186513   7.182   1.255   3.253
28757WAT     H286514   7.136   1.197   3.107
28758WAT      O86515   0.090   1.592   9.609
28758WAT     H186516   0.153   1.540   9.551
28758WAT     H286517   0.141   1.662   9.658
28759WAT      O86518   7.215   0.410   8.501
28759WAT     H186519   7.277   0.379   8.429
28759WAT     H286520   7.145   0.469   8.463
28760WAT      O86521   9.704   8.049   3.535
28760WAT     H186522   9.742   8.130   3.490
28760WAT     H286523   9.704   8.062   3.634
28761WAT      O86524   7.309   7.150   0.996
28761WAT     H186525   7.234   7.215   0.999
28761WAT     H286526   7.290   7.079   0.928
28762WAT      O86527   8.095   5.359   9.601
28762WAT     H186528   8.194   5.362   9.616
28762WAT     H286529   8.076   5.381   9.505
28763WAT      O86530   5.114   2.564   3.374
28763WAT     H186531   5.044   2.632   3.394
28763WAT     H286532   5.083   2.474   3.404
28764WAT      O86533   5.391   5.715   3.235
28764WAT     H186534   5.390   5.815   3.237
28764WAT     H286535   5.450   5.680   3.308
28765WAT      O86536   9.226   8.300   0.437
28765WAT     H186537   9.195   8.205   0.431
28765WAT     H286538   9.211   8.334   0.530
28766WAT      O86539   8.431   6.429   5.187
28766WAT     H186540   8.428   6.366   5.265
28766WAT     H286541   8.396   6.382   5.106
28767WAT      O86542   4.212   8.366   1.486
28767WAT     H186543   4.113   8.378   1.497
28767WAT     H286544   4.256   8.456   1.488
28768WAT      O86545   7.831   0.293   5.115
28768WAT     H186546   7.755   0.304   5.051
28768WAT     H286547   7.877   0.382   5.127
28769WAT      O86548   9.393   8.504   0.812
28769WAT     H186549   9.409   8.488   0.909
28769WAT     H286550   9.475   8.543   0.770
28770WAT      O86551   5.599   8.985   4.438
28770WAT     H186552   5.675   8.925   4.413
28770WAT     H286553   5.519   8.963   4.383
28771WAT      O86554   3.629   0.309   2.511
28771WAT     H186555   3.645   0.246   2.435
28771WAT     H286556   3.532   0.306   2.536
28772WAT      O86557   3.633   1.778   1.564
28772WAT     H186558   3.648   1.771   1.465
28772WAT     H286559   3.703   1.837   1.605
28773WAT      O86560   5.218   4.624   5.361
28773WAT     H186561   5.184   4.576   5.441
28773WAT     H286562   5.142   4.665   5.311
28774WAT      O86563   9.294   5.761   7.135
28774WAT     H186564   9.301   5.860   7.148
28774WAT     H286565   9.283   5.740   7.038
28775WAT      O86566   5.393   7.650   2.142
28775WAT     H186567   5.435   7.632   2.231
28775WAT     H286568   5.457   7.703   2.086
28776WAT      O86569   1.270   7.728   6.415
28776WAT     H186570   1.201   7.776   6.470
28776WAT     H286571   1.224   7.676   6.343
28777WAT      O86572   0.295   3.006   7.640
28777WAT     H186573   0.241   2.986   7.722
28777WAT     H286574   0.244   3.069   7.581
28778WAT      O86575   0.427   6.868   9.145
28778WAT     H186576   0.480   6.902   9.067
28778WAT     H286577   0.397   6.946   9.201
28779WAT      O86578   3.759   2.882   1.813
28779WAT     H186579   3.770   2.783   1.818
28779WAT     H286580   3.664   2.906   1.834
28780WAT      O86581   3.171   8.810   2.631
28780WAT     H186582   3.249   8.861   2.593
28780WAT     H286583   3.087   8.839   2.585
28781WAT      O86584   8.124   2.761   1.736
28781WAT     H186585   8.030   2.761   1.701
28781WAT     H286586   8.183   2.714   1.670
28782WAT      O86587   0.534   4.622   9.353
28782WAT     H186588   0.493   4.535   9.325
28782WAT     H286589   0.488   4.698   9.306
28783WAT      O86590   3.929   2.480   3.330
28783WAT     H186591   4.021   2.450   3.303
28783WAT     H286592   3.926   2.492   3.429
28784WAT      O86593   2.047   7.135   8.580
28784WAT     H186594   2.013   7.042   8.595
28784WAT     H286595   2.073   7.147   8.484
28785WAT      O86596   4.908   5.158   3.686
28785WAT     H186597   4.915   5.253   3.715
28785WAT     H286598   4.892   5.154   3.587
28786WAT      O86599   9.783   5.189   0.957
28786WAT     H186600   9.745   5.252   0.889
28786WAT     H286601   9.726   5.190   1.039
28787WAT      O86602   6.899   4.664   9.584
28787WAT     H186603   6.816   4.677   9.529
28787WAT     H286604   6.962   4.740   9.569
28788WAT      O86605   8.648   0.673   9.230
28788WAT     H186606   8.559   0.660   9.185
28788WAT     H286607   8.689   0.758   9.199
28789WAT      O86608   3.855   9.274   3.308
28789WAT     H186609   3.844   9.187   3.356
28789WAT     H286610   3.904   9.260   3.222
28790WAT      O86611   3.721   2.040   0.852
28790WAT     H186612   3.761   1.978   0.785
28790WAT     H286613   3.630   2.008   0.878
28791WAT      O86614   2.089   8.590   7.341
28791WAT     H186615   2.075   8.492   7.325
28791WAT     H286616   2.187   8.608   7.349
28792WAT      O86617   4.389   5.179   0.652
28792WAT     H186618   4.356   5.122   0.577
28792WAT     H286619   4.488   5.190   0.645
28793WAT      O86620   7.124   3.298   9.603
28793WAT     H186621   7.038   3.337   9.636
28793WAT     H286622   7.113   3.199   9.595
28794WAT      O86623   6.224   2.695   1.914
28794WAT     H186624   6.274   2.636   1.978
28794WAT     H286625   6.199   2.642   1.832
28795WAT      O86626   3.044   7.642   1.363
28795WAT     H186627   2.967   7.694   1.324
28795WAT     H286628   3.023   7.619   1.458
28796WAT      O86629   4.646   0.925   2.553
28796WAT     H186630   4.571   0.860   2.569
28796WAT     H286631   4.640   0.958   2.459
28797WAT      O86632   3.491   6.308   8.398
28797WAT     H186633   3.576   6.267   8.364
28797WAT     H286634   3.415   6.281   8.339
28798WAT      O86635   1.035   9.393   9.136
28798WAT     H186636   0.949   9.350   9.162
28798WAT     H286637   1.100   9.323   9.106
28799WAT      O86638   9.848   2.367   0.248
28799WAT     H186639   9.783   2.430   0.289
28799WAT     H286640   9.808   2.275   0.246
28800WAT      O86641   9.272   3.590   8.719
28800WAT     H186642   9.178   3.620   8.707
28800WAT     H286643   9.334   3.662   8.686
28801WAT      O86644   6.775   9.346   1.392
28801WAT     H186645   6.755   9.249   1.403
28801WAT     H286646   6.698   9.391   1.346
28802WAT      O86647   2.603   8.820   8.894
28802WAT     H186648   2.509   8.791   8.912
28802WAT     H286649   2.649   8.752   8.837
28803WAT      O86650   0.965   3.108   5.943
28803WAT     H186651   0.886   3.113   6.004
28803WAT     H286652   1.019   3.027   5.965
28804WAT      O86653   7.435   5.510   6.362
28804WAT     H186654   7.456   5.577   6.433
28804WAT     H286655   7.447   5.417   6.398
28805WAT      O86656   0.839   9.738   8.777
28805WAT     H186657   0.819   9.669   8.708
28805WAT     H286658   0.854   9.694   8.866
28806WAT      O86659   5.745   0.615   8.042
28806WAT     H186660   5.743   0.527   7.993
28806WAT     H286661   5.681   0.678   8.000
28807WAT      O86662   5.924   6.110   8.070
28807WAT     H186663   5.948   6.090   7.975
28807WAT     H286664   5.827   6.133   8.076
28808WAT      O86665   7.314   5.804   7.132
28808WAT     H186666   7.349   5.883   7.081
28808WAT     H286667   7.326   5.721   7.077
28809WAT      O86668   7.496   8.284   4.500
28809WAT     H186669   7.565   8.260   4.569
28809WAT     H286670   7.483   8.208   4.437
28810WAT      O86671   1.253   4.801   1.471
28810WAT     H186672   1.218   4.893   1.489
28810WAT     H286673   1.178   4.741   1.444
28811WAT      O86674   8.426   5.943   6.984
28811WAT     H186675   8.340   5.900   7.011
28811WAT     H286676   8.412   5.997   6.901
28812WAT      O86677   0.854   3.332   1.129
28812WAT     H186678   0.836   3.401   1.199
28812WAT     H286679   0.926   3.364   1.068
28813WAT      O86680   2.401   2.532   6.163
28813WAT     H186681   2.490   2.577   6.155
28813WAT     H286682   2.337   2.573   6.097
28814WAT      O86683   7.867   8.285   2.264
28814WAT     H186684   7.934   8.334   2.208
28814WAT     H286685   7.781   8.277   2.214
28815WAT      O86686   9.081   9.393   0.015
28815WAT     H186687   8.993   9.399  -0.033
28815WAT     H286688   9.097   9.477   0.066
28816WAT      O86689   1.977   5.356   0.718
28816WAT     H186690   2.075   5.375   0.711
28816WAT     H286691   1.927   5.443   0.727
28817WAT      O86692   3.196   6.262   0.415
28817WAT     H186693   3.205   6.171   0.454
28817WAT     H286694   3.100   6.279   0.391
28818WAT      O86695   8.082   9.593   6.277
28818WAT     H186696   8.172   9.555   6.295
28818WAT     H286697   8.080   9.633   6.185
28819WAT      O86698   6.076   5.651   0.575
28819WAT     H186699   6.139   5.639   0.498
28819WAT     H286700   6.127   5.683   0.655
28820WAT      O86701   6.902   4.618   3.347
28820WAT     H186702   6.844   4.549   3.390
28820WAT     H286703   6.856   4.707   3.353
28821WAT      O86704   6.435   6.166   8.748
28821WAT     H186705   6.393   6.088   8.795
28821WAT     H286706   6.532   6.148   8.733
28822WAT      O86707   9.624   7.409   6.987
28822WAT     H186708   9.560   7.335   7.009
28822WAT     H286709   9.648   7.457   7.071
28823WAT      O86710   2.884   4.452   5.107
28823WAT     H186711   2.941   4.411   5.035
28823WAT     H286712   2.788   4.446   5.081
28824WAT      O86713   3.583   1.007   8.119
28824WAT     H186714   3.490   1.045   8.128
28824WAT     H286715   3.622   0.994   8.210
28825WAT      O86716   9.878   5.543   3.709
28825WAT     H186717   9.903   5.471   3.644
28825WAT     H286718   9.948   5.614   3.707
28826WAT      O86719   7.436   6.234   0.742
28826WAT     H186720   7.391   6.151   0.709
28826WAT     H286721   7.460   6.292   0.665
28827WAT      O86722   2.212   6.846   1.080
28827WAT     H186723   2.284   6.894   1.030
28827WAT     H286724   2.170   6.777   1.021
28828WAT      O86725   9.422   2.418   7.161
28828WAT     H186726   9.436   2.401   7.259
28828WAT     H286727   9.480   2.493   7.132
28829WAT      O86728   3.762   3.079   3.732
28829WAT     H186729   3.768   3.179   3.724
28829WAT     H286730   3.676   3.055   3.776
28830WAT      O86731   8.603   5.170   1.919
28830WAT     H186732   8.643   5.254   1.956
28830WAT     H286733   8.558   5.189   1.832
28831WAT      O86734   0.051   3.817   5.022
28831WAT     H186735   0.102   3.752   4.967
28831WAT     H286736   0.099   3.832   5.109
28832WAT      O86737   4.677   0.640   4.756
28832WAT     H186738   4.602   0.576   4.770
28832WAT     H286739   4.749   0.622   4.823
28833WAT      O86740   4.349   9.370   3.944
28833WAT     H186741   4.268   9.419   3.913
28833WAT     H286742   4.424   9.435   3.957
28834WAT      O86743   9.691   9.001   4.477
28834WAT     H186744   9.611   8.942   4.490
28834WAT     H286745   9.772   8.946   4.459
28835WAT      O86746   2.797   9.212   6.428
28835WAT     H186747   2.713   9.263   6.412
28835WAT     H286748   2.861   9.228   6.352
28836WAT      O86749   3.495   0.639   0.915
28836WAT     H186750   3.581   0.631   0.865
28836WAT     H286751   3.497   0.578   0.995
28837WAT      O86752   9.467   1.338   4.136
28837WAT     H186753   9.387   1.363   4.082
28837WAT     H286754   9.453   1.364   4.232
28838WAT      O86755   2.816   1.953   9.176
28838WAT     H186756   2.789   2.013   9.252
28838WAT     H286757   2.883   2.000   9.119
28839WAT      O86758   3.516   5.171   1.340
28839WAT     H186759   3.468   5.255   1.313
28839WAT     H286760   3.464   5.092   1.308
28840WAT      O86761   4.712   8.654   2.990
28840WAT     H186762   4.647   8.578   2.996
28840WAT     H286763   4.676   8.725   2.930
28841WAT      O86764   5.746   8.871   2.194
28841WAT     H186765   5.793   8.926   2.263
28841WAT     H286766   5.660   8.915   2.169
28842WAT      O86767   6.221   5.705   9.536
28842WAT     H186768   6.256   5.797   9.553
28842WAT     H286769   6.137   5.711   9.481
28843WAT      O86770   6.408   5.005   9.399
28843WAT     H186771   6.343   4.971   9.467
28843WAT     H286772   6.360   5.027   9.314
28844WAT      O86773   3.731   9.141   7.110
28844WAT     H186774   3.635   9.146   7.082
28844WAT     H286775   3.760   9.229   7.146
28845WAT      O86776   3.129   4.420   6.834
28845WAT     H186777   3.185   4.345   6.798
28845WAT     H286778   3.032   4.398   6.822
28846WAT      O86779   5.421   4.127   3.598
28846WAT     H186780   5.463   4.133   3.688
28846WAT     H286781   5.352   4.199   3.588
28847WAT      O86782   7.401   8.741   3.017
28847WAT     H186783   7.357   8.765   2.931
28847WAT     H286784   7.448   8.822   3.054
28848WAT      O86785   5.158   6.631   5.859
28848WAT     H186786   5.089   6.660   5.792
28848WAT     H286787   5.162   6.531   5.861
28849WAT      O86788   4.991   4.103   2.332
28849WAT     H186789   4.920   4.116   2.264
28849WAT     H286790   5.051   4.183   2.334
28850WAT      O86791   3.850   3.845   2.558
28850WAT     H186792   3.795   3.875   2.636
28850WAT     H286793   3.890   3.924   2.512
28851WAT      O86794   1.125   5.374   2.789
28851WAT     H186795   1.131   5.364   2.690
28851WAT     H286796   1.104   5.286   2.831
28852WAT      O86797   3.353   2.192   7.558
28852WAT     H186798   3.285   2.147   7.501
28852WAT     H286799   3.441   2.146   7.547
28853WAT      O86800   2.343   0.548   9.312
28853WAT     H186801   2.364   0.548   9.409
28853WAT     H286802   2.291   0.630   9.289
28854WAT      O86803   8.723   1.408   2.838
28854WAT     H186804   8.693   1.461   2.917
28854WAT     H286805   8.816   1.434   2.813
28855WAT      O86806   0.902   2.582   7.358
28855WAT     H186807   0.890   2.546   7.451
28855WAT     H286808   0.953   2.515   7.303
28856WAT      O86809   9.695   2.585   9.755
28856WAT     H186810   9.637   2.567   9.675
28856WAT     H286811   9.643   2.638   9.822
28857WAT      O86812   9.564   7.077   5.389
28857WAT     H186813   9.594   7.104   5.298
28857WAT     H286814   9.536   7.158   5.440
28858WAT      O86815   3.904   4.935   8.103
28858WAT     H186816   3.921   5.022   8.056
28858WAT     H286817   3.805   4.920   8.109
28859WAT      O86818   0.375   3.950   9.607
28859WAT     H186819   0.357   4.049   9.604
28859WAT     H286820   0.470   3.935   9.635
28860WAT      O86821   1.194   9.051   0.261
28860WAT     H186822   1.192   9.015   0.354
28860WAT     H286823   1.206   8.976   0.196
28861WAT      O86824   1.087   6.256   4.485
28861WAT     H186825   1.060   6.344   4.524
28861WAT     H286826   1.185   6.255   4.467
28862WAT      O86827   2.888   4.624   8.693
28862WAT     H186828   2.906   4.602   8.788
28862WAT     H286829   2.795   4.659   8.683
28863WAT      O86830   4.007   3.469   6.007
28863WAT     H186831   4.079   3.416   5.962
28863WAT     H286832   3.926   3.410   6.020
28864WAT      O86833   8.244   2.347   7.217
28864WAT     H186834   8.285   2.278   7.156
28864WAT     H286835   8.162   2.309   7.259
28865WAT      O86836   0.828   9.187   6.261
28865WAT     H186837   0.880   9.162   6.343
28865WAT     H286838   0.880   9.254   6.209
28866WAT      O86839   3.362   8.677   6.177
28866WAT     H186840   3.294   8.626   6.125
28866WAT     H286841   3.323   8.705   6.265
28867WAT      O86842   9.536   4.285   0.155
28867WAT     H186843   9.536   4.351   0.080
28867WAT     H286844   9.630   4.254   0.172
28868WAT      O86845   5.180   4.527   0.350
28868WAT     H186846   5.204   4.545   0.446
28868WAT     H286847   5.232   4.588   0.291
28869WAT      O86848   7.073   1.163   4.422
28869WAT     H186849   7.114   1.252   4.443
28869WAT     H286850   7.081   1.145   4.324
28870WAT      O86851   3.676   2.667   1.438
28870WAT     H186852   3.724   2.636   1.520
28870WAT     H286853   3.578   2.653   1.450
28871WAT      O86854   1.752   7.991   1.281
28871WAT     H186855   1.669   8.015   1.331
28871WAT     H286856   1.736   7.908   1.228
28872WAT      O86857   5.350   1.844   9.036
28872WAT     H186858   5.384   1.762   9.083
28872WAT     H286859   5.298   1.900   9.100
28873WAT      O86860   2.435   7.386   9.614
28873WAT     H186861   2.347   7.401   9.569
28873WAT     H286862   2.442   7.290   9.642
28874WAT      O86863   2.882   1.772   7.287
28874WAT     H186864   2.820   1.748   7.362
28874WAT     H286865   2.975   1.780   7.322
28875WAT      O86866   4.379   7.128   5.385
28875WAT     H186867   4.295   7.084   5.416
28875WAT     H286868   4.437   7.148   5.464
28876WAT      O86869   1.668   5.110   0.129
28876WAT     H186870   1.753   5.130   0.178
28876WAT     H286871   1.678   5.024   0.080
28877WAT      O86872   0.589   7.921   6.301
28877WAT     H186873   0.532   7.869   6.237
28877WAT     H286874   0.563   7.898   6.395
28878WAT      O86875   6.290   5.386   2.949
28878WAT     H186876   6.371   5.444   2.955
28878WAT     H286877   6.317   5.293   2.924
28879WAT      O86878   7.969   4.711   3.467
28879WAT     H186879   7.943   4.776   3.539
28879WAT     H286880   8.062   4.678   3.485
28880WAT      O86881   0.582   1.448   3.146
28880WAT     H186882   0.661   1.489   3.101
28880WAT     H286883   0.590   1.348   3.144
28881WAT      O86884   9.443   7.714   1.285
28881WAT     H186885   9.376   7.691   1.214
28881WAT     H286886   9.512   7.641   1.289
28882WAT      O86887   7.229   7.577   4.635
28882WAT     H186888   7.270   7.508   4.695
28882WAT     H286889   7.291   7.656   4.629
28883WAT      O86890   6.333   5.805   4.978
28883WAT     H186891   6.335   5.773   4.884
28883WAT     H286892   6.290   5.736   5.036
28884WAT      O86893   9.714   3.896   4.664
28884WAT     H186894   9.692   3.800   4.680
28884WAT     H286895   9.787   3.925   4.725
28885WAT      O86896   2.133   4.931   5.498
28885WAT     H186897   2.224   4.889   5.494
28885WAT     H286898   2.129   5.010   5.437
28886WAT      O86899   2.200   7.855   4.240
28886WAT     H186900   2.219   7.876   4.336
28886WAT     H286901   2.252   7.917   4.181
28887WAT      O86902   3.710   6.921   5.821
28887WAT     H186903   3.702   6.964   5.911
28887WAT     H286904   3.741   6.988   5.754
28888WAT      O86905   4.058   0.485   1.581
28888WAT     H186906   4.105   0.468   1.667
28888WAT     H286907   3.960   0.467   1.592
28889WAT      O86908   3.888   2.299   4.742
28889WAT     H186909   3.968   2.266   4.793
28889WAT     H286910   3.888   2.399   4.741
28890WAT      O86911   5.283   1.958   6.318
28890WAT     H186912   5.383   1.953   6.318
28890WAT     H286913   5.251   1.981   6.226
28891WAT      O86914   5.704   7.923   5.178
28891WAT     H186915   5.718   7.888   5.271
28891WAT     H286916   5.791   7.953   5.140
28892WAT      O86917   8.788   7.455   4.604
28892WAT     H186918   8.857   7.452   4.676
28892WAT     H286919   8.740   7.544   4.608
28893WAT      O86920   1.995   7.160   2.952
28893WAT     H186921   2.034   7.149   3.044
28893WAT     H286922   2.017   7.079   2.897
28894WAT      O86923   7.064   5.855   4.966
28894WAT     H186924   7.054   5.866   4.867
28894WAT     H286925   6.988   5.800   5.001
28895WAT      O86926   0.880   7.668   0.873
28895WAT     H186927   0.930   7.743   0.917
28895WAT     H286928   0.904   7.665   0.776
28896WAT      O86929   0.709   6.286   5.359
28896WAT     H186930   0.786   6.349   5.369
28896WAT     H286931   0.632   6.319   5.413
28897WAT      O86932   8.029   4.679   3.004
28897WAT     H186933   8.047   4.766   2.959
28897WAT     H286934   7.930   4.663   3.008
28898WAT      O86935   6.623   6.258   6.139
28898WAT     H186936   6.546   6.194   6.136
28898WAT     H286937   6.668   6.253   6.228
28899WAT      O86938   3.005   9.298   9.359
28899WAT     H186939   3.036   9.392   9.373
28899WAT     H286940   2.906   9.293   9.373
28900WAT      O86941   6.342   3.490   8.369
28900WAT     H186942   6.421   3.432   8.389
28900WAT     H286943   6.284   3.495   8.451
28901WAT      O86944   2.532   3.354   2.166
28901WAT     H186945   2.493   3.342   2.075
28901WAT     H286946   2.546   3.452   2.183
28902WAT      O86947   5.661   2.988   0.082
28902WAT     H186948   5.683   3.079   0.118
28902WAT     H286949   5.647   2.994  -0.017
28903WAT      O86950   3.376   7.812   3.874
28903WAT     H186951   3.348   7.736   3.816
28903WAT     H286952   3.315   7.818   3.953
28904WAT      O86953   9.714   6.878   5.516
28904WAT     H186954   9.684   6.902   5.608
28904WAT     H286955   9.650   6.913   5.448
28905WAT      O86956   7.389   3.040   5.425
28905WAT     H186957   7.365   2.991   5.509
28905WAT     H286958   7.472   3.094   5.441
28906WAT      O86959   5.647   2.746   0.557
28906WAT     H186960   5.747   2.740   0.562
28906WAT     H286961   5.622   2.827   0.503
28907WAT      O86962   5.801   6.684   2.480
28907WAT     H186963   5.799   6.777   2.444
28907WAT     H286964   5.729   6.630   2.436
28908WAT      O86965   4.719   4.318   9.027
28908WAT     H186966   4.755   4.410   9.013
28908WAT     H286967   4.771   4.273   9.100
28909WAT      O86968   0.512   6.567   7.312
28909WAT     H186969   0.537   6.570   7.215
28909WAT     H286970   0.446   6.640   7.331
28910WAT      O86971   4.726   7.592   0.779
28910WAT     H186972   4.762   7.509   0.822
28910WAT     H286973   4.657   7.633   0.839
28911WAT      O86974   5.118   5.043   1.331
28911WAT     H186975   5.052   5.018   1.403
28911WAT     H286976   5.090   5.129   1.289
28912WAT      O86977   5.086   7.832   2.667
28912WAT     H186978   5.169   7.883   2.648
28912WAT     H286979   5.101   7.771   2.745
28913WAT      O86980   6.688   0.512   8.186
28913WAT     H186981   6.695   0.494   8.088
28913WAT     H286982   6.608   0.569   8.204
28914WAT      O86983   9.639   3.241   8.456
28914WAT     H186984   9.683   3.173   8.515
28914WAT     H286985   9.550   3.207   8.425
28915WAT      O86986   0.639   5.221   8.873
28915WAT     H186987   0.674   5.155   8.806
28915WAT     H286988   0.546   5.246   8.850
28916WAT      O86989   2.008   0.476   2.046
28916WAT     H186990   2.102   0.452   2.069
28916WAT     H286991   1.983   0.562   2.092
28917WAT      O86992   4.463   1.406   9.455
28917WAT     H186993   4.383   1.346   9.465
28917WAT     H286994   4.524   1.394   9.533
28918WAT      O86995   1.940   3.301   8.734
28918WAT     H186996   1.866   3.308   8.801
28918WAT     H286997   1.976   3.208   8.734
28919WAT      O86998   5.563   1.579   3.084
28919WAT     H186999   5.532   1.497   3.036
28919WAT     H287000   5.488   1.615   3.140
28920WAT      O87001   4.874   4.049   6.772
28920WAT     H187002   4.899   3.973   6.833
28920WAT     H287003   4.916   4.035   6.682
28921WAT      O87004   8.988   4.171   2.579
28921WAT     H187005   8.935   4.096   2.538
28921WAT     H287006   9.057   4.133   2.640
28922WAT      O87007   3.733   5.208   4.857
28922WAT     H187008   3.655   5.271   4.852
28922WAT     H287009   3.762   5.198   4.952
28923WAT      O87010   7.527   6.777   3.890
28923WAT     H187011   7.617   6.758   3.930
28923WAT     H287012   7.510   6.876   3.891
28924WAT      O87013   1.280   2.664   1.545
28924WAT     H187014   1.344   2.587   1.553
28924WAT     H287015   1.212   2.659   1.618
28925WAT      O87016   7.061   9.384   7.261
28925WAT     H187017   7.009   9.333   7.192
28925WAT     H287018   7.158   9.362   7.252
28926WAT      O87019   9.208   8.634   7.269
28926WAT     H187020   9.118   8.667   7.241
28926WAT     H287021   9.250   8.701   7.332
28927WAT      O87022   9.888   6.356   8.907
28927WAT     H187023   9.805   6.378   8.958
28927WAT     H287024   9.912   6.433   8.847
28928WAT      O87025   5.334   0.302   4.486
28928WAT     H187026   5.314   0.316   4.583
28928WAT     H287027   5.430   0.279   4.474
28929WAT      O87028   6.507   9.358   6.077
28929WAT     H187029   6.481   9.454   6.066
28929WAT     H287030   6.594   9.341   6.031
28930WAT      O87031   5.696   3.189   5.512
28930WAT     H187032   5.624   3.235   5.562
28930WAT     H287033   5.706   3.230   5.421
28931WAT      O87034   9.150   6.374   1.873
28931WAT     H187035   9.151   6.370   1.973
28931WAT     H287036   9.150   6.470   1.844
28932WAT      O87037   8.802   6.941   7.378
28932WAT     H187038   8.745   7.020   7.355
28932WAT     H287039   8.897   6.959   7.350
28933WAT      O87040   0.611   2.096   1.499
28933WAT     H187041   0.689   2.042   1.529
28933WAT     H287042   0.630   2.193   1.512
28934WAT      O87043   9.282   9.458   8.601
28934WAT     H187044   9.285   9.501   8.691
28934WAT     H287045   9.254   9.526   8.532
28935WAT      O87046   1.783   2.890   3.621
28935WAT     H187047   1.749   2.928   3.708
28935WAT     H287048   1.881   2.874   3.628
28936WAT      O87049   8.870   0.923   5.301
28936WAT     H187050   8.953   0.926   5.246
28936WAT     H287051   8.801   0.867   5.255
28937WAT      O87052   3.071   2.781   3.839
28937WAT     H187053   2.982   2.747   3.807
28937WAT     H287054   3.133   2.790   3.761
28938WAT      O87055   8.335   3.932   9.549
28938WAT     H187056   8.239   3.939   9.577
28938WAT     H287057   8.381   3.863   9.605
28939WAT      O87058   2.184   0.073   0.046
28939WAT     H187059   2.194   0.069  -0.054
28939WAT     H287060   2.225  -0.008   0.087
28940WAT      O87061   3.037   0.734   4.166
28940WAT     H187062   3.130   0.772   4.172
28940WAT     H287063   3.027   0.660   4.232
28941WAT      O87064   9.059   5.507   0.684
28941WAT     H187065   8.978   5.484   0.629
28941WAT     H287066   9.032   5.565   0.761
28942WAT      O87067   8.828   8.170   2.130
28942WAT     H187068   8.850   8.170   2.032
28942WAT     H287069   8.843   8.078   2.167
28943WAT      O87070   3.472   1.953   2.197
28943WAT     H187071   3.379   1.990   2.195
28943WAT     H287072   3.526   2.001   2.267
28944WAT      O87073   7.996   9.457   7.854
28944WAT     H187074   7.996   9.518   7.934
28944WAT     H287075   7.963   9.507   7.774
28945WAT      O87076   1.286   0.653   7.103
28945WAT     H187077   1.310   0.570   7.154
28945WAT     H287078   1.350   0.667   7.028
28946WAT      O87079   9.841   2.353   2.463
28946WAT     H187080   9.798   2.282   2.519
28946WAT     H287081   9.896   2.412   2.522
28947WAT      O87082   4.955   5.551   9.212
28947WAT     H187083   5.025   5.575   9.279
28947WAT     H287084   4.880   5.617   9.218
28948WAT      O87085   1.867   8.313   7.306
28948WAT     H187086   1.811   8.380   7.356
28948WAT     H287087   1.829   8.300   7.214
28949WAT      O87088   4.226   0.445   6.371
28949WAT     H187089   4.206   0.502   6.451
28949WAT     H287090   4.141   0.406   6.335
28950WAT      O87091   8.687   9.180   9.574
28950WAT     H187092   8.673   9.276   9.596
28950WAT     H287093   8.601   9.130   9.585
28951WAT      O87094   4.807   6.293   7.463
28951WAT     H187095   4.851   6.343   7.388
28951WAT     H287096   4.780   6.358   7.534
28952WAT      O87097   1.895   4.539   3.712
28952WAT     H187098   1.799   4.561   3.731
28952WAT     H287099   1.903   4.507   3.617
28953WAT      O87100   0.716   1.274   6.801
28953WAT     H187101   0.709   1.329   6.884
28953WAT     H287102   0.675   1.184   6.817
28954WAT      O87103   7.294   1.444   4.955
28954WAT     H187104   7.283   1.463   5.053
28954WAT     H287105   7.356   1.512   4.916
28955WAT      O87106   9.573   7.121   9.801
28955WAT     H187107   9.612   7.120   9.709
28955WAT     H287108   9.627   7.181   9.859
28956WAT      O87109   6.126   0.678   5.562
28956WAT     H187110   6.084   0.716   5.645
28956WAT     H287111   6.217   0.716   5.550
28957WAT      O87112   2.331   3.018   5.624
28957WAT     H187113   2.429   3.002   5.611
28957WAT     H287114   2.316   3.116   5.639
28958WAT      O87115   6.938   6.893   3.209
28958WAT     H187116   6.914   6.932   3.120
28958WAT     H287117   6.891   6.944   3.281
28959WAT      O87118   9.194   5.996   5.796
28959WAT     H187119   9.130   6.000   5.873
28959WAT     H287120   9.179   5.912   5.745
28960WAT      O87121   7.351   8.531   5.173
28960WAT     H187122   7.411   8.575   5.107
28960WAT     H287123   7.259   8.571   5.167
28961WAT      O87124   9.546   7.355   0.477
28961WAT     H187125   9.487   7.345   0.557
28961WAT     H287126   9.602   7.437   0.487
28962WAT      O87127   9.766   6.777   8.684
28962WAT     H187128   9.798   6.872   8.683
28962WAT     H287129   9.724   6.757   8.772
28963WAT      O87130   9.028   3.564   1.028
28963WAT     H187131   9.085   3.571   0.946
28963WAT     H287132   8.931   3.562   1.001
28964WAT      O87133   0.500   0.794   0.397
28964WAT     H187134   0.446   0.807   0.314
28964WAT     H287135   0.586   0.748   0.375
28965WAT      O87136   2.722   4.011   3.464
28965WAT     H187137   2.771   3.992   3.379
28965WAT     H287138   2.728   4.109   3.485
28966WAT      O87139   8.577   6.857   1.206
28966WAT     H187140   8.567   6.759   1.220
28966WAT     H287141   8.658   6.889   1.255
28967WAT      O87142   5.592   3.091   6.573
28967WAT     H187143   5.676   3.040   6.591
28967WAT     H287144   5.514   3.029   6.578
28968WAT      O87145   2.731   4.328   1.424
28968WAT     H187146   2.760   4.233   1.437
28968WAT     H287147   2.811   4.388   1.428
28969WAT      O87148   1.531   3.281   0.896
28969WAT     H187149   1.584   3.213   0.845
28969WAT     H287150   1.593   3.332   0.956
28970WAT      O87151   7.309   9.180   3.899
28970WAT     H187152   7.272   9.245   3.966
28970WAT     H287153   7.376   9.122   3.944
28971WAT      O87154   1.971   1.386   6.969
28971WAT     H187155   1.971   1.433   6.881
28971WAT     H287156   2.058   1.401   7.016
28972WAT      O87157   6.685   0.168   8.793
28972WAT     H187158   6.779   0.192   8.817
28972WAT     H287159   6.621   0.219   8.850
28973WAT      O87160   6.654   3.459   5.134
28973WAT     H187161   6.658   3.514   5.050
28973WAT     H287162   6.709   3.504   5.205
28974WAT      O87163   8.666   4.200   3.351
28974WAT     H187164   8.718   4.162   3.427
28974WAT     H287165   8.626   4.126   3.296
28975WAT      O87166   1.103   5.536   2.185
28975WAT     H187167   1.178   5.590   2.224
28975WAT     H287168   1.097   5.449   2.234
28976WAT      O87169   4.411   1.658   6.713
28976WAT     H187170   4.421   1.740   6.769
28976WAT     H287171   4.434   1.679   6.618
28977WAT      O87172   9.411   9.141   9.292
28977WAT     H187173   9.409   9.127   9.391
28977WAT     H287174   9.324   9.111   9.252
28978WAT      O87175   8.607   6.186   4.009
28978WAT     H187176   8.547   6.171   3.930
28978WAT     H287177   8.698   6.152   3.988
28979WAT      O87178   5.194   9.483   1.335
28979WAT     H187179   5.143   9.440   1.409
28979WAT     H287180   5.137   9.552   1.290
28980WAT      O87181   7.644   6.719   7.616
28980WAT     H187182   7.601   6.808   7.604
28980WAT     H287183   7.740   6.731   7.640
28981WAT      O87184   1.821   7.907   3.849
28981WAT     H187185   1.901   7.864   3.891
28981WAT     H287186   1.851   7.962   3.771
28982WAT      O87187   2.572   4.456   5.722
28982WAT     H187188   2.522   4.370   5.729
28982WAT     H287189   2.518   4.530   5.760
28983WAT      O87190   5.670   3.063   4.941
28983WAT     H187191   5.664   2.967   4.967
28983WAT     H287192   5.586   3.111   4.967
28984WAT      O87193   5.865   7.244   5.815
28984WAT     H187194   5.958   7.208   5.823
28984WAT     H287195   5.851   7.317   5.881
28985WAT      O87196   3.692   1.630   4.379
28985WAT     H187197   3.604   1.604   4.339
28985WAT     H287198   3.765   1.579   4.333
28986WAT      O87199   2.446   9.409   4.442
28986WAT     H187200   2.415   9.391   4.536
28986WAT     H287201   2.367   9.416   4.381
28987WAT      O87202   7.290   7.040   2.562
28987WAT     H187203   7.284   7.079   2.654
28987WAT     H287204   7.348   7.098   2.505
28988WAT      O87205   6.981   4.793   1.355
28988WAT     H187206   7.061   4.794   1.415
28988WAT     H287207   7.007   4.757   1.265
28989WAT      O87208   7.990   1.703   7.712
28989WAT     H187209   7.927   1.733   7.640
28989WAT     H287210   7.952   1.725   7.801
28990WAT      O87211   2.808   7.056   4.829
28990WAT     H187212   2.800   6.977   4.891
28990WAT     H287213   2.848   7.133   4.878
28991WAT      O87214   9.084   7.126   0.971
28991WAT     H187215   9.063   7.205   0.913
28991WAT     H287216   9.090   7.155   1.066
28992WAT      O87217   3.938   0.610   2.486
28992WAT     H187218   3.944   0.706   2.458
28992WAT     H287219   3.872   0.562   2.427
28993WAT      O87220   1.840   1.979   0.244
28993WAT     H187221   1.746   2.010   0.229
28993WAT     H287222   1.858   1.975   0.343
28994WAT      O87223   5.924   9.674   4.112
28994WAT     H187224   5.878   9.731   4.044
28994WAT     H287225   6.019   9.703   4.122
28995WAT      O87226   5.191   9.831   0.137
28995WAT     H187227   5.213   9.863   0.230
28995WAT     H287228   5.236   9.744   0.121
28996WAT      O87229   6.120   1.331   2.186
28996WAT     H187230   6.145   1.234   2.190
28996WAT     H287231   6.125   1.371   2.278
28997WAT      O87232   3.582   8.883   8.617
28997WAT     H187233   3.485   8.864   8.599
28997WAT     H287234   3.615   8.951   8.552
28998WAT      O87235   5.662   2.566   9.622
28998WAT     H187236   5.606   2.623   9.563
28998WAT     H287237   5.749   2.545   9.577
28999WAT      O87238   7.651   5.645   7.022
28999WAT     H187239   7.695   5.581   7.085
28999WAT     H287240   7.563   5.607   6.993
29000WAT      O87241   5.625   8.492   6.176
29000WAT     H187242   5.561   8.487   6.252
29000WAT     H287243   5.592   8.557   6.108
29001WAT      O87244   2.208   1.885   4.544
29001WAT     H187245   2.294   1.845   4.513
29001WAT     H287246   2.185   1.850   4.635
29002WAT      O87247   3.148   6.875   4.096
29002WAT     H187248   3.049   6.863   4.093
29002WAT     H287249   3.192   6.800   4.046
29003WAT      O87250   9.564   4.937   4.748
29003WAT     H187251   9.542   4.849   4.705
29003WAT     H287252   9.661   4.958   4.733
29004WAT      O87253   7.938   9.822   7.533
29004WAT     H187254   7.959   9.903   7.587
29004WAT     H287255   8.000   9.817   7.455
29005WAT      O87256   4.103   0.009   9.797
29005WAT     H187257   4.158   0.093   9.790
29005WAT     H287258   4.121  -0.034   9.885
29006WAT      O87259   5.565   3.913   0.093
29006WAT     H187260   5.573   3.990   0.030
29006WAT     H287261   5.569   3.945   0.187
29007WAT      O87262   9.109   4.523   4.842
29007WAT     H187263   9.159   4.448   4.800
29007WAT     H287264   9.148   4.610   4.810
29008WAT      O87265   9.081   8.505   4.957
29008WAT     H187266   9.040   8.596   4.958
29008WAT     H287267   9.074   8.467   4.864
29009WAT      O87268   1.961   3.598   0.895
29009WAT     H187269   2.061   3.599   0.893
29009WAT     H287270   1.930   3.510   0.931
29010WAT      O87271   5.721   2.186   2.423
29010WAT     H187272   5.672   2.263   2.463
29010WAT     H287273   5.660   2.107   2.417
29011WAT      O87274   5.785   3.920   3.748
29011WAT     H187275   5.848   3.903   3.824
29011WAT     H287276   5.838   3.941   3.666
29012WAT      O87277   1.425   8.664   1.082
29012WAT     H187278   1.441   8.630   0.989
29012WAT     H287279   1.415   8.587   1.144
29013WAT      O87280   0.532   0.689   2.129
29013WAT     H187281   0.527   0.746   2.048
29013WAT     H287282   0.500   0.740   2.209
29014WAT      O87283   4.343   4.090   8.073
29014WAT     H187284   4.311   4.072   8.166
29014WAT     H287285   4.400   4.172   8.072
29015WAT      O87286   0.900   0.724   4.790
29015WAT     H187287   0.866   0.762   4.876
29015WAT     H287288   0.995   0.752   4.777
29016WAT      O87289   1.821   5.403   4.505
29016WAT     H187290   1.795   5.394   4.409
29016WAT     H287291   1.902   5.348   4.524
29017WAT      O87292   7.633   8.862   0.204
29017WAT     H187293   7.727   8.830   0.216
29017WAT     H287294   7.578   8.788   0.165
29018WAT      O87295   0.516   7.159   2.500
29018WAT     H187296   0.572   7.217   2.440
29018WAT     H287297   0.525   7.191   2.594
29019WAT      O87298   2.688   0.244   0.451
29019WAT     H187299   2.788   0.238   0.453
29019WAT     H287300   2.658   0.276   0.361
29020WAT      O87301   1.289   6.373   6.010
29020WAT     H187302   1.302   6.301   6.078
29020WAT     H287303   1.197   6.410   6.019
29021WAT      O87304   5.977   5.832   4.214
29021WAT     H187305   5.977   5.931   4.195
29021WAT     H287306   6.071   5.800   4.218
29022WAT      O87307   2.119   2.822   7.201
29022WAT     H187308   2.188   2.884   7.164
29022WAT     H287309   2.029   2.850   7.170
29023WAT      O87310   9.408   1.271   9.040
29023WAT     H187311   9.314   1.272   9.074
29023WAT     H287312   9.408   1.289   8.942
29024WAT      O87313   8.016   1.321   3.810
29024WAT     H187314   7.927   1.307   3.853
29024WAT     H287315   8.088   1.293   3.874
29025WAT      O87316   8.898   3.070   6.011
29025WAT     H187317   8.873   3.109   5.923
29025WAT     H287318   8.854   2.980   6.021
29026WAT      O87319   5.235   8.160   2.461
29026WAT     H187320   5.136   8.154   2.445
29026WAT     H287321   5.277   8.072   2.442
29027WAT      O87322   8.521   7.189   4.894
29027WAT     H187323   8.569   7.271   4.926
29027WAT     H287324   8.512   7.125   4.970
29028WAT      O87325   5.340   9.592   0.110
29028WAT     H187326   5.406   9.596   0.035
29028WAT     H287327   5.272   9.522   0.090
29029WAT      O87328   0.566   8.293   3.249
29029WAT     H187329   0.498   8.305   3.178
29029WAT     H287330   0.596   8.198   3.252
29030WAT      O87331   3.533   6.981   3.847
29030WAT     H187332   3.513   7.016   3.756
29030WAT     H287333   3.629   6.951   3.851
29031WAT      O87334   3.682   0.745   1.826
29031WAT     H187335   3.655   0.839   1.847
29031WAT     H287336   3.708   0.698   1.910
29032WAT      O87337   3.989   6.154   9.316
29032WAT     H187338   3.926   6.223   9.281
29032WAT     H287339   4.082   6.177   9.289
29033WAT      O87340   9.852   7.466   7.740
29033WAT     H187341   9.760   7.494   7.767
29033WAT     H287342   9.912   7.547   7.738
29034WAT      O87343   8.784   6.431   6.431
29034WAT     H187344   8.716   6.500   6.409
29034WAT     H287345   8.739   6.350   6.469
29035WAT      O87346   3.315   0.774   7.726
29035WAT     H187347   3.414   0.784   7.711
29035WAT     H287348   3.271   0.744   7.641
29036WAT      O87349   1.553   7.181   1.901
29036WAT     H187350   1.607   7.219   1.976
29036WAT     H287351   1.583   7.221   1.815
29037WAT      O87352   8.766   1.693   0.215
29037WAT     H187353   8.690   1.635   0.183
29037WAT     H287354   8.828   1.637   0.269
29038WAT      O87355   4.566   9.733   0.648
29038WAT     H187356   4.555   9.636   0.668
29038WAT     H287357   4.510   9.786   0.712
29039WAT      O87358   6.767   9.123   0.424
29039WAT     H187359   6.754   9.031   0.461
29039WAT     H287360   6.687   9.149   0.371
29040WAT      O87361   5.820   1.891   2.897
29040WAT     H187362   5.799   1.805   2.852
29040WAT     H287363   5.874   1.949   2.836
29041WAT      O87364   1.974   1.997   1.468
29041WAT     H187365   2.003   2.089   1.441
29041WAT     H287366   2.031   1.930   1.421
29042WAT      O87367   5.116   5.344   1.462
29042WAT     H187368   5.070   5.336   1.374
29042WAT     H287369   5.204   5.390   1.449
29043WAT      O87370   2.318   7.445   3.225
29043WAT     H187371   2.338   7.494   3.141
29043WAT     H287372   2.249   7.375   3.207
29044WAT      O87373   3.325   4.213   1.271
29044WAT     H187374   3.290   4.160   1.348
29044WAT     H287375   3.272   4.191   1.189
29045WAT      O87376   5.785   9.825   4.387
29045WAT     H187377   5.850   9.888   4.345
29045WAT     H287378   5.810   9.810   4.483
29046WAT      O87379   9.339   7.465   9.215
29046WAT     H187380   9.396   7.386   9.193
29046WAT     H287381   9.264   7.472   9.150
29047WAT      O87382   3.712   0.919   7.869
29047WAT     H187383   3.733   0.993   7.806
29047WAT     H287384   3.667   0.955   7.951
29048WAT      O87385   9.020   4.053   7.503
29048WAT     H187386   8.953   4.068   7.575
29048WAT     H287387   9.084   3.981   7.532
29049WAT      O87388   4.485   2.637   4.832
29049WAT     H187389   4.485   2.545   4.792
29049WAT     H287390   4.426   2.638   4.913
29050WAT      O87391   9.404   2.498   0.164
29050WAT     H187392   9.331   2.462   0.106
29050WAT     H287393   9.456   2.423   0.203
29051WAT      O87394   0.454   1.886   1.430
29051WAT     H187395   0.501   1.965   1.470
29051WAT     H287396   0.521   1.830   1.381
29052WAT      O87397   6.465   0.368   0.443
29052WAT     H187398   6.397   0.388   0.514
29052WAT     H287399   6.500   0.454   0.406
29053WAT      O87400   7.497   4.008   4.871
29053WAT     H187401   7.474   4.092   4.922
29053WAT     H287402   7.537   4.033   4.783
29054WAT      O87403   6.427   7.804   8.647
29054WAT     H187404   6.447   7.706   8.641
29054WAT     H287405   6.369   7.831   8.570
29055WAT      O87406   3.630   6.865   4.178
29055WAT     H187407   3.558   6.833   4.116
29055WAT     H287408   3.662   6.955   4.148
29056WAT      O87409   2.079   4.655   7.763
29056WAT     H187410   2.023   4.588   7.811
29056WAT     H287411   2.033   4.683   7.679
29057WAT      O87412   7.332   8.831   3.467
29057WAT     H187413   7.399   8.895   3.430
29057WAT     H287414   7.246   8.840   3.416
29058WAT      O87415   3.507   6.550   2.698
29058WAT     H187416   3.468   6.573   2.609
29058WAT     H287417   3.433   6.539   2.765
29059WAT      O87418   1.380   2.908   8.321
29059WAT     H187419   1.340   2.847   8.252
29059WAT     H287420   1.479   2.893   8.325
29060WAT      O87421   7.957   6.047   6.864
29060WAT     H187422   7.988   6.107   6.938
29060WAT     H287423   7.884   5.988   6.899
29061WAT      O87424   0.352   0.638   4.613
29061WAT     H187425   0.396   0.616   4.525
29061WAT     H287426   0.300   0.558   4.644
29062WAT      O87427   0.779   4.382   4.964
29062WAT     H187428   0.711   4.419   4.900
29062WAT     H287429   0.852   4.337   4.911
29063WAT      O87430   4.102   2.316   2.681
29063WAT     H187431   4.054   2.232   2.706
29063WAT     H287432   4.162   2.343   2.755
29064WAT      O87433   1.871   8.534   8.195
29064WAT     H187434   1.915   8.592   8.264
29064WAT     H287435   1.827   8.592   8.127
29065WAT      O87436   4.651   6.697   4.800
29065WAT     H187437   4.649   6.606   4.757
29065WAT     H287438   4.661   6.686   4.899
29066WAT      O87439   8.525   3.568   6.808
29066WAT     H187440   8.514   3.481   6.760
29066WAT     H287441   8.577   3.631   6.751
29067WAT      O87442   4.710   3.354   0.900
29067WAT     H187443   4.759   3.276   0.940
29067WAT     H287444   4.614   3.330   0.889
29068WAT      O87445   4.395   7.144   4.587
29068WAT     H187446   4.399   7.055   4.541
29068WAT     H287447   4.432   7.135   4.680
29069WAT      O87448   5.907   6.944   8.564
29069WAT     H187449   5.925   7.042   8.566
29069WAT     H287450   5.937   6.902   8.650
29070WAT      O87451   4.189   2.142   5.482
29070WAT     H187452   4.273   2.139   5.535
29070WAT     H287453   4.117   2.186   5.536
29071WAT      O87454   8.472   4.772   4.549
29071WAT     H187455   8.423   4.854   4.577
29071WAT     H287456   8.570   4.792   4.543
29072WAT      O87457   0.127   3.037   6.976
29072WAT     H187458   0.188   2.958   6.967
29072WAT     H287459   0.172   3.108   7.030
29073WAT      O87460   7.280   7.042   4.513
29073WAT     H187461   7.252   6.946   4.511
29073WAT     H287462   7.310   7.066   4.605
29074WAT      O87463   3.987   5.452   4.946
29074WAT     H187464   3.988   5.357   4.978
29074WAT     H287465   4.061   5.503   4.990
29075WAT      O87466   8.010   7.093   6.348
29075WAT     H187467   7.959   7.106   6.263
29075WAT     H287468   7.956   7.038   6.411
29076WAT      O87469   2.991   0.772   7.569
29076WAT     H187470   2.975   0.861   7.611
29076WAT     H287471   2.915   0.749   7.508
29077WAT      O87472   4.596   1.917   4.705
29077WAT     H187473   4.514   1.971   4.723
29077WAT     H287474   4.574   1.820   4.709
29078WAT      O87475   2.646   3.065   7.147
29078WAT     H187476   2.638   2.985   7.208
29078WAT     H287477   2.595   3.142   7.187
29079WAT      O87478   6.192   4.318   6.527
29079WAT     H187479   6.235   4.403   6.556
29079WAT     H287480   6.093   4.331   6.520
29080WAT      O87481   5.158   3.013   9.682
29080WAT     H187482   5.237   2.988   9.626
29080WAT     H287483   5.110   3.090   9.639
29081WAT      O87484   5.761   1.898   9.703
29081WAT     H187485   5.768   1.799   9.720
29081WAT     H287486   5.844   1.930   9.657
29082WAT      O87487   4.718   7.213   8.584
29082WAT     H187488   4.802   7.205   8.637
29082WAT     H287489   4.705   7.130   8.530
29083WAT      O87490   1.036   1.348   0.789
29083WAT     H187491   1.116   1.302   0.751
29083WAT     H287492   0.994   1.405   0.719
29084WAT      O87493   4.939   3.188   9.201
29084WAT     H187494   4.950   3.279   9.239
29084WAT     H287495   5.017   3.131   9.226
29085WAT      O87496   8.644   5.027   5.940
29085WAT     H187497   8.686   4.991   6.023
29085WAT     H287498   8.715   5.053   5.875
29086WAT      O87499   3.777   1.797   7.229
29086WAT     H187500   3.681   1.776   7.211
29086WAT     H287501   3.816   1.843   7.149
29087WAT      O87502   1.770   4.030   4.959
29087WAT     H187503   1.824   4.053   5.040
29087WAT     H287504   1.715   3.948   4.977
29088WAT      O87505   7.098   1.295   1.850
29088WAT     H187506   7.099   1.353   1.931
29088WAT     H287507   7.011   1.246   1.844
29089WAT      O87508   4.199   0.582   5.953
29089WAT     H187509   4.212   0.597   5.854
29089WAT     H287510   4.288   0.578   5.998
29090WAT      O87511   9.191   7.955   3.071
29090WAT     H187512   9.190   7.884   3.141
29090WAT     H287513   9.282   7.961   3.030
29091WAT      O87514   0.864   3.103   0.180
29091WAT     H187515   0.838   3.194   0.147
29091WAT     H287516   0.960   3.085   0.158
29092WAT      O87517   7.523   3.903   8.570
29092WAT     H187518   7.430   3.893   8.535
29092WAT     H287519   7.531   3.855   8.657
29093WAT      O87520   8.753   5.459   1.935
29093WAT     H187521   8.799   5.405   2.005
29093WAT     H287522   8.664   5.490   1.970
29094WAT      O87523   1.468   4.079   4.354
29094WAT     H187524   1.527   3.998   4.361
29094WAT     H287525   1.518   4.159   4.387
29095WAT      O87526   1.944   0.984   5.357
29095WAT     H187527   1.996   0.997   5.441
29095WAT     H287528   1.868   1.048   5.354
29096WAT      O87529   1.872   5.733   8.481
29096WAT     H187530   1.951   5.752   8.540
29096WAT     H287531   1.788   5.738   8.536
29097WAT      O87532   0.891   4.273   0.587
29097WAT     H187533   0.964   4.282   0.655
29097WAT     H287534   0.931   4.251   0.498
29098WAT      O87535   9.423   0.699   4.378
29098WAT     H187536   9.374   0.741   4.454
29098WAT     H287537   9.357   0.654   4.317
29099WAT      O87538   1.699   0.710   6.345
29099WAT     H187539   1.729   0.749   6.432
29099WAT     H287540   1.776   0.662   6.302
29100WAT      O87541   6.392   2.154   7.135
29100WAT     H187542   6.447   2.148   7.218
29100WAT     H287543   6.450   2.185   7.059
29101WAT      O87544   3.479   9.338   7.244
29101WAT     H187545   3.467   9.249   7.288
29101WAT     H287546   3.434   9.337   7.155
29102WAT      O87547   8.826   4.754   6.573
29102WAT     H187548   8.904   4.810   6.548
29102WAT     H287549   8.806   4.690   6.499
29103WAT      O87550   5.342   2.122   3.683
29103WAT     H187551   5.306   2.165   3.765
29103WAT     H287552   5.319   2.178   3.603
29104WAT      O87553   6.363   8.688   8.074
29104WAT     H187554   6.420   8.757   8.029
29104WAT     H287555   6.395   8.674   8.167
29105WAT      O87556   9.801   0.687   5.795
29105WAT     H187557   9.720   0.683   5.736
29105WAT     H287558   9.836   0.594   5.809
29106WAT      O87559   9.064   5.532   4.480
29106WAT     H187560   9.125   5.597   4.434
29106WAT     H287561   9.016   5.478   4.411
29107WAT      O87562   0.418   5.780   3.129
29107WAT     H187563   0.319   5.793   3.121
29107WAT     H287564   0.438   5.719   3.206
29108WAT      O87565   5.868   2.582   1.027
29108WAT     H187566   5.821   2.603   0.941
29108WAT     H287567   5.853   2.655   1.092
29109WAT      O87568   0.367   3.627   5.169
29109WAT     H187569   0.359   3.585   5.079
29109WAT     H287570   0.279   3.663   5.198
29110WAT      O87571   2.818   0.737   6.706
29110WAT     H187572   2.860   0.714   6.619
29110WAT     H287573   2.868   0.813   6.749
29111WAT      O87574   5.289   6.697   0.926
29111WAT     H187575   5.366   6.692   0.990
29111WAT     H287576   5.252   6.790   0.926
29112WAT      O87577   0.360   2.454   3.110
29112WAT     H187578   0.369   2.530   3.046
29112WAT     H287579   0.435   2.390   3.096
29113WAT      O87580   1.445   8.987   2.625
29113WAT     H187581   1.428   9.012   2.720
29113WAT     H287582   1.364   9.007   2.570
29114WAT      O87583   3.227   5.082   5.523
29114WAT     H187584   3.285   5.158   5.552
29114WAT     H287585   3.276   4.996   5.533
29115WAT      O87586   4.607   0.843   7.214
29115WAT     H187587   4.535   0.788   7.256
29115WAT     H287588   4.608   0.827   7.115
29116WAT      O87589   5.234   6.400   8.025
29116WAT     H187590   5.325   6.441   8.029
29116WAT     H287591   5.208   6.369   8.116
29117WAT      O87592   3.626   3.541   7.062
29117WAT     H187593   3.611   3.558   7.159
29117WAT     H287594   3.708   3.484   7.050
29118WAT      O87595   5.397   4.635   2.252
29118WAT     H187596   5.303   4.652   2.224
29118WAT     H287597   5.452   4.612   2.172
29119WAT      O87598   3.557   6.708   8.985
29119WAT     H187599   3.619   6.779   8.953
29119WAT     H287600   3.566   6.627   8.926
29120WAT      O87601   9.462   3.843   1.201
29120WAT     H187602   9.447   3.749   1.171
29120WAT     H287603   9.438   3.851   1.298
29121WAT      O87604   7.611   8.493   6.278
29121WAT     H187605   7.598   8.416   6.216
29121WAT     H287606   7.674   8.559   6.238
29122WAT      O87607   7.910   4.169   7.719
29122WAT     H187608   7.950   4.106   7.785
29122WAT     H287609   7.977   4.191   7.648
29123WAT      O87610   8.887   0.961   6.795
29123WAT     H187611   8.810   0.984   6.854
29123WAT     H287612   8.856   0.901   6.721
29124WAT      O87613   6.865   2.434   6.665
29124WAT     H187614   6.875   2.367   6.738
29124WAT     H287615   6.910   2.520   6.691
29125WAT      O87616   4.917   1.793   1.548
29125WAT     H187617   4.953   1.791   1.454
29125WAT     H287618   4.817   1.786   1.545
29126WAT      O87619   0.012   2.011   8.445
29126WAT     H187620   0.067   1.936   8.481
29126WAT     H287621  -0.029   1.984   8.358
29127WAT      O87622   5.481   3.195   6.254
29127WAT     H187623   5.423   3.246   6.318
29127WAT     H287624   5.536   3.259   6.200
29128WAT      O87625   0.872   6.354   9.748
29128WAT     H187626   0.842   6.288   9.817
29128WAT     H287627   0.944   6.411   9.786
29129WAT      O87628   0.767   5.839   4.760
29129WAT     H187629   0.828   5.877   4.829
29129WAT     H287630   0.814   5.766   4.710
29130WAT      O87631   0.937   2.122   6.600
29130WAT     H187632   0.946   2.023   6.599
29130WAT     H287633   0.897   2.151   6.687
29131WAT      O87634   9.242   2.843   2.141
29131WAT     H187635   9.336   2.818   2.117
29131WAT     H287636   9.227   2.824   2.239
29132WAT      O87637   4.699   6.961   9.210
29132WAT     H187638   4.714   6.872   9.253
29132WAT     H287639   4.724   7.034   9.274
29133WAT      O87640   5.687   1.799   4.117
29133WAT     H187641   5.772   1.807   4.169
29133WAT     H287642   5.707   1.769   4.024
29134WAT      O87643   2.336   0.276   2.027
29134WAT     H187644   2.394   0.208   2.072
29134WAT     H287645   2.366   0.368   2.054
29135WAT      O87646   1.997   4.071   2.984
29135WAT     H187647   2.045   4.046   3.068
29135WAT     H287648   1.994   4.171   2.975
29136WAT      O87649   3.236   6.720   8.751
29136WAT     H187650   3.271   6.760   8.836
29136WAT     H287651   3.191   6.790   8.697
29137WAT      O87652   4.153   4.280   2.541
29137WAT     H187653   4.150   4.304   2.638
29137WAT     H287654   4.191   4.187   2.531
29138WAT      O87655   8.368   6.949   2.929
29138WAT     H187656   8.278   6.936   2.971
29138WAT     H287657   8.375   6.893   2.847
29139WAT      O87658   9.571   5.397   0.846
29139WAT     H187659   9.587   5.496   0.848
29139WAT     H287660   9.526   5.369   0.930
29140WAT      O87661   8.611   1.373   3.185
29140WAT     H187662   8.594   1.453   3.128
29140WAT     H287663   8.678   1.313   3.141
29141WAT      O87664   4.430   3.653   0.652
29141WAT     H187665   4.487   3.712   0.595
29141WAT     H287666   4.339   3.644   0.612
29142WAT      O87667   7.155   3.926   7.479
29142WAT     H187668   7.086   3.933   7.550
29142WAT     H287669   7.177   4.017   7.444
29143WAT      O87670   7.216   7.478   7.342
29143WAT     H187671   7.211   7.542   7.266
29143WAT     H287672   7.181   7.522   7.425
29144WAT      O87673   8.390   4.279   3.900
29144WAT     H187674   8.383   4.375   3.928
29144WAT     H287675   8.403   4.222   3.981
29145WAT      O87676   1.887   6.118   6.645
29145WAT     H187677   1.900   6.209   6.683
29145WAT     H287678   1.806   6.075   6.688
29146WAT      O87679   1.653   2.199   1.371
29146WAT     H187680   1.692   2.291   1.376
29146WAT     H287681   1.709   2.142   1.311
29147WAT      O87682   7.989   7.541   6.459
29147WAT     H187683   8.060   7.494   6.407
29147WAT     H287684   8.022   7.631   6.486
29148WAT      O87685   2.602   2.090   7.623
29148WAT     H187686   2.526   2.033   7.654
29148WAT     H287687   2.671   2.096   7.696
29149WAT      O87688   4.354   4.896   1.886
29149WAT     H187689   4.418   4.820   1.889
29149WAT     H287690   4.392   4.970   1.830
29150WAT      O87691   8.926   4.212   3.176
29150WAT     H187692   8.929   4.205   3.276
29150WAT     H287693   9.017   4.190   3.139
29151WAT      O87694   3.714   9.426   7.423
29151WAT     H187695   3.672   9.389   7.341
29151WAT     H287696   3.796   9.479   7.398
29152WAT      O87697   6.099   0.791   3.733
29152WAT     H187698   6.171   0.814   3.799
29152WAT     H287699   6.127   0.821   3.642
29153WAT      O87700   7.403   7.796   3.521
29153WAT     H187701   7.405   7.743   3.437
29153WAT     H287702   7.354   7.881   3.506
29154WAT      O87703   6.009   8.384   6.666
29154WAT     H187704   5.977   8.473   6.699
29154WAT     H287705   6.101   8.367   6.701
29155WAT      O87706   0.870   3.733   9.292
29155WAT     H187707   0.931   3.676   9.347
29155WAT     H287708   0.922   3.810   9.254
29156WAT      O87709   0.354   9.798   3.061
29156WAT     H187710   0.301   9.864   3.008
29156WAT     H287711   0.416   9.748   3.000
29157WAT      O87712   4.341   7.396   2.517
29157WAT     H187713   4.436   7.365   2.506
29157WAT     H287714   4.284   7.358   2.445
29158WAT      O87715   1.890   1.238   4.464
29158WAT     H187716   1.809   1.230   4.405
29158WAT     H287717   1.932   1.148   4.475
29159WAT      O87718   2.461   1.122   3.798
29159WAT     H187719   2.456   1.062   3.718
29159WAT     H287720   2.476   1.068   3.880
29160WAT      O87721   8.296   4.206   1.894
29160WAT     H187722   8.387   4.169   1.874
29160WAT     H287723   8.298   4.305   1.891
29161WAT      O87724   8.836   2.890   8.755
29161WAT     H187725   8.807   2.975   8.713
29161WAT     H287726   8.927   2.865   8.721
29162WAT      O87727   2.442   3.454   8.745
29162WAT     H187728   2.400   3.491   8.827
29162WAT     H287729   2.373   3.407   8.690
29163WAT      O87730   9.164   3.038   1.406
29163WAT     H187731   9.242   2.976   1.404
29163WAT     H287732   9.188   3.120   1.459
29164WAT      O87733   5.673   9.359   1.222
29164WAT     H187734   5.591   9.356   1.279
29164WAT     H287735   5.660   9.425   1.148
29165WAT      O87736   4.738   2.127   3.748
29165WAT     H187737   4.647   2.167   3.760
29165WAT     H287738   4.735   2.031   3.773
29166WAT      O87739   6.544   1.843   8.443
29166WAT     H187740   6.531   1.854   8.542
29166WAT     H287741   6.579   1.929   8.404
29167WAT      O87742   1.629   9.307   7.121
29167WAT     H187743   1.699   9.375   7.140
29167WAT     H287744   1.672   9.218   7.107
29168WAT      O87745   1.053   8.452   8.737
29168WAT     H187746   0.982   8.399   8.690
29168WAT     H287747   1.100   8.393   8.803
29169WAT      O87748   3.876   0.433   0.504
29169WAT     H187749   3.950   0.498   0.518
29169WAT     H287750   3.883   0.394   0.412
29170WAT      O87751   8.187   8.419   4.459
29170WAT     H187752   8.180   8.446   4.555
29170WAT     H287753   8.206   8.499   4.403
29171WAT      O87754   6.359   5.161   7.104
29171WAT     H187755   6.278   5.215   7.128
29171WAT     H287756   6.430   5.175   7.173
29172WAT      O87757   6.757   3.388   7.815
29172WAT     H187758   6.684   3.351   7.757
29172WAT     H287759   6.740   3.362   7.910
29173WAT      O87760   1.419   3.896   8.574
29173WAT     H187761   1.514   3.892   8.604
29173WAT     H287762   1.410   3.851   8.485
29174WAT      O87763   0.166   1.255   0.822
29174WAT     H187764   0.095   1.229   0.758
29174WAT     H287765   0.255   1.226   0.787
29175WAT      O87766   6.261   5.566   6.993
29175WAT     H187767   6.314   5.651   6.984
29175WAT     H287768   6.183   5.569   6.930
29176WAT      O87769   0.521   0.771   7.748
29176WAT     H187770   0.541   0.868   7.756
29176WAT     H287771   0.603   0.718   7.771
29177WAT      O87772   2.490   2.176   9.466
29177WAT     H187773   2.557   2.202   9.536
29177WAT     H287774   2.401   2.215   9.489
29178WAT      O87775   2.775   5.369   3.848
29178WAT     H187776   2.813   5.298   3.907
29178WAT     H287777   2.842   5.443   3.839
29179WAT      O87778   7.123   5.426   2.244
29179WAT     H187779   7.065   5.364   2.296
29179WAT     H287780   7.216   5.391   2.241
29180WAT      O87781   7.931   1.178   9.019
29180WAT     H187782   7.906   1.083   8.999
29180WAT     H287783   7.856   1.238   8.990
29181WAT      O87784   6.848   8.201   4.015
29181WAT     H187785   6.765   8.164   3.974
29181WAT     H287786   6.830   8.223   4.111
29182WAT      O87787   4.851   4.982   4.347
29182WAT     H187788   4.913   5.058   4.364
29182WAT     H287789   4.837   4.930   4.432
29183WAT      O87790   0.036   3.706   8.404
29183WAT     H187791   0.100   3.631   8.387
29183WAT     H287792   0.067   3.758   8.484
29184WAT      O87793   6.054   4.013   1.750
29184WAT     H187794   5.995   3.949   1.800
29184WAT     H287795   6.072   3.978   1.659
29185WAT      O87796   3.273   8.314   9.141
29185WAT     H187797   3.211   8.345   9.069
29185WAT     H287798   3.294   8.389   9.203
29186WAT      O87799   5.661   3.247   0.171
29186WAT     H187800   5.688   3.229   0.265
29186WAT     H287801   5.729   3.306   0.127
29187WAT      O87802   6.337   1.954   7.697
29187WAT     H187803   6.305   1.867   7.735
29187WAT     H287804   6.331   2.025   7.767
29188WAT      O87805   2.657   0.606   3.683
29188WAT     H187806   2.707   0.541   3.625
29188WAT     H287807   2.716   0.684   3.704
29189WAT      O87808   9.585   9.470   0.619
29189WAT     H187809   9.537   9.414   0.552
29189WAT     H287810   9.531   9.551   0.642
29190WAT      O87811   1.182   3.938   3.910
29190WAT     H187812   1.131   3.853   3.898
29190WAT     H287813   1.268   3.933   3.858
29191WAT      O87814   9.510   6.153   0.813
29191WAT     H187815   9.565   6.085   0.860
29191WAT     H287816   9.540   6.245   0.840
29192WAT      O87817   9.033   0.929   2.963
29192WAT     H187818   9.059   1.025   2.971
29192WAT     H287819   9.056   0.894   2.873
29193WAT      O87820   3.089   6.659   2.569
29193WAT     H187821   3.123   6.685   2.659
29193WAT     H287822   3.029   6.731   2.534
29194WAT      O87823   0.581   2.052   4.431
29194WAT     H187824   0.637   1.995   4.492
29194WAT     H287825   0.616   2.045   4.338
29195WAT      O87826   8.457   3.695   3.384
29195WAT     H187827   8.549   3.707   3.423
29195WAT     H287828   8.389   3.698   3.458
29196WAT      O87829   4.219   5.793   1.422
29196WAT     H187830   4.182   5.707   1.388
29196WAT     H287831   4.169   5.820   1.505
29197WAT      O87832   5.934   6.836   0.434
29197WAT     H187833   5.985   6.901   0.490
29197WAT     H287834   5.927   6.872   0.340
29198WAT      O87835   0.617   5.595   6.417
29198WAT     H187836   0.524   5.620   6.393
29198WAT     H287837   0.657   5.540   6.344
29199WAT      O87838   5.441   5.827   1.912
29199WAT     H187839   5.385   5.910   1.901
29199WAT     H287840   5.494   5.834   1.996
29200WAT      O87841   9.812   9.092   7.248
29200WAT     H187842   9.887   9.136   7.296
29200WAT     H287843   9.817   9.114   7.150
29201WAT      O87844   5.594   5.405   4.723
29201WAT     H187845   5.608   5.443   4.631
29201WAT     H287846   5.624   5.310   4.725
29202WAT      O87847   3.503   3.675   6.855
29202WAT     H187848   3.541   3.632   6.937
29202WAT     H287849   3.551   3.641   6.775
29203WAT      O87850   5.353   5.999   7.046
29203WAT     H187851   5.437   5.981   6.995
29203WAT     H287852   5.376   6.046   7.132
29204WAT      O87853   3.474   3.289   4.931
29204WAT     H187854   3.380   3.292   4.966
29204WAT     H287855   3.492   3.372   4.878
29205WAT      O87856   4.325   5.333   2.303
29205WAT     H187857   4.243   5.324   2.246
29205WAT     H287858   4.376   5.415   2.275
29206WAT      O87859   0.601   0.112   1.121
29206WAT     H187860   0.502   0.113   1.112
29206WAT     H287861   0.640   0.185   1.066
29207WAT      O87862   2.786   0.181   8.719
29207WAT     H187863   2.788   0.192   8.819
29207WAT     H287864   2.756   0.089   8.696
29208WAT      O87865   1.268   7.736   9.891
29208WAT     H187866   1.351   7.740   9.834
29208WAT     H287867   1.213   7.657   9.864
29209WAT      O87868   8.276   3.647   6.891
29209WAT     H187869   8.368   3.611   6.872
29209WAT     H287870   8.283   3.735   6.937
29210WAT      O87871   8.551   3.938   3.670
29210WAT     H187872   8.480   3.966   3.605
29210WAT     H287873   8.575   4.015   3.729
29211WAT      O87874   8.414   4.267   2.455
29211WAT     H187875   8.378   4.260   2.549
29211WAT     H287876   8.459   4.355   2.444
29212WAT      O87877   4.983   6.029   6.428
29212WAT     H187878   4.963   6.024   6.526
29212WAT     H287879   4.926   6.099   6.386
29213WAT      O87880   1.852   4.593   1.597
29213WAT     H187881   1.826   4.549   1.683
29213WAT     H287882   1.771   4.609   1.541
29214WAT      O87883   6.930   1.509   5.220
29214WAT     H187884   7.008   1.562   5.187
29214WAT     H287885   6.891   1.553   5.301
29215WAT      O87886   4.731   3.314   7.983
29215WAT     H187887   4.791   3.235   7.998
29215WAT     H287888   4.652   3.308   8.044
29216WAT      O87889   2.570   9.262   9.646
29216WAT     H187890   2.634   9.322   9.694
29216WAT     H287891   2.491   9.316   9.615
29217WAT      O87892   2.902   9.499   2.290
29217WAT     H187893   2.811   9.491   2.249
29217WAT     H287894   2.894   9.540   2.381
29218WAT      O87895   9.246   7.400   5.265
29218WAT     H187896   9.279   7.366   5.177
29218WAT     H287897   9.196   7.327   5.312
29219WAT      O87898   7.388   2.389   5.867
29219WAT     H187899   7.327   2.408   5.944
29219WAT     H287900   7.356   2.438   5.786
29220WAT      O87901   9.582   5.964   5.367
29220WAT     H187902   9.544   6.013   5.288
29220WAT     H287903   9.507   5.921   5.418
29221WAT      O87904   3.190   4.889   8.501
29221WAT     H187905   3.209   4.829   8.579
29221WAT     H287906   3.093   4.883   8.478
29222WAT      O87907   6.796   5.499   0.392
29222WAT     H187908   6.746   5.566   0.447
29222WAT     H287909   6.887   5.535   0.370
29223WAT      O87910   8.178   6.143   0.451
29223WAT     H187911   8.123   6.139   0.535
29223WAT     H287912   8.158   6.062   0.395
29224WAT      O87913   4.862   5.831   5.757
29224WAT     H187914   4.824   5.795   5.842
29224WAT     H287915   4.961   5.816   5.756
29225WAT      O87916   9.793   6.699   2.641
29225WAT     H187917   9.762   6.740   2.555
29225WAT     H287918   9.781   6.600   2.637
29226WAT      O87919   2.475   9.045   3.410
29226WAT     H187920   2.421   8.974   3.456
29226WAT     H287921   2.447   9.051   3.314
29227WAT      O87922   5.479   9.656   8.012
29227WAT     H187923   5.548   9.587   7.991
29227WAT     H287924   5.446   9.644   8.106
29228WAT      O87925   8.064   3.423   6.574
29228WAT     H187926   7.967   3.424   6.552
29228WAT     H287927   8.090   3.512   6.612
29229WAT      O87928   1.511   5.630   1.163
29229WAT     H187929   1.540   5.573   1.240
29229WAT     H287930   1.433   5.588   1.117
29230WAT      O87931   9.197   3.255   8.991
29230WAT     H187932   9.126   3.187   8.973
29230WAT     H287933   9.284   3.208   9.007
29231WAT      O87934   1.691   4.448   0.310
29231WAT     H187935   1.653   4.395   0.234
29231WAT     H287936   1.689   4.393   0.393
29232WAT      O87937   8.182   0.034   3.666
29232WAT     H187938   8.266   0.070   3.706
29232WAT     H287939   8.111   0.105   3.667
29233WAT      O87940   0.630   0.029   7.066
29233WAT     H187941   0.671   0.120   7.075
29233WAT     H287942   0.584   0.004   7.151
29234WAT      O87943   7.046   9.783   4.958
29234WAT     H187944   6.968   9.787   4.896
29234WAT     H287945   7.069   9.876   4.989
29235WAT      O87946   3.252   0.637   0.690
29235WAT     H187947   3.198   0.555   0.708
29235WAT     H287948   3.347   0.612   0.671
29236WAT      O87949   1.761   2.968   6.395
29236WAT     H187950   1.840   3.025   6.370
29236WAT     H287951   1.783   2.914   6.475
29237WAT      O87952   6.240   6.576   9.781
29237WAT     H187953   6.234   6.484   9.743
29237WAT     H287954   6.336   6.597   9.800
29238WAT      O87955   8.116   4.724   6.965
29238WAT     H187956   8.170   4.688   6.889
29238WAT     H287957   8.176   4.766   7.032
29239WAT      O87958   9.399   2.547   6.674
29239WAT     H187959   9.484   2.528   6.724
29239WAT     H287960   9.321   2.534   6.735
29240WAT      O87961   1.954   6.848   0.172
29240WAT     H187962   2.024   6.890   0.114
29240WAT     H287963   1.970   6.875   0.267
29241WAT      O87964   8.200   8.401   1.804
29241WAT     H187965   8.162   8.345   1.730
29241WAT     H287966   8.153   8.490   1.806
29242WAT      O87967   8.307   9.417   9.470
29242WAT     H187968   8.279   9.479   9.397
29242WAT     H287969   8.287   9.323   9.443
29243WAT      O87970   9.792   5.353   7.187
29243WAT     H187971   9.866   5.292   7.157
29243WAT     H287972   9.742   5.312   7.263
29244WAT      O87973   3.306   0.777   9.886
29244WAT     H187974   3.399   0.747   9.867
29244WAT     H287975   3.245   0.745   9.814
29245WAT      O87976   5.035   1.174   8.130
29245WAT     H187977   5.057   1.083   8.167
29245WAT     H287978   5.053   1.243   8.200
29246WAT      O87979   8.314   9.740   0.125
29246WAT     H187980   8.244   9.804   0.094
29246WAT     H287981   8.396   9.791   0.153
29247WAT      O87982   3.094   1.794   5.437
29247WAT     H187983   3.034   1.874   5.437
29247WAT     H287984   3.087   1.747   5.349
29248WAT      O87985   1.206   3.850   0.047
29248WAT     H187986   1.268   3.824   0.121
29248WAT     H287987   1.194   3.773  -0.015
29249WAT      O87988   5.107   6.558   1.995
29249WAT     H187989   5.084   6.461   1.980
29249WAT     H287990   5.170   6.588   1.923
29250WAT      O87991   6.316   7.939   5.167
29250WAT     H187992   6.354   7.993   5.241
29250WAT     H287993   6.360   7.965   5.081
29251WAT      O87994   7.221   4.463   4.038
29251WAT     H187995   7.281   4.390   4.006
29251WAT     H287996   7.272   4.549   4.040
29252WAT      O87997   0.901   7.763   2.642
29252WAT     H187998   0.915   7.666   2.658
29252WAT     H287999   0.988   7.805   2.615
29253WAT      O88000   9.216   5.151   8.484
29253WAT     H188001   9.304   5.112   8.514
29253WAT     H288002   9.197   5.121   8.390
29254WAT      O88003   1.497   6.848   6.223
29254WAT     H188004   1.546   6.934   6.237
29254WAT     H288005   1.457   6.818   6.310
29255WAT      O88006   0.034   4.994   4.630
29255WAT     H188007   0.096   5.037   4.696
29255WAT     H288008   0.039   4.894   4.640
29256WAT      O88009   6.317   5.638   1.163
29256WAT     H188010   6.245   5.622   1.230
29256WAT     H288011   6.373   5.716   1.192
29257WAT      O88012   8.233   5.249   9.876
29257WAT     H188013   8.315   5.297   9.906
29257WAT     H288014   8.258   5.156   9.848
29258WAT      O88015   0.164   0.708   8.115
29258WAT     H188016   0.198   0.800   8.132
29258WAT     H288017   0.232   0.656   8.063
29259WAT      O88018   7.012   5.402   1.096
29259WAT     H188019   6.966   5.314   1.104
29259WAT     H288020   7.063   5.421   1.180
29260WAT      O88021   8.682   7.849   0.081
29260WAT     H188022   8.609   7.873   0.016
29260WAT     H288023   8.642   7.833   0.171
29261WAT      O88024   9.320   7.164   2.584
29261WAT     H188025   9.414   7.140   2.560
29261WAT     H288026   9.313   7.175   2.683
29262WAT      O88027   8.969   5.283   5.799
29262WAT     H188028   8.884   5.294   5.850
29262WAT     H288029   8.952   5.301   5.702
29263WAT      O88030   4.692   9.424   6.351
29263WAT     H188031   4.650   9.349   6.402
29263WAT     H288032   4.737   9.388   6.269
29264WAT      O88033   1.613   8.921   1.207
29264WAT     H188034   1.546   8.972   1.260
29264WAT     H288035   1.683   8.883   1.267
29265WAT      O88036   8.591   1.564   3.016
29265WAT     H188037   8.671   1.621   3.031
29265WAT     H288038   8.508   1.617   3.033
29266WAT      O88039   1.739   1.538   8.911
29266WAT     H188040   1.789   1.624   8.926
29266WAT     H288041   1.802   1.461   8.919
29267WAT      O88042   3.526   4.660   0.155
29267WAT     H188043   3.611   4.709   0.138
29267WAT     H288044   3.465   4.716   0.211
29268WAT      O88045   4.495   6.119   1.171
29268WAT     H188046   4.591   6.129   1.199
29268WAT     H288047   4.467   6.024   1.181
29269WAT      O88048   5.050   1.335   4.891
29269WAT     H188049   5.064   1.429   4.924
29269WAT     H288050   5.050   1.335   4.791
29270WAT      O88051   9.654   9.334   0.177
29270WAT     H188052   9.724   9.378   0.234
29270WAT     H288053   9.699   9.271   0.113
29271WAT      O88054   9.536   2.689   0.050
29271WAT     H188055   9.484   2.606   0.075
29271WAT     H288056   9.511   2.763   0.113
29272WAT      O88057   0.697   3.463   0.798
29272WAT     H188058   0.784   3.485   0.754
29272WAT     H288059   0.654   3.385   0.752
29273WAT      O88060   0.664   6.696   2.928
29273WAT     H188061   0.656   6.608   2.881
29273WAT     H288062   0.577   6.745   2.923
29274WAT      O88063   2.754   2.064   6.653
29274WAT     H188064   2.843   2.034   6.687
29274WAT     H288065   2.682   2.004   6.689
29275WAT      O88066   1.616   9.547   7.493
29275WAT     H188067   1.600   9.465   7.548
29275WAT     H288068   1.550   9.550   7.418
29276WAT      O88069   4.090   5.622   1.240
29276WAT     H188070   4.056   5.648   1.149
29276WAT     H288071   4.018   5.639   1.308
29277WAT      O88072   5.595   1.119   7.089
29277WAT     H188073   5.512   1.065   7.078
29277WAT     H288074   5.627   1.112   7.183
29278WAT      O88075   4.193   0.804   1.041
29278WAT     H188076   4.149   0.799   1.131
29278WAT     H288077   4.247   0.721   1.026
29279WAT      O88078   5.591   2.504   0.669
29279WAT     H188079   5.668   2.466   0.721
29279WAT     H288080   5.625   2.559   0.593
29280WAT      O88081   8.223   9.204   9.121
29280WAT     H188082   8.180   9.293   9.107
29280WAT     H288083   8.243   9.162   9.032
29281WAT      O88084   8.736   4.040   2.045
29281WAT     H188085   8.779   4.060   1.956
29281WAT     H288086   8.742   4.120   2.104
29282WAT      O88087   1.294   3.027   1.648
29282WAT     H188088   1.321   2.967   1.572
29282WAT     H288089   1.337   2.994   1.733
29283WAT      O88090   7.783   6.080   9.300
29283WAT     H188091   7.813   6.087   9.205
29283WAT     H288092   7.722   6.001   9.310
29284WAT      O88093   4.811   9.636   1.894
29284WAT     H188094   4.790   9.704   1.824
29284WAT     H288095   4.879   9.673   1.957
29285WAT      O88096   0.215   9.699   9.467
29285WAT     H188097   0.240   9.609   9.430
29285WAT     H288098   0.139   9.737   9.413
29286WAT      O88099   7.155   4.268   8.592
29286WAT     H188100   7.121   4.260   8.498
29286WAT     H288101   7.120   4.351   8.634
29287WAT      O88102   6.250   4.944   3.713
29287WAT     H188103   6.291   4.936   3.804
29287WAT     H288104   6.280   4.867   3.656
29288WAT      O88105   7.651   8.017   8.994
29288WAT     H188106   7.699   7.953   8.935
29288WAT     H288107   7.701   8.029   9.079
29289WAT      O88108   3.780   5.407   9.504
29289WAT     H188109   3.685   5.376   9.504
29289WAT     H288110   3.821   5.387   9.416
29290WAT      O88111   0.659   2.896   5.102
29290WAT     H188112   0.585   2.920   5.040
29290WAT     H288113   0.734   2.961   5.092
29291WAT      O88114   4.599   4.835   2.954
29291WAT     H188115   4.564   4.765   3.016
29291WAT     H288116   4.522   4.886   2.915
29292WAT      O88117   7.535   8.228   5.010
29292WAT     H188118   7.447   8.252   4.969
29292WAT     H288119   7.546   8.277   5.097
29293WAT      O88120   8.945   4.474   1.904
29293WAT     H188121   8.942   4.377   1.928
29293WAT     H288122   8.856   4.516   1.923
29294WAT      O88123   1.018   0.016   9.124
29294WAT     H188124   0.947   0.073   9.083
29294WAT     H288125   1.007  -0.078   9.092
29295WAT      O88126   9.421   6.522   4.767
29295WAT     H188127   9.434   6.569   4.854
29295WAT     H288128   9.486   6.556   4.700
29296WAT      O88129   3.450   4.147   8.766
29296WAT     H188130   3.512   4.072   8.788
29296WAT     H288131   3.416   4.136   8.672
29297WAT      O88132   7.310   0.852   3.478
29297WAT     H188133   7.375   0.865   3.404
29297WAT     H288134   7.224   0.899   3.456
29298WAT      O88135   0.268   9.597   0.755
29298WAT     H188136   0.312   9.596   0.844
29298WAT     H288137   0.219   9.511   0.740
29299WAT      O88138   0.038   4.630   7.767
29299WAT     H188139   0.031   4.730   7.765
29299WAT     H288140   0.103   4.600   7.697
29300WAT      O88141   6.367   7.302   3.639
29300WAT     H188142   6.383   7.357   3.721
29300WAT     H288143   6.276   7.259   3.646
29301WAT      O88144   2.760   7.668   2.213
29301WAT     H188145   2.803   7.753   2.242
29301WAT     H288146   2.773   7.657   2.114
29302WAT      O88147   7.295   0.695   9.575
29302WAT     H188148   7.259   0.788   9.586
29302WAT     H288149   7.257   0.655   9.492
29303WAT      O88150   6.097   5.239   0.321
29303WAT     H188151   6.148   5.311   0.273
29303WAT     H288152   6.034   5.194   0.258
29304WAT      O88153   3.529   7.647   4.669
29304WAT     H188154   3.623   7.682   4.664
29304WAT     H288155   3.525   7.556   4.628
29305WAT      O88156   3.197   9.589   7.103
29305WAT     H188157   3.132   9.513   7.106
29305WAT     H288158   3.180   9.651   7.180
29306WAT      O88159   1.529   3.434   8.455
29306WAT     H188160   1.465   3.507   8.480
29306WAT     H288161   1.512   3.353   8.511
29307WAT      O88162   7.586   3.217   2.556
29307WAT     H188163   7.605   3.187   2.463
29307WAT     H288164   7.671   3.243   2.601
29308WAT      O88165   2.917   7.623   0.475
29308WAT     H188166   2.981   7.691   0.510
29308WAT     H288167   2.961   7.533   0.473
29309WAT      O88168   9.049   9.119   3.307
29309WAT     H188169   9.076   9.031   3.346
29309WAT     H288170   8.979   9.162   3.365
29310WAT      O88171   3.291   4.168   3.082
29310WAT     H188172   3.296   4.267   3.071
29310WAT     H288173   3.306   4.144   3.178
29311WAT      O88174   5.804   5.776   8.199
29311WAT     H188175   5.731   5.709   8.192
29311WAT     H288176   5.786   5.837   8.276
29312WAT      O88177   0.010   7.349   8.992
29312WAT     H188178   0.087   7.301   8.949
29312WAT     H288179   0.026   7.358   9.090
29313WAT      O88180   2.074   3.505   4.356
29313WAT     H188181   2.167   3.535   4.375
29313WAT     H288182   2.017   3.520   4.437
29314WAT      O88183   1.720   9.533   1.141
29314WAT     H188184   1.669   9.601   1.193
29314WAT     H288185   1.808   9.572   1.114
29315WAT      O88186   5.189   3.301   7.041
29315WAT     H188187   5.106   3.262   7.004
29315WAT     H288188   5.180   3.312   7.140
29316WAT      O88189   7.699   7.894   4.428
29316WAT     H188190   7.756   7.973   4.403
29316WAT     H288191   7.737   7.849   4.508
29317WAT      O88192   2.751   1.621   7.481
29317WAT     H188193   2.729   1.620   7.579
29317WAT     H288194   2.703   1.546   7.436
29318WAT      O88195   7.058   3.137   4.519
29318WAT     H188196   7.009   3.184   4.446
29318WAT     H288197   7.011   3.151   4.606
29319WAT      O88198   2.666   1.077   9.013
29319WAT     H188199   2.623   0.987   9.017
29319WAT     H288200   2.615   1.141   9.069
29320WAT      O88201   3.644   2.370   2.410
29320WAT     H188202   3.633   2.356   2.311
29320WAT     H288203   3.586   2.445   2.440
29321WAT      O88204   9.300   2.896   4.759
29321WAT     H188205   9.311   2.802   4.789
29321WAT     H288206   9.208   2.929   4.781
29322WAT      O88207   3.250   5.387   4.494
29322WAT     H188208   3.301   5.471   4.513
29322WAT     H288209   3.202   5.396   4.407
29323WAT      O88210   6.721   2.548   9.817
29323WAT     H188211   6.788   2.580   9.885
29323WAT     H288212   6.732   2.450   9.804
29324WAT      O88213   5.666   7.518   7.076
29324WAT     H188214   5.719   7.573   7.141
29324WAT     H288215   5.710   7.522   6.986
29325WAT      O88216   2.462   7.961   1.810
29325WAT     H188217   2.461   8.030   1.738
29325WAT     H288218   2.503   8.000   1.892
29326WAT      O88219   2.190   1.155   7.847
29326WAT     H188220   2.141   1.075   7.812
29326WAT     H288221   2.128   1.233   7.848
29327WAT      O88222   9.344   3.403   4.102
29327WAT     H188223   9.442   3.422   4.101
29327WAT     H288224   9.295   3.485   4.130
29328WAT      O88225   0.535   7.952   1.627
29328WAT     H188226   0.593   8.003   1.691
29328WAT     H288227   0.561   7.855   1.629
29329WAT      O88228   5.613   1.932   2.422
29329WAT     H188229   5.694   1.876   2.440
29329WAT     H288230   5.555   1.933   2.504
29330WAT      O88231   2.731   6.485   7.803
29330WAT     H188232   2.651   6.469   7.744
29330WAT     H288233   2.752   6.401   7.853
29331WAT      O88234   8.082   5.643   2.959
29331WAT     H188235   8.097   5.550   2.993
29331WAT     H288236   8.082   5.707   3.036
29332WAT      O88237   2.396   5.576   4.930
29332WAT     H188238   2.455   5.627   4.868
29332WAT     H288239   2.399   5.617   5.021
29333WAT      O88240   1.100   3.949   1.126
29333WAT     H188241   1.169   3.930   1.056
29333WAT     H288242   1.009   3.944   1.086
29334WAT      O88243   1.135   5.540   5.408
29334WAT     H188244   1.049   5.518   5.453
29334WAT     H288245   1.165   5.461   5.353
29335WAT      O88246   7.747   2.590   1.937
29335WAT     H188247   7.662   2.641   1.953
29335WAT     H288248   7.776   2.546   2.022
29336WAT      O88249   8.025   6.854   1.449
29336WAT     H188250   8.122   6.872   1.467
29336WAT     H288251   7.983   6.938   1.414
29337WAT      O88252   0.555   4.582   6.557
29337WAT     H188253   0.613   4.617   6.631
29337WAT     H288254   0.501   4.505   6.591
29338WAT      O88255   5.120   7.073   8.390
29338WAT     H188256   5.105   7.098   8.294
29338WAT     H288257   5.119   7.155   8.447
29339WAT      O88258   6.843   7.785   9.465
29339WAT     H188259   6.823   7.777   9.563
29339WAT     H288260   6.886   7.874   9.447
29340WAT      O88261   8.623   9.825   4.121
29340WAT     H188262   8.690   9.759   4.155
29340WAT     H288263   8.656   9.918   4.142
29341WAT      O88264   1.512   6.089   3.083
29341WAT     H188265   1.442   6.149   3.043
29341WAT     H288266   1.470   6.002   3.109
29342WAT      O88267   6.495   9.079   1.694
29342WAT     H188268   6.407   9.046   1.729
29342WAT     H288269   6.556   9.098   1.771
29343WAT      O88270   7.613   6.303   9.303
29343WAT     H188271   7.660   6.364   9.367
29343WAT     H288272   7.667   6.220   9.290
29344WAT      O88273   1.964   7.230   0.652
29344WAT     H188274   1.876   7.189   0.677
29344WAT     H288275   2.014   7.166   0.593
29345WAT      O88276   7.042   5.269   3.486
29345WAT     H188277   7.095   5.191   3.453
29345WAT     H288278   7.032   5.336   3.413
29346WAT      O88279   9.171   2.377   0.596
29346WAT     H188280   9.199   2.343   0.685
29346WAT     H288281   9.207   2.470   0.583
29347WAT      O88282   8.988   9.526   3.731
29347WAT     H188283   9.006   9.536   3.633
29347WAT     H288284   8.964   9.616   3.769
29348WAT      O88285   0.203   4.105   0.791
29348WAT     H188286   0.127   4.040   0.792
29348WAT     H288287   0.264   4.084   0.715
29349WAT      O88288   0.110   9.342   4.254
29349WAT     H188289   0.041   9.339   4.326
29349WAT     H288290   0.123   9.436   4.224
29350WAT      O88291   3.728   4.503   4.968
29350WAT     H188292   3.707   4.418   5.016
29350WAT     H288293   3.801   4.487   4.902
29351WAT      O88294   8.414   8.713   9.875
29351WAT     H188295   8.375   8.801   9.903
29351WAT     H288296   8.457   8.669   9.955
29352WAT      O88297   0.471   5.008   6.097
29352WAT     H188298   0.526   5.059   6.030
29352WAT     H288299   0.464   4.912   6.069
29353WAT      O88300   9.278   2.318   0.823
29353WAT     H188301   9.258   2.249   0.892
29353WAT     H288302   9.297   2.406   0.867
29354WAT      O88303   3.228   6.396   5.387
29354WAT     H188304   3.152   6.331   5.383
29354WAT     H288305   3.297   6.371   5.319
29355WAT      O88306   8.465   1.535   1.056
29355WAT     H188307   8.411   1.538   0.972
29355WAT     H288308   8.430   1.603   1.120
29356WAT      O88309   4.971   7.522   3.421
29356WAT     H188310   5.022   7.458   3.477
29356WAT     H288311   4.965   7.487   3.327
29357WAT      O88312   7.522   9.368   1.436
29357WAT     H188313   7.476   9.450   1.402
29357WAT     H288314   7.607   9.393   1.482
29358WAT      O88315   2.640   9.798   7.620
29358WAT     H188316   2.598   9.806   7.529
29358WAT     H288317   2.734   9.831   7.616
29359WAT      O88318   6.136   2.079   5.399
29359WAT     H188319   6.067   2.016   5.363
29359WAT     H288320   6.177   2.040   5.481
29360WAT      O88321   2.640   7.840   0.119
29360WAT     H188322   2.614   7.870   0.211
29360WAT     H288323   2.557   7.827   0.064
29361WAT      O88324   5.181   2.689   8.294
29361WAT     H188325   5.265   2.742   8.299
29361WAT     H288326   5.180   2.637   8.208
29362WAT      O88327   4.076   5.399   8.630
29362WAT     H188328   3.993   5.403   8.686
29362WAT     H288329   4.134   5.324   8.661
29363WAT      O88330   1.403   3.386   7.434
29363WAT     H188331   1.462   3.368   7.513
29363WAT     H288332   1.310   3.356   7.455
29364WAT      O88333   1.232   9.808   4.775
29364WAT     H188334   1.271   9.882   4.721
29364WAT     H288335   1.174   9.846   4.847
29365WAT      O88336   5.636   2.982   0.432
29365WAT     H188337   5.564   2.995   0.363
29365WAT     H288338   5.668   3.072   0.463
29366WAT      O88339   2.563   8.869   4.055
29366WAT     H188340   2.662   8.871   4.067
29366WAT     H288341   2.534   8.947   4.000
29367WAT      O88342   2.911   8.826   8.304
29367WAT     H188343   2.902   8.736   8.347
29367WAT     H288344   2.893   8.819   8.206
29368WAT      O88345   8.163   6.179   3.929
29368WAT     H188346   8.181   6.277   3.931
29368WAT     H288347   8.117   6.155   3.843
29369WAT      O88348   2.844   2.363   2.685
29369WAT     H188349   2.941   2.340   2.683
29369WAT     H288350   2.830   2.444   2.743
29370WAT      O88351   0.033   9.137   4.074
29370WAT     H188352   0.058   9.205   4.144
29370WAT     H288353  -0.058   9.159   4.037
29371WAT      O88354   9.102   1.603   9.745
29371WAT     H188355   9.006   1.586   9.770
29371WAT     H288356   9.134   1.686   9.791
29372WAT      O88357   3.238   9.357   5.886
29372WAT     H188358   3.241   9.442   5.834
29372WAT     H288359   3.159   9.303   5.857
29373WAT      O88360   8.240   6.927   6.281
29373WAT     H188361   8.157   6.958   6.327
29373WAT     H288362   8.320   6.961   6.330
29374WAT      O88363   9.000   8.351   7.780
29374WAT     H188364   9.013   8.408   7.861
29374WAT     H288365   8.936   8.278   7.801
29375WAT      O88366   8.474   7.506   6.715
29375WAT     H188367   8.377   7.511   6.736
29375WAT     H288368   8.516   7.433   6.769
29376WAT      O88369   7.479   5.845   0.393
29376WAT     H188370   7.546   5.900   0.344
29376WAT     H288371   7.439   5.778   0.331
29377WAT      O88372   9.120   1.525   9.470
29377WAT     H188373   9.124   1.567   9.561
29377WAT     H288374   9.214   1.512   9.436
29378WAT      O88375   8.822   4.228   2.239
29378WAT     H188376   8.769   4.192   2.315
29378WAT     H288377   8.869   4.312   2.267
29379WAT      O88378   1.721   3.443   6.629
29379WAT     H188379   1.659   3.393   6.569
29379WAT     H288380   1.814   3.410   6.616
29380WAT      O88381   4.486   0.222   5.725
29380WAT     H188382   4.453   0.179   5.641
29380WAT     H288383   4.508   0.318   5.707
29381WAT      O88384   2.174   4.176   4.774
29381WAT     H188385   2.105   4.225   4.828
29381WAT     H288386   2.197   4.091   4.820
29382WAT      O88387   1.783   0.981   3.406
29382WAT     H188388   1.855   1.027   3.458
29382WAT     H288389   1.814   0.890   3.379
29383WAT      O88390   7.159   9.036   7.223
29383WAT     H188391   7.180   9.057   7.318
29383WAT     H288392   7.244   9.035   7.170
29384WAT      O88393   3.278   0.304   8.123
29384WAT     H188394   3.288   0.352   8.036
29384WAT     H288395   3.294   0.206   8.109
29385WAT      O88396   2.859   1.669   9.543
29385WAT     H188397   2.938   1.614   9.569
29385WAT     H288398   2.811   1.626   9.468
29386WAT      O88399   5.555   6.686   2.088
29386WAT     H188400   5.585   6.646   2.001
29386WAT     H288401   5.615   6.763   2.110
29387WAT      O88402   6.719   7.554   3.607
29387WAT     H188403   6.799   7.539   3.666
29387WAT     H288404   6.746   7.613   3.531
29388WAT      O88405   6.069   6.874   4.727
29388WAT     H188406   6.109   6.966   4.724
29388WAT     H288407   6.085   6.834   4.817
29389WAT      O88408   5.424   0.781   8.300
29389WAT     H188409   5.494   0.711   8.288
29389WAT     H288410   5.358   0.751   8.369
29390WAT      O88411   0.100   8.679   9.763
29390WAT     H188412   0.188   8.703   9.803
29390WAT     H288413   0.051   8.762   9.737
29391WAT      O88414   7.748   8.519   3.193
29391WAT     H188415   7.829   8.474   3.229
29391WAT     H288416   7.688   8.452   3.151
29392WAT      O88417   6.053   3.503   2.601
29392WAT     H188418   5.996   3.585   2.598
29392WAT     H288419   6.010   3.435   2.661
29393WAT      O88420   0.984   7.393   6.762
29393WAT     H188421   1.061   7.331   6.752
29393WAT     H288422   0.933   7.398   6.676
29394WAT      O88423   3.848   5.856   7.860
29394WAT     H188424   3.767   5.801   7.837
29394WAT     H288425   3.836   5.948   7.823
29395WAT      O88426   7.788   0.814   1.098
29395WAT     H188427   7.754   0.749   1.167
29395WAT     H288428   7.797   0.905   1.139
29396WAT      O88429   8.829   6.150   4.468
29396WAT     H188430   8.923   6.115   4.471
29396WAT     H288431   8.765   6.074   4.476
29397WAT      O88432   4.490   3.916   2.763
29397WAT     H188433   4.410   3.878   2.715
29397WAT     H288434   4.518   3.854   2.836
29398WAT      O88435   7.792   3.310   0.893
29398WAT     H188436   7.701   3.326   0.931
29398WAT     H288437   7.805   3.212   0.876
29399WAT      O88438   5.532   1.671   3.688
29399WAT     H188439   5.447   1.697   3.735
29399WAT     H288440   5.545   1.730   3.608
29400WAT      O88441   8.013   8.807   8.286
29400WAT     H188442   7.914   8.800   8.301
29400WAT     H288443   8.057   8.722   8.313
29401WAT      O88444   4.088   4.442   2.743
29401WAT     H188445   4.018   4.498   2.789
29401WAT     H288446   4.178   4.464   2.781
29402WAT      O88447   0.020   3.920   7.526
29402WAT     H188448  -0.034   3.858   7.469
29402WAT     H288449  -0.025   3.932   7.614
29403WAT      O88450   1.764   7.937   0.315
29403WAT     H188451   1.675   7.907   0.348
29403WAT     H288452   1.836   7.907   0.378
29404WAT      O88453   8.956   8.746   8.243
29404WAT     H188454   8.875   8.803   8.254
29404WAT     H288455   9.026   8.797   8.193
29405WAT      O88456   0.731   0.307   7.178
29405WAT     H188457   0.762   0.352   7.094
29405WAT     H288458   0.810   0.268   7.226
29406WAT      O88459   8.639   3.674   2.908
29406WAT     H188460   8.582   3.751   2.879
29406WAT     H288461   8.605   3.638   2.995
29407WAT      O88462   5.359   0.632   0.961
29407WAT     H188463   5.393   0.689   1.036
29407WAT     H288464   5.346   0.689   0.879
29408WAT      O88465   9.869   5.037   3.834
29408WAT     H188466   9.847   4.982   3.753
29408WAT     H288467   9.935   5.108   3.809
29409WAT      O88468   5.199   9.315   5.086
29409WAT     H188469   5.228   9.394   5.141
29409WAT     H288470   5.275   9.283   5.030
29410WAT      O88471   3.170   6.207   9.388
29410WAT     H188472   3.218   6.220   9.475
29410WAT     H288473   3.072   6.221   9.401
29411WAT      O88474   8.911   3.372   0.110
29411WAT     H188475   8.897   3.274   0.097
29411WAT     H288476   8.879   3.421   0.029
29412WAT      O88477   0.153   1.206   1.923
29412WAT     H188478   0.154   1.255   2.010
29412WAT     H288479   0.141   1.108   1.939
29413WAT      O88480   1.514   0.373   2.275
29413WAT     H188481   1.593   0.416   2.231
29413WAT     H288482   1.533   0.361   2.373
29414WAT      O88483   7.981   7.068   7.471
29414WAT     H188484   7.905   7.117   7.513
29414WAT     H288485   8.055   7.131   7.452
29415WAT      O88486   0.569   7.982   9.158
29415WAT     H188487   0.654   7.970   9.209
29415WAT     H288488   0.572   8.070   9.111
29416WAT      O88489   6.140   7.395   3.004
29416WAT     H188490   6.223   7.387   3.059
29416WAT     H288491   6.160   7.365   2.911
29417WAT      O88492   9.089   4.240   6.500
29417WAT     H188493   9.013   4.224   6.562
29417WAT     H288494   9.137   4.324   6.527
29418WAT      O88495   2.427   7.671   8.692
29418WAT     H188496   2.406   7.764   8.721
29418WAT     H288497   2.463   7.674   8.598
29419WAT      O88498   6.012   6.268   8.494
29419WAT     H188499   5.944   6.262   8.420
29419WAT     H288500   6.103   6.249   8.457
29420WAT      O88501   8.789   0.235   6.180
29420WAT     H188502   8.745   0.254   6.092
29420WAT     H288503   8.888   0.238   6.169
29421WAT      O88504   1.043   7.870   5.654
29421WAT     H188505   1.101   7.850   5.575
29421WAT     H288506   0.955   7.823   5.644
29422WAT      O88507   7.104   8.565   7.826
29422WAT     H188508   7.189   8.512   7.820
29422WAT     H288509   7.080   8.599   7.735
29423WAT      O88510   6.666   3.038   7.358
29423WAT     H188511   6.653   2.962   7.421
29423WAT     H288512   6.686   3.121   7.410
29424WAT      O88513   2.840   2.174   1.132
29424WAT     H188514   2.774   2.184   1.057
29424WAT     H288515   2.911   2.244   1.123
29425WAT      O88516   1.949   8.989   5.277
29425WAT     H188517   2.031   9.001   5.221
29425WAT     H288518   1.931   8.891   5.288
29426WAT      O88519   0.669   8.868   3.981
29426WAT     H188520   0.696   8.894   4.073
29426WAT     H288521   0.655   8.951   3.926
29427WAT      O88522   6.100   7.319   1.698
29427WAT     H188523   6.007   7.293   1.723
29427WAT     H288524   6.151   7.238   1.668
29428WAT      O88525   9.378   9.197   1.742
29428WAT     H188526   9.445   9.139   1.696
29428WAT     H288527   9.332   9.145   1.814
29429WAT      O88528   4.037   5.159   6.563
29429WAT     H188529   3.945   5.146   6.528
29429WAT     H288530   4.069   5.251   6.539
29430WAT      O88531   7.208   3.659   6.612
29430WAT     H188532   7.258   3.746   6.619
29430WAT     H288533   7.145   3.663   6.535
29431WAT      O88534   7.801   0.672   5.044
29431WAT     H188535   7.898   0.652   5.035
29431WAT     H288536   7.767   0.634   5.131
29432WAT      O88537   4.071   8.160   0.553
29432WAT     H188538   3.978   8.150   0.588
29432WAT     H288539   4.116   8.071   0.551
29433WAT      O88540   3.662   3.482   8.603
29433WAT     H188541   3.591   3.416   8.628
29433WAT     H288542   3.739   3.433   8.562
29434WAT      O88543   6.991   4.287   7.752
29434WAT     H188544   6.941   4.335   7.680
29434WAT     H288545   6.936   4.286   7.835
29435WAT      O88546   6.470   7.653   3.711
29435WAT     H188547   6.404   7.669   3.639
29435WAT     H288548   6.554   7.614   3.672
29436WAT      O88549   7.297   1.557   8.100
29436WAT     H188550   7.239   1.637   8.116
29436WAT     H288551   7.393   1.583   8.115
29437WAT      O88552   2.081   6.162   7.864
29437WAT     H188553   2.110   6.226   7.793
29437WAT     H288554   2.139   6.174   7.945
29438WAT      O88555   0.173   7.849   8.934
29438WAT     H188556   0.243   7.860   8.864
29438WAT     H288557   0.098   7.793   8.898
29439WAT      O88558   9.443   2.508   4.609
29439WAT     H188559   9.389   2.570   4.553
29439WAT     H288560   9.540   2.529   4.599
29440WAT      O88561   6.386   6.120   7.843
29440WAT     H188562   6.468   6.070   7.816
29440WAT     H288563   6.371   6.196   7.780
29441WAT      O88564   8.614   3.275   2.611
29441WAT     H188565   8.645   3.231   2.695
29441WAT     H288566   8.678   3.256   2.537
29442WAT      O88567   1.567   4.856   2.297
29442WAT     H188568   1.621   4.790   2.245
29442WAT     H288569   1.501   4.901   2.237
29443WAT      O88570   3.109   0.454   9.091
29443WAT     H188571   3.148   0.544   9.109
29443WAT     H288572   3.063   0.455   9.002
29444WAT      O88573   0.279   5.532   5.284
29444WAT     H188574   0.265   5.573   5.374
29444WAT     H288575   0.282   5.433   5.292
29445WAT      O88576   9.093   0.326   0.127
29445WAT     H188577   9.155   0.382   0.071
29445WAT     H288578   9.107   0.347   0.223
29446WAT      O88579   5.343   4.241   0.379
29446WAT     H188580   5.325   4.263   0.284
29446WAT     H288581   5.375   4.323   0.427
29447WAT      O88582   2.818   2.247   8.721
29447WAT     H188583   2.752   2.242   8.646
29447WAT     H288584   2.835   2.156   8.757
29448WAT      O88585   1.335   1.647   8.313
29448WAT     H188586   1.243   1.678   8.291
29448WAT     H288587   1.392   1.726   8.335
29449WAT      O88588   1.418   1.516   2.240
29449WAT     H188589   1.409   1.611   2.212
29449WAT     H288590   1.422   1.510   2.339
29450WAT      O88591   8.128   6.233   3.064
29450WAT     H188592   8.150   6.330   3.060
29450WAT     H288593   8.044   6.220   3.116
29451WAT      O88594   6.468   4.290   8.216
29451WAT     H188595   6.486   4.230   8.137
29451WAT     H288596   6.388   4.346   8.197
29452WAT      O88597   5.593   2.784   7.731
29452WAT     H188598   5.665   2.757   7.795
29452WAT     H288599   5.554   2.703   7.688
29453WAT      O88600   6.896   1.758   6.744
29453WAT     H188601   6.835   1.679   6.738
29453WAT     H288602   6.906   1.799   6.653
29454WAT      O88603   4.588   0.652   4.501
29454WAT     H188604   4.498   0.614   4.522
29454WAT     H288605   4.636   0.672   4.587
29455WAT      O88606   5.512   6.310   4.188
29455WAT     H188607   5.444   6.286   4.119
29455WAT     H288608   5.478   6.384   4.245
29456WAT      O88609   1.499   3.757   7.780
29456WAT     H188610   1.424   3.731   7.840
29456WAT     H288611   1.585   3.759   7.832
29457WAT      O88612   8.704   7.691   3.465
29457WAT     H188613   8.744   7.629   3.532
29457WAT     H288614   8.662   7.639   3.391
29458WAT      O88615   3.221   1.301   5.306
29458WAT     H188616   3.161   1.308   5.227
29458WAT     H288617   3.254   1.206   5.315
29459WAT      O88618   3.274   8.729   9.116
29459WAT     H188619   3.264   8.659   9.186
29459WAT     H288620   3.371   8.744   9.097
29460WAT      O88621   9.480   9.727   0.683
29460WAT     H188622   9.503   9.818   0.649
29460WAT     H288623   9.381   9.721   0.698
29461WAT      O88624   6.658   4.099   2.068
29461WAT     H188625   6.684   4.184   2.023
29461WAT     H288626   6.656   4.113   2.167
29462WAT      O88627   7.625   4.143   1.375
29462WAT     H188628   7.586   4.057   1.407
29462WAT     H288629   7.723   4.133   1.363
29463WAT      O88630   7.860   7.273   3.117
29463WAT     H188631   7.818   7.278   3.026
29463WAT     H288632   7.796   7.309   3.185
29464WAT      O88633   6.531   3.496   5.853
29464WAT     H188634   6.533   3.478   5.754
29464WAT     H288635   6.535   3.594   5.869
29465WAT      O88636   3.491   6.665   5.593
29465WAT     H188637   3.426   6.740   5.586
29465WAT     H288638   3.443   6.582   5.620
29466WAT      O88639   6.591   8.472   4.736
29466WAT     H188640   6.551   8.549   4.685
29466WAT     H288641   6.575   8.387   4.685
29467WAT      O88642   6.108   6.137   8.895
29467WAT     H188643   6.125   6.219   8.840
29467WAT     H288644   6.159   6.060   8.857
29468WAT      O88645   7.788   4.705   5.659
29468WAT     H188646   7.859   4.634   5.658
29468WAT     H288647   7.832   4.795   5.659
29469WAT      O88648   5.114   7.874   4.429
29469WAT     H188649   5.153   7.957   4.389
29469WAT     H288650   5.047   7.835   4.366
29470WAT      O88651   4.523   4.616   0.494
29470WAT     H188652   4.596   4.605   0.562
29470WAT     H288653   4.485   4.709   0.501
29471WAT      O88654   9.562   3.495   8.127
29471WAT     H188655   9.633   3.425   8.134
29471WAT     H288656   9.497   3.484   8.203
29472WAT      O88657   0.294   6.322   8.616
29472WAT     H188658   0.344   6.347   8.699
29472WAT     H288659   0.300   6.396   8.550
29473WAT      O88660   7.683   6.922   5.665
29473WAT     H188661   7.695   7.017   5.692
29473WAT     H288662   7.670   6.865   5.746
29474WAT      O88663   3.632   5.350   9.054
29474WAT     H188664   3.650   5.417   8.982
29474WAT     H288665   3.609   5.398   9.139
29475WAT      O88666   3.368   0.895   8.777
29475WAT     H188667   3.308   0.821   8.807
29475WAT     H288668   3.452   0.895   8.833
29476WAT      O88669   8.689   5.168   3.583
29476WAT     H188670   8.684   5.253   3.530
29476WAT     H288671   8.748   5.182   3.662
29477WAT      O88672   2.365   1.381   5.565
29477WAT     H188673   2.315   1.332   5.494
29477WAT     H288674   2.318   1.371   5.652
29478WAT      O88675   6.169   0.884   6.111
29478WAT     H188676   6.177   0.791   6.148
29478WAT     H288677   6.251   0.906   6.058
29479WAT      O88678   0.036   1.945   0.631
29479WAT     H188679  -0.038   1.996   0.587
29479WAT     H288680   0.102   2.009   0.672
29480WAT      O88681   7.799   8.299   5.349
29480WAT     H188682   7.718   8.298   5.291
29480WAT     H288683   7.792   8.372   5.417
29481WAT      O88684   4.417   9.059   0.633
29481WAT     H188685   4.390   9.155   0.630
29481WAT     H288686   4.512   9.050   0.602
29482WAT      O88687   9.817   9.324   2.582
29482WAT     H188688   9.724   9.330   2.545
29482WAT     H288689   9.855   9.234   2.563
29483WAT      O88690   8.373   2.970   9.193
29483WAT     H188691   8.320   2.892   9.227
29483WAT     H288692   8.448   2.990   9.256
29484WAT      O88693   6.377   0.776   6.923
29484WAT     H188694   6.387   0.828   6.838
29484WAT     H288695   6.464   0.733   6.946
29485WAT      O88696   2.750   2.203   0.846
29485WAT     H188697   2.792   2.189   0.757
29485WAT     H288698   2.670   2.143   0.855
29486WAT      O88699   5.825   2.415   9.448
29486WAT     H188700   5.837   2.382   9.355
29486WAT     H288701   5.797   2.340   9.507
29487WAT      O88702   8.822   8.767   6.807
29487WAT     H188703   8.851   8.675   6.783
29487WAT     H288704   8.770   8.807   6.732
29488WAT      O88705   8.606   7.445   6.401
29488WAT     H188706   8.597   7.364   6.458
29488WAT     H288707   8.534   7.446   6.331
29489WAT      O88708   7.507   8.720   9.078
29489WAT     H188709   7.430   8.658   9.072
29489WAT     H288710   7.592   8.671   9.055
29490WAT      O88711   7.277   3.242   9.077
29490WAT     H188712   7.240   3.287   9.158
29490WAT     H288713   7.367   3.205   9.098
29491WAT      O88714   6.143   7.859   9.806
29491WAT     H188715   6.193   7.896   9.884
29491WAT     H288716   6.198   7.870   9.723
29492WAT      O88717   9.280   1.174   5.790
29492WAT     H188718   9.208   1.148   5.726
29492WAT     H288719   9.262   1.131   5.879
29493WAT      O88720   4.560   5.523   7.617
29493WAT     H188721   4.563   5.424   7.603
29493WAT     H288722   4.606   5.569   7.540
29494WAT      O88723   0.028   3.242   5.917
29494WAT     H188724  -0.032   3.274   5.990
29494WAT     H288725   0.100   3.184   5.955
29495WAT      O88726   7.801   5.107   1.188
29495WAT     H188727   7.785   5.051   1.107
29495WAT     H288728   7.808   5.203   1.162
29496WAT      O88729   1.998   4.095   7.431
29496WAT     H188730   2.075   4.126   7.375
29496WAT     H288731   2.032   4.043   7.509
29497WAT      O88732   0.900   0.228   8.372
29497WAT     H188733   0.852   0.212   8.458
29497WAT     H288734   0.979   0.287   8.388
29498WAT      O88735   4.879   0.613   4.149
29498WAT     H188736   4.935   0.590   4.228
29498WAT     H288737   4.819   0.537   4.127
29499WAT      O88738   7.312   6.527   6.908
29499WAT     H188739   7.323   6.617   6.864
29499WAT     H288740   7.402   6.489   6.927
29500WAT      O88741   1.373   3.657   0.630
29500WAT     H188742   1.402   3.596   0.557
29500WAT     H288743   1.309   3.609   0.691
29501WAT      O88744   0.614   3.600   9.736
29501WAT     H188745   0.583   3.662   9.665
29501WAT     H288746   0.575   3.627   9.824
29502WAT      O88747   6.284   5.445   5.079
29502WAT     H188748   6.310   5.421   5.172
29502WAT     H288749   6.220   5.522   5.081
29503WAT      O88750   2.870   5.673   2.533
29503WAT     H188751   2.895   5.731   2.455
29503WAT     H288752   2.813   5.725   2.596
29504WAT      O88753   1.512   4.607   8.002
29504WAT     H188754   1.465   4.526   7.966
29504WAT     H288755   1.464   4.689   7.969
29505WAT      O88756   1.310   9.519   2.417
29505WAT     H188757   1.214   9.498   2.396
29505WAT     H288758   1.369   9.477   2.347
29506WAT      O88759   7.830   2.543   3.525
29506WAT     H188760   7.786   2.553   3.614
29506WAT     H288761   7.887   2.460   3.525
29507WAT      O88762   8.037   2.635   8.460
29507WAT     H188763   7.977   2.560   8.431
29507WAT     H288764   8.126   2.625   8.416
29508WAT      O88765   8.064   8.212   5.314
29508WAT     H188766   7.969   8.242   5.307
29508WAT     H288767   8.125   8.286   5.286
29509WAT      O88768   0.326   6.878   1.191
29509WAT     H188769   0.345   6.951   1.125
29509WAT     H288770   0.401   6.874   1.258
29510WAT      O88771   5.717   4.674   5.346
29510WAT     H188772   5.681   4.639   5.260
29510WAT     H288773   5.641   4.703   5.404
29511WAT      O88774   4.031   7.080   4.800
29511WAT     H188775   4.088   7.006   4.835
29511WAT     H288776   4.070   7.168   4.828
29512WAT      O88777   9.775   2.364   3.740
29512WAT     H188778   9.861   2.364   3.791
29512WAT     H288779   9.792   2.385   3.644
29513WAT      O88780   1.469   2.005   1.056
29513WAT     H188781   1.397   1.945   1.020
29513WAT     H288782   1.547   2.006   0.994
29514WAT      O88783   4.653   9.029   9.765
29514WAT     H188784   4.697   8.952   9.809
29514WAT     H288785   4.715   9.107   9.763
29515WAT      O88786   8.343   0.283   7.805
29515WAT     H188787   8.356   0.192   7.845
29515WAT     H288788   8.371   0.282   7.709
29516WAT      O88789   8.429   7.525   7.844
29516WAT     H188790   8.380   7.565   7.922
29516WAT     H288791   8.387   7.557   7.759
29517WAT      O88792   6.088   7.681   8.468
29517WAT     H188793   6.157   7.753   8.457
29517WAT     H288794   6.008   7.719   8.516
29518WAT      O88795   8.353   6.250   8.174
29518WAT     H188796   8.383   6.158   8.150
29518WAT     H288797   8.254   6.257   8.163
29519WAT      O88798   0.329   1.051   1.623
29519WAT     H188799   0.234   1.083   1.616
29519WAT     H288800   0.336   0.959   1.584
29520WAT      O88801   8.659   1.296   4.185
29520WAT     H188802   8.631   1.201   4.198
29520WAT     H288803   8.757   1.300   4.164
29521WAT      O88804   2.722   6.523   2.965
29521WAT     H188805   2.784   6.481   3.031
29521WAT     H288806   2.760   6.513   2.873
29522WAT      O88807   6.713   3.841   6.041
29522WAT     H188808   6.757   3.927   6.014
29522WAT     H288809   6.723   3.828   6.139
29523WAT      O88810   9.255   1.002   0.539
29523WAT     H188811   9.220   1.085   0.497
29523WAT     H288812   9.234   0.923   0.480
29524WAT      O88813   3.206   9.413   5.320
29524WAT     H188814   3.181   9.458   5.405
29524WAT     H288815   3.167   9.463   5.243
29525WAT      O88816   4.397   8.084   2.717
29525WAT     H188817   4.348   8.142   2.783
29525WAT     H288818   4.336   8.014   2.682
29526WAT      O88819   5.676   2.750   8.354
29526WAT     H188820   5.624   2.696   8.420
29526WAT     H288821   5.613   2.803   8.297
29527WAT      O88822   9.488   4.454   0.703
29527WAT     H188823   9.513   4.456   0.606
29527WAT     H288824   9.562   4.413   0.756
29528WAT      O88825   8.413   0.115   3.790
29528WAT     H188826   8.448   0.028   3.823
29528WAT     H288827   8.480   0.187   3.807
29529WAT      O88828   0.151   8.688   2.505
29529WAT     H188829   0.076   8.745   2.538
29529WAT     H288830   0.113   8.610   2.455
29530WAT      O88831   9.424   5.836   4.567
29530WAT     H188832   9.439   5.737   4.567
29530WAT     H288833   9.406   5.867   4.661
29531WAT      O88834   4.189   2.304   7.228
29531WAT     H188835   4.107   2.247   7.232
29531WAT     H288836   4.269   2.247   7.212
29532WAT      O88837   6.673   6.337   3.793
29532WAT     H188838   6.703   6.261   3.734
29532WAT     H288839   6.652   6.301   3.884
29533WAT      O88840   5.088   9.614   4.564
29533WAT     H188841   4.994   9.646   4.557
29533WAT     H288842   5.148   9.690   4.590
29534WAT      O88843   4.768   4.581   8.984
29534WAT     H188844   4.843   4.644   9.004
29534WAT     H288845   4.747   4.584   8.886
29535WAT      O88846   5.933   7.173   5.101
29535WAT     H188847   5.887   7.218   5.178
29535WAT     H288848   6.028   7.152   5.128
29536WAT      O88849   4.971   8.931   2.504
29536WAT     H188850   4.984   8.842   2.547
29536WAT     H288851   5.051   8.988   2.522
29537WAT      O88852   3.789   3.927   0.384
29537WAT     H188853   3.763   4.022   0.398
29537WAT     H288854   3.838   3.894   0.465
29538WAT      O88855   1.614   1.602   8.263
29538WAT     H188856   1.628   1.544   8.344
29538WAT     H288857   1.540   1.564   8.207
29539WAT      O88858   0.186   8.674   3.220
29539WAT     H188859   0.284   8.694   3.217
29539WAT     H288860   0.137   8.744   3.168
29540WAT      O88861   9.395   4.063   1.738
29540WAT     H188862   9.477   4.009   1.720
29540WAT     H288863   9.390   4.084   1.835
29541WAT      O88864   0.947   9.536   2.767
29541WAT     H188865   0.922   9.552   2.672
29541WAT     H288866   0.923   9.443   2.793
29542WAT      O88867   6.867   8.915   8.805
29542WAT     H188868   6.902   8.844   8.864
29542WAT     H288869   6.939   8.945   8.742
29543WAT      O88870   2.317   9.542   7.593
29543WAT     H188871   2.237   9.516   7.539
29543WAT     H288872   2.303   9.516   7.688
29544WAT      O88873   6.454   2.146   6.727
29544WAT     H188874   6.505   2.194   6.656
29544WAT     H288875   6.459   2.047   6.711
29545WAT      O88876   3.408   2.044   5.412
29545WAT     H188877   3.362   1.983   5.478
29545WAT     H288878   3.465   1.989   5.351
29546WAT      O88879   2.065   2.798   6.699
29546WAT     H188880   2.154   2.834   6.668
29546WAT     H288881   2.050   2.708   6.658
29547WAT      O88882   7.023   7.207   6.850
29547WAT     H188883   7.063   7.124   6.890
29547WAT     H288884   7.003   7.272   6.923
29548WAT      O88885   1.955   1.493   5.053
29548WAT     H188886   2.030   1.483   5.118
29548WAT     H288887   1.895   1.567   5.083
29549WAT      O88888   1.850   3.930   6.727
29549WAT     H188889   1.875   3.841   6.766
29549WAT     H288890   1.884   4.003   6.786
29550WAT      O88891   6.385   3.885   6.712
29550WAT     H188892   6.387   3.854   6.806
29550WAT     H288893   6.315   3.956   6.701
29551WAT      O88894   9.689   6.904   6.036
29551WAT     H188895   9.712   6.821   6.086
29551WAT     H288896   9.590   6.916   6.035
29552WAT      O88897   6.450   5.123   7.790
29552WAT     H188898   6.535   5.099   7.741
29552WAT     H288899   6.390   5.174   7.729
29553WAT      O88900   8.119   3.384   4.087
29553WAT     H188901   8.189   3.354   4.152
29553WAT     H288902   8.109   3.483   4.092
29554WAT      O88903   7.741   2.918   5.561
29554WAT     H188904   7.683   2.996   5.536
29554WAT     H288905   7.823   2.920   5.504
29555WAT      O88906   8.942   8.003   2.917
29555WAT     H188907   8.882   8.039   2.989
29555WAT     H288908   9.029   7.975   2.958
29556WAT      O88909   6.898   2.286   5.411
29556WAT     H188910   6.847   2.252   5.333
29556WAT     H288911   6.995   2.293   5.387
29557WAT      O88912   0.730   5.808   9.676
29557WAT     H188913   0.804   5.863   9.716
29557WAT     H288914   0.676   5.767   9.750
29558WAT      O88915   9.327   7.128   9.661
29558WAT     H188916   9.343   7.221   9.628
29558WAT     H288917   9.410   7.093   9.704
29559WAT      O88918   7.514   1.806   0.900
29559WAT     H188919   7.531   1.899   0.869
29559WAT     H288920   7.448   1.807   0.975
29560WAT      O88921   3.013   5.272   0.706
29560WAT     H188922   3.035   5.310   0.796
29560WAT     H288923   2.960   5.188   0.717
29561WAT      O88924   9.103   1.687   2.223
29561WAT     H188925   9.011   1.656   2.198
29561WAT     H288926   9.171   1.623   2.187
29562WAT      O88927   3.077   3.124   0.427
29562WAT     H188928   3.082   3.040   0.479
29562WAT     H288929   3.118   3.199   0.479
29563WAT      O88930   3.173   3.569   1.812
29563WAT     H188931   3.250   3.627   1.840
29563WAT     H288932   3.205   3.476   1.797
29564WAT      O88933   2.326   7.302   4.237
29564WAT     H188934   2.270   7.370   4.190
29564WAT     H288935   2.398   7.270   4.175
29565WAT      O88936   6.533   6.317   6.800
29565WAT     H188937   6.508   6.390   6.864
29565WAT     H288938   6.622   6.280   6.826
29566WAT      O88939   2.836   9.448   6.730
29566WAT     H188940   2.882   9.399   6.805
29566WAT     H288941   2.739   9.425   6.730
29567WAT      O88942   1.769   8.190   0.173
29567WAT     H188943   1.863   8.182   0.138
29567WAT     H288944   1.746   8.107   0.223
29568WAT      O88945   7.182   7.372   9.054
29568WAT     H188946   7.238   7.290   9.067
29568WAT     H288947   7.229   7.452   9.092
29569WAT      O88948   3.515   4.711   9.608
29569WAT     H188949   3.576   4.728   9.686
29569WAT     H288950   3.570   4.685   9.528
29570WAT      O88951   4.967   9.744   6.966
29570WAT     H188952   5.008   9.653   6.965
29570WAT     H288953   5.037   9.812   6.988
29571WAT      O88954   0.196   7.904   6.080
29571WAT     H188955   0.142   7.825   6.109
29571WAT     H288956   0.151   7.948   6.002
29572WAT      O88957   4.939   4.816   4.137
29572WAT     H188958   5.030   4.847   4.111
29572WAT     H288959   4.897   4.883   4.199
29573WAT      O88960   9.275   9.596   8.813
29573WAT     H188961   9.206   9.583   8.884
29573WAT     H288962   9.280   9.693   8.789
29574WAT      O88963   9.702   1.992   5.823
29574WAT     H188964   9.667   1.951   5.739
29574WAT     H288965   9.680   2.089   5.825
29575WAT      O88966   1.313   4.569   0.903
29575WAT     H188967   1.235   4.617   0.943
29575WAT     H288968   1.369   4.634   0.851
29576WAT      O88969   2.831   9.236   7.730
29576WAT     H188970   2.801   9.246   7.635
29576WAT     H288971   2.767   9.284   7.790
29577WAT      O88972   0.219   7.288   3.338
29577WAT     H188973   0.232   7.335   3.251
29577WAT     H288974   0.122   7.265   3.349
29578WAT      O88975   7.098   6.205   2.979
29578WAT     H188976   7.169   6.156   3.031
29578WAT     H288977   7.127   6.300   2.967
29579WAT      O88978   4.564   9.163   7.173
29579WAT     H188979   4.649   9.207   7.143
29579WAT     H288980   4.519   9.221   7.241
29580WAT      O88981   2.430   8.066   0.112
29580WAT     H188982   2.483   8.093   0.031
29580WAT     H288983   2.363   7.998   0.086
29581WAT      O88984   9.801   7.164   4.412
29581WAT     H188985   9.826   7.069   4.432
29581WAT     H288986   9.870   7.225   4.451
29582WAT      O88987   0.825   0.490   8.847
29582WAT     H188988   0.809   0.586   8.826
29582WAT     H288989   0.919   0.466   8.821
29583WAT      O88990   7.661   9.418   7.233
29583WAT     H188991   7.588   9.427   7.300
29583WAT     H288992   7.749   9.437   7.277
29584WAT      O88993   2.394   3.312   0.241
29584WAT     H188994   2.483   3.316   0.197
29584WAT     H288995   2.402   3.266   0.330
29585WAT      O88996   5.088   8.681   3.967
29585WAT     H188997   5.078   8.616   3.892
29585WAT     H288998   5.183   8.712   3.971
29586WAT      O88999   9.482   1.664   7.300
29586WAT     H189000   9.428   1.586   7.333
29586WAT     H289001   9.490   1.660   7.201
29587WAT      O89002   0.694   6.547   3.719
29587WAT     H189003   0.611   6.602   3.729
29587WAT     H289004   0.771   6.594   3.762
29588WAT      O89005   6.530   0.037   6.174
29588WAT     H189006   6.505  -0.056   6.202
29588WAT     H289007   6.456   0.100   6.198
29589WAT      O89008   4.424   8.005   1.486
29589WAT     H189009   4.395   8.072   1.554
29589WAT     H289010   4.384   8.029   1.397
29590WAT      O89011   3.358   0.755   3.936
29590WAT     H189012   3.295   0.830   3.918
29590WAT     H289013   3.397   0.765   4.027
29591WAT      O89014   3.120   1.421   0.522
29591WAT     H189015   3.058   1.448   0.596
29591WAT     H289016   3.212   1.407   0.558
29592WAT      O89017   7.519   4.550   2.635
29592WAT     H189018   7.447   4.481   2.634
29592WAT     H289019   7.479   4.641   2.648
29593WAT      O89020   3.007   1.278   2.531
29593WAT     H189021   3.021   1.217   2.453
29593WAT     H289022   3.060   1.246   2.609
29594WAT      O89023   8.099   3.815   5.490
29594WAT     H189024   8.028   3.814   5.561
29594WAT     H289025   8.174   3.754   5.517
29595WAT      O89026   0.145   3.884   9.754
29595WAT     H189027   0.230   3.920   9.714
29595WAT     H289028   0.162   3.858   9.849
29596WAT      O89029   5.495   3.859   6.292
29596WAT     H189030   5.430   3.927   6.259
29596WAT     H289031   5.571   3.851   6.227
29597WAT      O89032   3.815   0.425   9.504
29597WAT     H189033   3.775   0.417   9.412
29597WAT     H289034   3.754   0.382   9.571
29598WAT      O89035   5.923   6.819   5.331
29598WAT     H189036   5.970   6.732   5.345
29598WAT     H289037   5.872   6.844   5.414
29599WAT      O89038   6.820   1.078   7.913
29599WAT     H189039   6.794   1.108   7.821
29599WAT     H289040   6.912   1.112   7.934
29600WAT      O89041   2.199   2.837   3.019
29600WAT     H189042   2.278   2.811   3.076
29600WAT     H289043   2.180   2.934   3.031
29601WAT      O89044   8.723   1.832   8.717
29601WAT     H189045   8.715   1.909   8.781
29601WAT     H289046   8.820   1.810   8.704
29602WAT      O89047   0.319   0.198   2.882
29602WAT     H189048   0.412   0.215   2.850
29602WAT     H289049   0.263   0.279   2.866
29603WAT      O89050   6.501   2.571   6.126
29603WAT     H189051   6.516   2.662   6.167
29603WAT     H289052   6.477   2.582   6.030
29604WAT      O89053   2.685   7.572   1.102
29604WAT     H189054   2.624   7.600   1.028
29604WAT     H289055   2.769   7.534   1.064
29605WAT      O89056   8.570   6.447   4.008
29605WAT     H189057   8.572   6.348   3.991
29605WAT     H289058   8.654   6.489   3.974
29606WAT      O89059   8.259   9.044   8.006
29606WAT     H189060   8.206   8.962   8.028
29606WAT     H289061   8.320   9.066   8.083
29607WAT      O89062   3.190   2.652   4.070
29607WAT     H189063   3.146   2.701   4.145
29607WAT     H289064   3.139   2.667   3.986
29608WAT      O89065   2.176   1.670   8.648
29608WAT     H189066   2.205   1.577   8.628
29608WAT     H289067   2.143   1.675   8.743
29609WAT      O89068   5.476   3.743   1.546
29609WAT     H189069   5.522   3.736   1.635
29609WAT     H289070   5.419   3.663   1.532
29610WAT      O89071   9.409   3.919   0.913
29610WAT     H189072   9.348   3.994   0.888
29610WAT     H289073   9.470   3.949   0.986
29611WAT      O89074   3.639   5.469   0.771
29611WAT     H189075   3.670   5.560   0.743
29611WAT     H289076   3.561   5.478   0.834
29612WAT      O89077   5.154   6.379   6.196
29612WAT     H189078   5.236   6.405   6.246
29612WAT     H289079   5.100   6.462   6.176
29613WAT      O89080   5.022   6.874   3.598
29613WAT     H189081   5.019   6.939   3.674
29613WAT     H289082   5.112   6.831   3.594
29614WAT      O89083   0.488   3.054   8.154
29614WAT     H189084   0.413   2.989   8.143
29614WAT     H289085   0.471   3.110   8.235
29615WAT      O89086   8.707   9.650   8.790
29615WAT     H189087   8.679   9.565   8.834
29615WAT     H289088   8.657   9.661   8.704
29616WAT      O89089   4.547   7.965   8.512
29616WAT     H189090   4.559   8.039   8.446
29616WAT     H289091   4.634   7.918   8.525
29617WAT      O89092   7.456   6.771   3.351
29617WAT     H189093   7.376   6.712   3.355
29617WAT     H289094   7.519   6.738   3.281
29618WAT      O89095   4.765   8.737   7.480
29618WAT     H189096   4.684   8.700   7.434
29618WAT     H289097   4.832   8.767   7.412
29619WAT      O89098   3.262   0.312   1.619
29619WAT     H189099   3.313   0.310   1.534
29619WAT     H289100   3.214   0.224   1.631
29620WAT      O89101   6.573   8.834   7.394
29620WAT     H189102   6.634   8.782   7.453
29620WAT     H289103   6.588   8.932   7.408
29621WAT      O89104   9.338   3.893   4.103
29621WAT     H189105   9.347   3.873   4.006
29621WAT     H289106   9.365   3.988   4.120
29622WAT      O89107   6.609   5.449   1.322
29622WAT     H189108   6.533   5.514   1.312
29622WAT     H289109   6.574   5.356   1.320
29623WAT      O89110   1.405   3.934   0.688
29623WAT     H189111   1.408   3.945   0.788
29623WAT     H289112   1.388   3.838   0.666
29624WAT      O89113   5.494   2.519   7.683
29624WAT     H189114   5.484   2.482   7.776
29624WAT     H289115   5.480   2.446   7.616
29625WAT      O89116   5.149   5.519   7.605
29625WAT     H189117   5.182   5.594   7.662
29625WAT     H289118   5.219   5.496   7.537
29626WAT      O89119   8.364   1.795   8.687
29626WAT     H189120   8.420   1.869   8.726
29626WAT     H289121   8.278   1.833   8.653
29627WAT      O89122   9.865   4.163   6.108
29627WAT     H189123   9.780   4.155   6.056
29627WAT     H289124   9.943   4.159   6.045
29628WAT      O89125   1.730   9.518   6.049
29628WAT     H189126   1.809   9.564   6.089
29628WAT     H289127   1.659   9.585   6.027
29629WAT      O89128   7.033   0.411   2.092
29629WAT     H189129   7.118   0.413   2.040
29629WAT     H289130   6.996   0.319   2.092
29630WAT      O89131   6.148   4.599   3.553
29630WAT     H189132   6.048   4.592   3.559
29630WAT     H289133   6.190   4.543   3.624
29631WAT      O89134   9.850   8.595   5.451
29631WAT     H189135   9.773   8.653   5.479
29631WAT     H289136   9.893   8.635   5.370
29632WAT      O89137   8.078   5.353   2.999
29632WAT     H189138   8.036   5.350   2.908
29632WAT     H289139   8.150   5.283   3.004
29633WAT      O89140   3.061   8.489   6.510
29633WAT     H189141   3.090   8.551   6.583
29633WAT     H289142   3.035   8.401   6.550
29634WAT      O89143   3.462   6.455   7.220
29634WAT     H189144   3.412   6.388   7.275
29634WAT     H289145   3.471   6.420   7.127
29635WAT      O89146   8.311   7.423   3.299
29635WAT     H189147   8.291   7.369   3.381
29635WAT     H289148   8.227   7.463   3.263
29636WAT      O89149   8.655   6.202   6.199
29636WAT     H189150   8.742   6.229   6.239
29636WAT     H289151   8.581   6.255   6.240
29637WAT      O89152   5.719   6.924   0.257
29637WAT     H189153   5.744   6.830   0.280
29637WAT     H289154   5.703   6.975   0.342
29638WAT      O89155   9.471   8.636   8.533
29638WAT     H189156   9.552   8.694   8.531
29638WAT     H289157   9.399   8.677   8.477
29639WAT      O89158   6.382   8.641   4.056
29639WAT     H189159   6.415   8.686   4.139
29639WAT     H289160   6.404   8.543   4.060
29640WAT      O89161   7.520   5.591   2.431
29640WAT     H189162   7.438   5.592   2.373
29640WAT     H289163   7.560   5.683   2.435
29641WAT      O89164   5.976   6.861   8.822
29641WAT     H189165   5.934   6.786   8.873
29641WAT     H289166   5.949   6.948   8.862
29642WAT      O89167   0.093   3.626   7.339
29642WAT     H189168   0.059   3.568   7.413
29642WAT     H289169   0.019   3.686   7.307
29643WAT      O89170   8.642   7.248   4.529
29643WAT     H189171   8.707   7.322   4.547
29643WAT     H289172   8.566   7.254   4.593
29644WAT      O89173   1.895   6.258   1.740
29644WAT     H189174   1.947   6.189   1.791
29644WAT     H289175   1.911   6.246   1.642
29645WAT      O89176   9.452   7.751   8.484
29645WAT     H189177   9.489   7.705   8.564
29645WAT     H289178   9.441   7.848   8.504
29646WAT      O89179   3.246   1.749   4.098
29646WAT     H189180   3.302   1.723   4.177
29646WAT     H289181   3.277   1.837   4.062
29647WAT      O89182   0.903   6.716   1.038
29647WAT     H189183   0.836   6.725   1.112
29647WAT     H289184   0.957   6.800   1.032
29648WAT      O89185   8.688   8.778   2.023
29648WAT     H189186   8.668   8.872   2.048
29648WAT     H289187   8.759   8.777   1.952
29649WAT      O89188   2.968   8.098   4.656
29649WAT     H189189   2.953   8.134   4.563
29649WAT     H289190   2.886   8.051   4.687
29650WAT      O89191   0.342   7.386   3.546
29650WAT     H189192   0.275   7.409   3.616
29650WAT     H289193   0.296   7.343   3.469
29651WAT      O89194   7.666   6.271   8.835
29651WAT     H189195   7.682   6.194   8.773
29651WAT     H289196   7.747   6.330   8.836
29652WAT      O89197   4.242   7.615   7.887
29652WAT     H189198   4.211   7.533   7.935
29652WAT     H289199   4.216   7.696   7.939
29653WAT      O89200   4.152   7.493   5.345
29653WAT     H189201   4.180   7.449   5.431
29653WAT     H289202   4.181   7.589   5.347
29654WAT      O89203   7.120   6.396   4.686
29654WAT     H189204   7.197   6.335   4.703
29654WAT     H289205   7.148   6.491   4.702
29655WAT      O89206   0.376   0.988   7.484
29655WAT     H189207   0.458   0.951   7.526
29655WAT     H289208   0.301   0.922   7.493
29656WAT      O89209   1.852   1.485   3.940
29656WAT     H189210   1.890   1.440   4.021
29656WAT     H289211   1.898   1.450   3.859
29657WAT      O89212   7.375   5.413   4.866
29657WAT     H189213   7.363   5.467   4.782
29657WAT     H289214   7.464   5.368   4.864
29658WAT      O89215   0.796   4.934   6.046
29658WAT     H189216   0.796   5.022   6.000
29658WAT     H289217   0.768   4.947   6.141
29659WAT      O89218   9.216   8.737   8.470
29659WAT     H189219   9.171   8.762   8.556
29659WAT     H289220   9.148   8.704   8.405
29660WAT      O89221   8.295   5.551   6.136
29660WAT     H189222   8.337   5.481   6.079
29660WAT     H289223   8.327   5.641   6.107
29661WAT      O89224   4.119   7.806   8.045
29661WAT     H189225   4.118   7.737   8.117
29661WAT     H289226   4.026   7.841   8.031
29662WAT      O89227   0.133   4.204   4.658
29662WAT     H189228   0.202   4.163   4.598
29662WAT     H289229   0.140   4.164   4.749
29663WAT      O89230   7.799   4.933   0.950
29663WAT     H189231   7.794   4.833   0.954
29663WAT     H289232   7.804   4.963   0.855
29664WAT      O89233   7.615   7.819   9.391
29664WAT     H189234   7.594   7.794   9.486
29664WAT     H289235   7.621   7.918   9.383
29665WAT      O89236   8.660   4.485   9.385
29665WAT     H189237   8.707   4.408   9.343
29665WAT     H289238   8.697   4.500   9.477
29666WAT      O89239   1.946   5.046   4.326
29666WAT     H189240   2.027   5.003   4.286
29666WAT     H289241   1.887   5.080   4.253
29667WAT      O89242   2.692   2.476   0.597
29667WAT     H189243   2.620   2.407   0.606
29667WAT     H289244   2.651   2.567   0.599
29668WAT      O89245   5.340   8.530   4.408
29668WAT     H189246   5.265   8.595   4.403
29668WAT     H289247   5.423   8.577   4.437
29669WAT      O89248   1.278   8.869   9.424
29669WAT     H189249   1.283   8.915   9.512
29669WAT     H289250   1.293   8.771   9.436
29670WAT      O89251   9.229   1.424   4.828
29670WAT     H189252   9.325   1.395   4.823
29670WAT     H289253   9.176   1.377   4.756
29671WAT      O89254   7.669   1.102   6.560
29671WAT     H189255   7.652   1.162   6.637
29671WAT     H289256   7.747   1.042   6.580
29672WAT      O89257   4.937   6.259   8.538
29672WAT     H189258   4.907   6.292   8.628
29672WAT     H289259   4.958   6.161   8.544
29673WAT      O89260   4.086   2.782   4.764
29673WAT     H189261   4.171   2.828   4.737
29673WAT     H289262   4.061   2.810   4.857
29674WAT      O89263   2.334   3.808   3.887
29674WAT     H189264   2.404   3.753   3.933
29674WAT     H289265   2.244   3.773   3.911
29675WAT      O89266   9.533   0.749   9.735
29675WAT     H189267   9.569   0.656   9.742
29675WAT     H289268   9.439   0.751   9.770
29676WAT      O89269   3.600   2.282   5.744
29676WAT     H189270   3.642   2.204   5.697
29676WAT     H289271   3.503   2.285   5.722
29677WAT      O89272   5.736   1.029   1.788
29677WAT     H189273   5.724   1.046   1.885
29677WAT     H289274   5.715   1.112   1.736
29678WAT      O89275   5.688   9.250   9.545
29678WAT     H189276   5.702   9.167   9.492
29678WAT     H289277   5.632   9.230   9.625
29679WAT      O89278   4.533   7.658   2.267
29679WAT     H189279   4.609   7.711   2.305
29679WAT     H289280   4.452   7.716   2.262
29680WAT      O89281   1.364   4.676   7.333
29680WAT     H189282   1.426   4.609   7.294
29680WAT     H289283   1.372   4.675   7.432
29681WAT      O89284   1.556   1.609   9.124
29681WAT     H189285   1.622   1.605   9.048
29681WAT     H289286   1.528   1.704   9.138
29682WAT      O89287   9.581   0.905   7.429
29682WAT     H189288   9.504   0.841   7.417
29682WAT     H289289   9.620   0.927   7.339
29683WAT      O89290   6.476   6.836   2.566
29683WAT     H189291   6.391   6.786   2.546
29683WAT     H289292   6.499   6.826   2.663
29684WAT      O89293   8.764   4.555   7.176
29684WAT     H189294   8.808   4.619   7.112
29684WAT     H289295   8.746   4.469   7.129
29685WAT      O89296   5.325   1.886   8.769
29685WAT     H189297   5.229   1.904   8.751
29685WAT     H289298   5.337   1.866   8.866
29686WAT      O89299   2.625   5.893   5.643
29686WAT     H189300   2.564   5.826   5.600
29686WAT     H289301   2.592   5.985   5.622
29687WAT      O89302   9.801   7.439   2.595
29687WAT     H189303   9.846   7.528   2.601
29687WAT     H289304   9.870   7.367   2.596
29688WAT      O89305   7.972   8.926   7.279
29688WAT     H189306   8.055   8.902   7.230
29688WAT     H289307   7.923   8.843   7.305
29689WAT      O89308   0.401   8.414   4.438
29689WAT     H189309   0.472   8.461   4.386
29689WAT     H289310   0.414   8.315   4.431
29690WAT      O89311   7.429   7.566   4.932
29690WAT     H189312   7.360   7.494   4.935
29690WAT     H289313   7.432   7.606   4.840
29691WAT      O89314   3.602   6.046   3.747
29691WAT     H189315   3.563   5.977   3.809
29691WAT     H289316   3.539   6.123   3.739
29692WAT      O89317   4.810   2.418   6.870
29692WAT     H189318   4.800   2.495   6.932
29692WAT     H289319   4.907   2.397   6.859
29693WAT      O89320   8.234   1.597   7.598
29693WAT     H189321   8.156   1.644   7.639
29693WAT     H289322   8.248   1.510   7.646
29694WAT      O89323   1.045   8.768   8.096
29694WAT     H189324   0.959   8.741   8.138
29694WAT     H289325   1.117   8.771   8.166
29695WAT      O89326   1.274   9.682   5.557
29695WAT     H189327   1.244   9.680   5.461
29695WAT     H289328   1.286   9.776   5.586
29696WAT      O89329   3.874   9.156   9.519
29696WAT     H189330   3.870   9.173   9.617
29696WAT     H289331   3.969   9.133   9.494
29697WAT      O89332   1.183   5.412   4.090
29697WAT     H189333   1.153   5.463   4.010
29697WAT     H289334   1.104   5.384   4.144
29698WAT      O89335   5.431   1.780   5.776
29698WAT     H189336   5.369   1.715   5.819
29698WAT     H289337   5.399   1.873   5.793
29699WAT      O89338   1.043   7.692   3.978
29699WAT     H189339   0.964   7.682   3.916
29699WAT     H289340   1.013   7.679   4.072
29700WAT      O89341   1.116   6.146   9.869
29700WAT     H189342   1.094   6.169   9.964
29700WAT     H289343   1.207   6.104   9.865
29701WAT      O89344   5.292   4.187   1.307
29701WAT     H189345   5.283   4.257   1.236
29701WAT     H289346   5.248   4.102   1.275
29702WAT      O89347   5.019   3.034   8.505
29702WAT     H189348   4.966   2.979   8.570
29702WAT     H289349   5.116   3.030   8.528
29703WAT      O89350   7.965   2.510   6.636
29703WAT     H189351   7.916   2.467   6.561
29703WAT     H289352   7.905   2.576   6.682
29704WAT      O89353   0.810   3.732   8.133
29704WAT     H189354   0.859   3.750   8.048
29704WAT     H289355   0.798   3.633   8.144
29705WAT      O89356   6.173   3.845   4.710
29705WAT     H189357   6.261   3.892   4.722
29705WAT     H289358   6.168   3.807   4.618
29706WAT      O89359   8.531   4.425   0.777
29706WAT     H189360   8.610   4.467   0.732
29706WAT     H289361   8.487   4.362   0.714
29707WAT      O89362   7.000   2.070   1.789
29707WAT     H189363   6.963   2.001   1.728
29707WAT     H289364   6.948   2.155   1.779
29708WAT      O89365   7.454   2.371   6.815
29708WAT     H189366   7.367   2.332   6.845
29708WAT     H289367   7.441   2.426   6.733
29709WAT      O89368   7.461   9.673   5.914
29709WAT     H189369   7.439   9.628   5.828
29709WAT     H289370   7.446   9.772   5.906
29710WAT      O89371   5.182   6.325   9.588
29710WAT     H189372   5.157   6.380   9.508
29710WAT     H289373   5.158   6.375   9.672
29711WAT      O89374   0.265   0.971   8.049
29711WAT     H189375   0.263   1.066   8.018
29711WAT     H289376   0.302   0.967   8.142
29712WAT      O89377   1.932   1.017   9.357
29712WAT     H189378   2.018   0.971   9.378
29712WAT     H289379   1.944   1.116   9.361
29713WAT      O89380   6.115   0.911   8.610
29713WAT     H189381   6.198   0.912   8.667
29713WAT     H289382   6.088   0.816   8.594
29714WAT      O89383   6.097   3.075   3.613
29714WAT     H189384   6.003   3.109   3.612
29714WAT     H289385   6.095   2.975   3.607
29715WAT      O89386   0.748   0.708   6.712
29715WAT     H189387   0.671   0.762   6.677
29715WAT     H289388   0.723   0.612   6.716
29716WAT      O89389   1.901   4.557   8.197
29716WAT     H189390   1.893   4.520   8.290
29716WAT     H289391   1.964   4.634   8.197
29717WAT      O89392   5.840   5.992   2.482
29717WAT     H189393   5.863   6.037   2.569
29717WAT     H289394   5.742   5.973   2.480
29718WAT      O89395   3.223   4.521   9.378
29718WAT     H189396   3.168   4.462   9.319
29718WAT     H289397   3.192   4.616   9.368
29719WAT      O89398   1.310   3.899   5.405
29719WAT     H189399   1.389   3.958   5.391
29719WAT     H289400   1.237   3.925   5.342
29720WAT      O89401   0.179   8.437   2.703
29720WAT     H189402   0.248   8.453   2.774
29720WAT     H289403   0.128   8.354   2.726
29721WAT      O89404   6.251   8.923   0.604
29721WAT     H189405   6.212   8.906   0.694
29721WAT     H289406   6.332   8.981   0.613
29722WAT      O89407   7.037   8.606   7.558
29722WAT     H189408   7.054   8.663   7.478
29722WAT     H289409   6.945   8.626   7.594
29723WAT      O89410   0.869   9.581   1.806
29723WAT     H189411   0.868   9.485   1.834
29723WAT     H289412   0.779   9.621   1.820
29724WAT      O89413   0.518   5.778   4.924
29724WAT     H189414   0.555   5.793   4.832
29724WAT     H289415   0.592   5.757   4.987
29725WAT      O89416   9.337   2.149   4.507
29725WAT     H189417   9.329   2.192   4.597
29725WAT     H289418   9.403   2.074   4.511
29726WAT      O89419   6.318   9.847   5.531
29726WAT     H189420   6.285   9.756   5.507
29726WAT     H289421   6.347   9.847   5.627
29727WAT      O89422   2.156   4.979   1.466
29727WAT     H189423   2.171   5.002   1.562
29727WAT     H289424   2.115   4.888   1.460
29728WAT      O89425   7.057   7.597   6.979
29728WAT     H189426   7.095   7.572   6.890
29728WAT     H289427   7.006   7.682   6.970
29729WAT      O89428   9.811   1.276   8.513
29729WAT     H189429   9.747   1.255   8.440
29729WAT     H289430   9.769   1.256   8.602
29730WAT      O89431   1.384   0.543   5.293
29730WAT     H189432   1.353   0.538   5.388
29730WAT     H289433   1.317   0.594   5.239
29731WAT      O89434   1.677   9.281   4.385
29731WAT     H189435   1.616   9.219   4.336
29731WAT     H289436   1.767   9.281   4.343
29732WAT      O89437   8.560   5.610   9.228
29732WAT     H189438   8.598   5.678   9.166
29732WAT     H289439   8.602   5.620   9.318
29733WAT      O89440   5.712   6.309   2.012
29733WAT     H189441   5.795   6.337   1.965
29733WAT     H289442   5.708   6.210   2.018
29734WAT      O89443   3.067   7.859   4.730
29734WAT     H189444   3.146   7.829   4.676
29734WAT     H289445   3.029   7.942   4.688
29735WAT      O89446   1.574   7.324   0.482
29735WAT     H189447   1.642   7.396   0.482
29735WAT     H289448   1.483   7.363   0.496
29736WAT      O89449   4.052   6.525   4.960
29736WAT     H189450   4.005   6.610   4.936
29736WAT     H289451   4.038   6.505   5.057
29737WAT      O89452   5.328   6.778   1.296
29737WAT     H189453   5.384   6.800   1.376
29737WAT     H289454   5.385   6.777   1.214
29738WAT      O89455   4.124   3.749   8.475
29738WAT     H189456   4.191   3.790   8.537
29738WAT     H289457   4.035   3.792   8.488
29739WAT      O89458   1.280   2.101   5.716
29739WAT     H189459   1.242   2.016   5.752
29739WAT     H289460   1.278   2.171   5.787
29740WAT      O89461   6.425   0.030   0.870
29740WAT     H189462   6.446   0.005   0.965
29740WAT     H289463   6.415  -0.053   0.816
29741WAT      O89464   2.114   4.400   2.562
29741WAT     H189465   2.161   4.343   2.494
29741WAT     H289466   2.044   4.345   2.608
29742WAT      O89467   3.454   4.818   1.401
29742WAT     H189468   3.486   4.731   1.362
29742WAT     H289469   3.421   4.877   1.327
29743WAT      O89470   6.558   5.599   8.461
29743WAT     H189471   6.569   5.534   8.386
29743WAT     H289472   6.543   5.691   8.424
29744WAT      O89473   7.275   9.261   1.503
29744WAT     H189474   7.363   9.305   1.483
29744WAT     H289475   7.219   9.259   1.420
29745WAT      O89476   7.810   8.062   0.338
29745WAT     H189477   7.865   7.990   0.379
29745WAT     H289478   7.861   8.148   0.339
29746WAT      O89479   3.858   6.169   2.605
29746WAT     H189480   3.789   6.240   2.595
29746WAT     H289481   3.851   6.127   2.695
29747WAT      O89482   4.493   3.883   7.031
29747WAT     H189483   4.505   3.885   6.931
29747WAT     H289484   4.515   3.972   7.069
29748WAT      O89485   3.702   2.385   5.964
29748WAT     H189486   3.653   2.343   5.889
29748WAT     H289487   3.800   2.387   5.943
29749WAT      O89488   4.181   9.216   1.077
29749WAT     H189489   4.260   9.274   1.058
29749WAT     H289490   4.097   9.266   1.056
29750WAT      O89491   2.185   4.980   3.881
29750WAT     H189492   2.102   4.930   3.906
29750WAT     H289493   2.225   4.939   3.798
29751WAT      O89494   7.260   6.128   1.334
29751WAT     H189495   7.250   6.031   1.357
29751WAT     H289496   7.173   6.175   1.351
29752WAT      O89497   4.296   6.181   1.753
29752WAT     H189498   4.330   6.172   1.847
29752WAT     H289499   4.213   6.126   1.742
29753WAT      O89500   1.107   1.915   9.322
29753WAT     H189501   1.061   1.851   9.383
29753WAT     H289502   1.110   2.006   9.365
29754WAT      O89503   5.354   1.413   2.168
29754WAT     H189504   5.413   1.365   2.233
29754WAT     H289505   5.259   1.398   2.193
29755WAT      O89506   0.051   8.500   0.876
29755WAT     H189507   0.103   8.523   0.959
29755WAT     H289508   0.075   8.564   0.803
29756WAT      O89509   9.378   4.747   0.545
29756WAT     H189510   9.360   4.713   0.637
29756WAT     H289511   9.301   4.723   0.485
29757WAT      O89512   9.527   7.027   8.799
29757WAT     H189513   9.481   7.100   8.849
29757WAT     H289514   9.462   6.955   8.778
29758WAT      O89515   4.759   5.589   1.768
29758WAT     H189516   4.699   5.668   1.759
29758WAT     H289517   4.763   5.561   1.864
29759WAT      O89518   5.806   7.576   3.179
29759WAT     H189519   5.832   7.623   3.263
29759WAT     H289520   5.709   7.593   3.160
29760WAT      O89521   3.031   3.965   3.771
29760WAT     H189522   2.937   3.997   3.778
29760WAT     H289523   3.047   3.929   3.679
29761WAT      O89524   3.897   4.410   3.875
29761WAT     H189525   3.834   4.458   3.935
29761WAT     H289526   3.991   4.426   3.905
29762WAT      O89527   3.851   4.525   8.600
29762WAT     H189528   3.898   4.572   8.526
29762WAT     H289529   3.827   4.590   8.671
29763WAT      O89530   8.437   6.470   7.576
29763WAT     H189531   8.484   6.404   7.634
29763WAT     H289532   8.369   6.520   7.629
29764WAT      O89533   0.778   1.344   9.676
29764WAT     H189534   0.749   1.402   9.599
29764WAT     H289535   0.715   1.356   9.752
29765WAT      O89536   3.236   1.996   3.997
29765WAT     H189537   3.242   2.081   4.050
29765WAT     H289538   3.291   2.004   3.914
29766WAT      O89539   9.858   7.641   6.651
29766WAT     H189540   9.774   7.636   6.705
29766WAT     H289541   9.912   7.558   6.666
29767WAT      O89542   6.622   8.216   4.474
29767WAT     H189543   6.711   8.242   4.510
29767WAT     H289544   6.616   8.116   4.469
29768WAT      O89545   8.572   0.746   3.822
29768WAT     H189546   8.562   0.695   3.737
29768WAT     H289547   8.511   0.825   3.822
29769WAT      O89548   3.387   8.767   7.916
29769WAT     H189549   3.305   8.715   7.890
29769WAT     H289550   3.360   8.845   7.972
29770WAT      O89551   7.500   5.494   1.243
29770WAT     H189552   7.520   5.592   1.241
29770WAT     H289553   7.513   5.456   1.152
29771WAT      O89554   1.728   3.303   3.608
29771WAT     H189555   1.694   3.372   3.545
29771WAT     H289556   1.682   3.312   3.696
29772WAT      O89557   6.107   9.097   7.777
29772WAT     H189558   6.169   9.054   7.711
29772WAT     H289559   6.053   9.027   7.823
29773WAT      O89560   1.145   8.916   5.257
29773WAT     H189561   1.216   8.865   5.209
29773WAT     H289562   1.122   8.869   5.342
29774WAT      O89563   5.027   0.167   2.955
29774WAT     H189564   5.018   0.247   3.013
29774WAT     H289565   5.006   0.085   3.008
29775WAT      O89566   5.090   8.234   1.635
29775WAT     H189567   5.060   8.327   1.615
29775WAT     H289568   5.023   8.189   1.695
29776WAT      O89569   8.814   1.370   7.932
29776WAT     H189570   8.765   1.432   7.994
29776WAT     H289571   8.803   1.401   7.838
29777WAT      O89572   0.903   3.176   6.320
29777WAT     H189573   0.873   3.175   6.224
29777WAT     H289574   0.847   3.113   6.373
29778WAT      O89575   4.944   2.656   1.696
29778WAT     H189576   4.876   2.642   1.769
29778WAT     H289577   4.960   2.569   1.649
29779WAT      O89578   3.356   4.510   4.981
29779WAT     H189579   3.271   4.544   4.940
29779WAT     H289580   3.415   4.587   5.004
29780WAT      O89581   1.206   8.412   0.562
29780WAT     H189582   1.272   8.346   0.597
29780WAT     H289583   1.244   8.504   0.571
29781WAT      O89584   7.395   4.936   6.341
29781WAT     H189585   7.446   4.978   6.265
29781WAT     H289586   7.457   4.884   6.399
29782WAT      O89587   4.680   5.166   6.647
29782WAT     H189588   4.680   5.083   6.703
29782WAT     H289589   4.687   5.140   6.550
29783WAT      O89590   0.845   6.316   4.026
29783WAT     H189591   0.895   6.262   4.093
29783WAT     H289592   0.910   6.355   3.960
29784WAT      O89593   5.954   5.024   7.432
29784WAT     H189594   5.882   5.013   7.501
29784WAT     H289595   6.020   4.949   7.440
29785WAT      O89596   4.743   6.435   7.159
29785WAT     H189597   4.822   6.376   7.142
29785WAT     H289598   4.716   6.480   7.074
29786WAT      O89599   9.144   0.739   0.178
29786WAT     H189600   9.143   0.829   0.220
29786WAT     H289601   9.055   0.696   0.189
29787WAT      O89602   5.013   3.353   8.696
29787WAT     H189603   5.009   3.310   8.605
29787WAT     H289604   5.107   3.354   8.728
29788WAT      O89605   7.716   0.329   6.888
29788WAT     H189606   7.634   0.317   6.831
29788WAT     H289607   7.725   0.251   6.950
29789WAT      O89608   5.377   1.888   9.365
29789WAT     H189609   5.309   1.933   9.307
29789WAT     H289610   5.427   1.820   9.311
29790WAT      O89611   3.129   7.616   6.379
29790WAT     H189612   3.164   7.591   6.288
29790WAT     H289613   3.063   7.548   6.409
29791WAT      O89614   2.343   1.022   4.878
29791WAT     H189615   2.366   0.937   4.926
29791WAT     H289616   2.251   1.051   4.907
29792WAT      O89617   3.933   9.306   0.962
29792WAT     H189618   3.872   9.382   0.941
29792WAT     H289619   3.980   9.277   0.879
29793WAT      O89620   4.200   7.861   1.670
29793WAT     H189621   4.152   7.937   1.714
29793WAT     H289622   4.241   7.892   1.585
29794WAT      O89623   1.449   0.612   2.459
29794WAT     H189624   1.358   0.650   2.441
29794WAT     H289625   1.445   0.549   2.536
29795WAT      O89626   0.005   4.435   0.446
29795WAT     H189627  -0.020   4.531   0.434
29795WAT     H289628   0.006   4.412   0.543
29796WAT      O89629   3.449   6.163   9.869
29796WAT     H189630   3.446   6.081   9.813
29796WAT     H289631   3.508   6.148   9.949
29797WAT      O89632   0.648   0.257   0.667
29797WAT     H189633   0.702   0.192   0.719
29797WAT     H289634   0.702   0.292   0.590
29798WAT      O89635   4.513   6.917   0.978
29798WAT     H189636   4.454   6.997   0.971
29798WAT     H289637   4.550   6.895   0.888
29799WAT      O89638   5.090   6.971   6.982
29799WAT     H189639   5.009   6.920   6.952
29799WAT     H289640   5.173   6.919   6.959
29800WAT      O89641   1.398   6.097   9.821
29800WAT     H189642   1.402   6.030   9.896
29800WAT     H289643   1.468   6.167   9.836
29801WAT      O89644   4.402   9.505   5.057
29801WAT     H189645   4.332   9.465   5.117
29801WAT     H289646   4.437   9.435   4.996
29802WAT      O89647   8.063   2.986   2.470
29802WAT     H189648   7.989   2.920   2.466
29802WAT     H289649   8.065   3.031   2.560
29803WAT      O89650   5.454   9.667   1.245
29803WAT     H189651   5.416   9.612   1.169
29803WAT     H289652   5.508   9.608   1.305
29804WAT      O89653   6.821   0.941   9.076
29804WAT     H189654   6.725   0.913   9.080
29804WAT     H289655   6.850   0.974   9.166
29805WAT      O89656   3.709   7.578   5.481
29805WAT     H189657   3.748   7.591   5.389
29805WAT     H289658   3.694   7.667   5.523
29806WAT      O89659   1.828   8.932   1.533
29806WAT     H189660   1.872   8.874   1.602
29806WAT     H289661   1.834   8.888   1.443
29807WAT      O89662   7.754   6.060   0.821
29807WAT     H189663   7.671   6.097   0.863
29807WAT     H289664   7.798   5.997   0.885
29808WAT      O89665   2.309   6.170   1.790
29808WAT     H189666   2.304   6.190   1.693
29808WAT     H289667   2.253   6.236   1.841
29809WAT      O89668   2.237   5.462   3.368
29809WAT     H189669   2.316   5.415   3.408
29809WAT     H289670   2.238   5.558   3.396
29810WAT      O89671   6.922   2.259   6.886
29810WAT     H189672   7.011   2.297   6.913
29810WAT     H289673   6.899   2.183   6.947
29811WAT      O89674   4.649   8.414   5.411
29811WAT     H189675   4.653   8.455   5.503
29811WAT     H289676   4.694   8.475   5.346
29812WAT      O89677   1.975   9.612   8.334
29812WAT     H189678   1.953   9.602   8.237
29812WAT     H289679   2.012   9.703   8.351
29813WAT      O89680   2.088   4.091   1.249
29813WAT     H189681   2.085   4.061   1.344
29813WAT     H289682   2.171   4.057   1.205
29814WAT      O89683   6.050   1.983   8.996
29814WAT     H189684   5.959   2.002   8.959
29814WAT     H289685   6.077   1.890   8.972
29815WAT      O89686   7.594   1.066   0.763
29815WAT     H189687   7.563   1.060   0.668
29815WAT     H289688   7.526   1.025   0.824
29816WAT      O89689   3.665   4.151   0.993
29816WAT     H189690   3.620   4.105   0.917
29816WAT     H289691   3.695   4.084   1.061
29817WAT      O89692   5.465   8.477   6.394
29817WAT     H189693   5.371   8.509   6.383
29817WAT     H289694   5.465   8.380   6.417
29818WAT      O89695   5.339   1.404   5.104
29818WAT     H189696   5.325   1.305   5.099
29818WAT     H289697   5.296   1.439   5.187
29819WAT      O89698   3.011   7.878   8.248
29819WAT     H189699   3.060   7.791   8.247
29819WAT     H289700   3.076   7.953   8.261
29820WAT      O89701   7.006   5.339   2.005
29820WAT     H189702   7.093   5.305   1.971
29820WAT     H289703   7.013   5.356   2.104
29821WAT      O89704   2.270   4.998   1.188
29821WAT     H189705   2.315   4.909   1.200
29821WAT     H289706   2.239   5.031   1.277
29822WAT      O89707   0.109   2.600   2.548
29822WAT     H189708   0.186   2.542   2.521
29822WAT     H289709   0.085   2.661   2.473
29823WAT      O89710   4.172   9.494   5.779
29823WAT     H189711   4.097   9.458   5.835
29823WAT     H289712   4.202   9.582   5.816
29824WAT      O89713   6.221   0.720   6.507
29824WAT     H189714   6.241   0.706   6.410
29824WAT     H289715   6.122   0.716   6.521
29825WAT      O89716   0.971   1.686   1.804
29825WAT     H189717   0.990   1.724   1.714
29825WAT     H289718   0.894   1.622   1.798
29826WAT      O89719   6.492   1.467   5.278
29826WAT     H189720   6.399   1.439   5.301
29826WAT     H289721   6.526   1.532   5.345
29827WAT      O89722   1.589   3.351   6.137
29827WAT     H189723   1.536   3.419   6.086
29827WAT     H289724   1.605   3.271   6.079
29828WAT      O89725   5.781   7.050   0.717
29828WAT     H189726   5.696   7.086   0.757
29828WAT     H289727   5.854   7.117   0.729
29829WAT      O89728   0.130   7.371   8.005
29829WAT     H189729   0.090   7.429   8.076
29829WAT     H289730   0.086   7.390   7.917
29830WAT      O89731   1.869   1.846   2.099
29830WAT     H189732   1.861   1.810   2.192
29830WAT     H289733   1.800   1.803   2.041
29831WAT      O89734   7.823   7.899   4.729
29831WAT     H189735   7.906   7.948   4.703
29831WAT     H289736   7.773   7.951   4.798
29832WAT      O89737   5.933   3.506   9.131
29832WAT     H189738   5.927   3.445   9.052
29832WAT     H289739   5.846   3.555   9.141
29833WAT      O89740   9.830   9.334   7.692
29833WAT     H189741   9.869   9.260   7.637
29833WAT     H289742   9.902   9.401   7.713
29834WAT      O89743   7.910   5.422   3.881
29834WAT     H189744   7.975   5.450   3.810
29834WAT     H289745   7.959   5.374   3.954
29835WAT      O89746   5.560   8.915   5.277
29835WAT     H189747   5.606   8.914   5.365
29835WAT     H289748   5.556   8.823   5.240
29836WAT      O89749   6.077   8.086   0.250
29836WAT     H189750   6.172   8.071   0.223
29836WAT     H289751   6.075   8.120   0.345
29837WAT      O89752   3.295   6.147   7.986
29837WAT     H189753   3.213   6.183   7.942
29837WAT     H289754   3.364   6.219   7.992
29838WAT      O89755   0.064   1.961   5.944
29838WAT     H189756  -0.025   1.963   5.899
29838WAT     H289757   0.084   2.051   5.982
29839WAT      O89758   9.480   9.034   3.906
29839WAT     H189759   9.465   9.123   3.863
29839WAT     H289760   9.485   8.963   3.835
29840WAT      O89761   6.850   6.192   5.582
29840WAT     H189762   6.879   6.111   5.633
29840WAT     H289763   6.775   6.167   5.521
29841WAT      O89764   6.284   8.241   6.257
29841WAT     H189765   6.208   8.282   6.306
29841WAT     H289766   6.254   8.209   6.167
29842WAT      O89767   4.537   0.512   5.387
29842WAT     H189768   4.532   0.526   5.486
29842WAT     H289769   4.496   0.424   5.363
29843WAT      O89770   0.725   3.648   1.043
29843WAT     H189771   0.717   3.572   1.107
29843WAT     H289772   0.703   3.618   0.951
29844WAT      O89773   0.687   3.600   2.251
29844WAT     H189774   0.648   3.517   2.210
29844WAT     H289775   0.776   3.579   2.291
29845WAT      O89776   4.773   1.190   8.995
29845WAT     H189777   4.756   1.195   8.897
29845WAT     H289778   4.809   1.278   9.027
29846WAT      O89779   2.907   2.707   9.274
29846WAT     H189780   2.854   2.641   9.326
29846WAT     H289781   2.863   2.724   9.186
29847WAT      O89782   0.285   1.532   9.418
29847WAT     H189783   0.310   1.535   9.321
29847WAT     H289784   0.354   1.582   9.471
29848WAT      O89785   2.282   0.939   9.110
29848WAT     H189786   2.299   1.037   9.106
29848WAT     H289787   2.207   0.915   9.049
29849WAT      O89788   3.175   5.899   9.627
29849WAT     H189789   3.095   5.959   9.635
29849WAT     H289790   3.154   5.810   9.668
29850WAT      O89791   2.394   5.165   0.208
29850WAT     H189792   2.372   5.133   0.301
29850WAT     H289793   2.392   5.265   0.206
29851WAT      O89794   8.888   7.223   9.524
29851WAT     H189795   8.918   7.128   9.531
29851WAT     H289796   8.793   7.230   9.554
29852WAT      O89797   7.894   4.175   2.309
29852WAT     H189798   7.982   4.160   2.264
29852WAT     H289799   7.849   4.087   2.325
29853WAT      O89800   7.989   3.460   4.745
29853WAT     H189801   7.892   3.446   4.728
29853WAT     H289802   8.042   3.431   4.665
29854WAT      O89803   5.837   6.098   4.360
29854WAT     H189804   5.810   6.002   4.357
29854WAT     H289805   5.841   6.128   4.456
29855WAT      O89806   2.077   4.619   1.219
29855WAT     H189807   2.107   4.524   1.209
29855WAT     H289808   2.126   4.676   1.153
29856WAT      O89809   7.143   9.002   9.855
29856WAT     H189810   7.197   8.971   9.933
29856WAT     H289811   7.046   8.980   9.872
29857WAT      O89812   1.431   1.826   3.812
29857WAT     H189813   1.377   1.900   3.772
29857WAT     H289814   1.389   1.738   3.790
29858WAT      O89815   3.590   1.740   2.527
29858WAT     H189816   3.541   1.664   2.571
29858WAT     H289817   3.615   1.713   2.434
29859WAT      O89818   4.297   3.561   5.453
29859WAT     H189819   4.208   3.517   5.459
29859WAT     H289820   4.327   3.588   5.545
29860WAT      O89821   3.098   1.831   6.288
29860WAT     H189822   3.135   1.792   6.372
29860WAT     H289823   3.034   1.905   6.310
29861WAT      O89824   7.803   7.255   7.025
29861WAT     H189825   7.747   7.231   6.945
29861WAT     H289826   7.829   7.351   7.020
29862WAT      O89827   5.678   0.271   8.960
29862WAT     H189828   5.692   0.173   8.947
29862WAT     H289829   5.676   0.293   9.057
29863WAT      O89830   2.008   9.253   8.160
29863WAT     H189831   1.942   9.208   8.099
29863WAT     H289832   1.988   9.228   8.255
29864WAT      O89833   9.784   8.433   9.567
29864WAT     H189834   9.774   8.475   9.477
29864WAT     H289835   9.838   8.349   9.559
29865WAT      O89836   9.399   2.366   9.374
29865WAT     H189837   9.465   2.292   9.361
29865WAT     H289838   9.345   2.376   9.291
29866WAT      O89839   7.878   2.542   4.910
29866WAT     H189840   7.793   2.502   4.944
29866WAT     H289841   7.863   2.639   4.889
29867WAT      O89842   1.509   6.375   9.837
29867WAT     H189843   1.510   6.387   9.936
29867WAT     H289844   1.597   6.403   9.799
29868WAT      O89845   8.396   3.374   3.001
29868WAT     H189846   8.394   3.394   3.099
29868WAT     H289847   8.453   3.293   2.985
29869WAT      O89848   2.460   7.373   7.885
29869WAT     H189849   2.447   7.464   7.846
29869WAT     H289850   2.465   7.380   7.985
29870WAT      O89851   1.839   5.382   1.049
29870WAT     H189852   1.848   5.339   1.139
29870WAT     H289853   1.852   5.312   0.978
29871WAT      O89854   3.943   8.768   8.215
29871WAT     H189855   3.938   8.734   8.121
29871WAT     H289856   4.013   8.717   8.265
29872WAT      O89857   1.032   8.413   7.242
29872WAT     H189858   1.074   8.337   7.192
29872WAT     H289859   1.010   8.383   7.335
29873WAT      O89860   7.183   1.851   2.940
29873WAT     H189861   7.266   1.905   2.927
29873WAT     H289862   7.103   1.905   2.913
29874WAT      O89863   9.505   8.035   5.701
29874WAT     H189864   9.571   8.037   5.626
29874WAT     H289865   9.424   8.088   5.675
29875WAT      O89866   1.591   4.092   6.841
29875WAT     H189867   1.668   4.130   6.892
29875WAT     H289868   1.610   3.997   6.817
29876WAT      O89869   9.802   4.192   7.665
29876WAT     H189870   9.799   4.095   7.690
29876WAT     H289871   9.850   4.243   7.737
29877WAT      O89872   9.306   1.278   7.600
29877WAT     H189873   9.345   1.186   7.607
29877WAT     H289874   9.325   1.329   7.684
29878WAT      O89875   8.041   4.912   2.830
29878WAT     H189876   7.974   4.982   2.850
29878WAT     H289877   8.023   4.873   2.739
29879WAT      O89878   6.174   6.535   3.089
29879WAT     H189879   6.272   6.520   3.083
29879WAT     H289880   6.150   6.620   3.041
29880WAT      O89881   7.011   2.919   3.943
29880WAT     H189882   6.944   2.957   3.879
29880WAT     H289883   7.004   2.968   4.030
29881WAT      O89884   2.121   9.524   4.012
29881WAT     H189885   2.036   9.522   4.064
29881WAT     H289886   2.195   9.556   4.072
29882WAT      O89887   1.927   5.996   2.815
29882WAT     H189888   2.021   5.962   2.822
29882WAT     H289889   1.871   5.954   2.887
29883WAT      O89890   5.580   0.480   2.613
29883WAT     H189891   5.673   0.463   2.581
29883WAT     H289892   5.539   0.394   2.643
29884WAT      O89893   6.963   1.202   2.364
29884WAT     H189894   7.047   1.209   2.310
29884WAT     H289895   6.952   1.108   2.397
29885WAT      O89896   9.282   8.939   1.119
29885WAT     H189897   9.194   8.983   1.136
29885WAT     H289898   9.293   8.924   1.021
29886WAT      O89899   9.676   8.587   0.813
29886WAT     H189900   9.767   8.558   0.841
29886WAT     H289901   9.637   8.647   0.883
29887WAT      O89902   1.031   3.640   9.485
29887WAT     H189903   1.044   3.544   9.510
29887WAT     H289904   1.120   3.680   9.461
29888WAT      O89905   9.525   5.373   5.445
29888WAT     H189906   9.545   5.291   5.498
29888WAT     H289907   9.593   5.384   5.373
29889WAT      O89908   1.408   6.013   4.693
29889WAT     H189909   1.435   5.926   4.652
29889WAT     H289910   1.484   6.078   4.684
29890WAT      O89911   5.729   4.906   2.037
29890WAT     H189912   5.702   4.810   2.038
29890WAT     H289913   5.648   4.964   2.039
29891WAT      O89914   9.838   3.037   5.584
29891WAT     H189915   9.893   2.993   5.513
29891WAT     H289916   9.761   2.977   5.609
29892WAT      O89917   2.550   8.608   6.925
29892WAT     H189918   2.502   8.641   6.843
29892WAT     H289919   2.484   8.597   7.000
29893WAT      O89920   8.870   2.959   6.280
29893WAT     H189921   8.939   2.929   6.214
29893WAT     H289922   8.850   3.056   6.265
29894WAT      O89923   4.490   2.893   1.681
29894WAT     H189924   4.391   2.878   1.675
29894WAT     H289925   4.537   2.806   1.697
29895WAT      O89926   2.552   3.214   8.394
29895WAT     H189927   2.532   3.291   8.333
29895WAT     H289928   2.649   3.214   8.417
29896WAT      O89929   0.801   3.140   3.811
29896WAT     H189930   0.712   3.112   3.847
29896WAT     H289931   0.853   3.058   3.784
29897WAT      O89932   4.511   1.306   8.896
29897WAT     H189933   4.463   1.391   8.873
29897WAT     H289934   4.609   1.325   8.903
29898WAT      O89935   2.885   8.999   9.323
29898WAT     H189936   2.890   8.986   9.224
29898WAT     H289937   2.946   8.934   9.369
29899WAT      O89938   2.524   3.508   3.676
29899WAT     H189939   2.478   3.498   3.764
29899WAT     H289940   2.542   3.605   3.658
29900WAT      O89941   6.438   9.207   5.825
29900WAT     H189942   6.511   9.269   5.854
29900WAT     H289943   6.457   9.173   5.733
29901WAT      O89944   3.743   3.079   0.861
29901WAT     H189945   3.736   3.177   0.839
29901WAT     H289946   3.662   3.050   0.911
29902WAT      O89947   2.412   5.623   9.639
29902WAT     H189948   2.435   5.629   9.736
29902WAT     H289949   2.331   5.565   9.627
29903WAT      O89950   0.794   3.570   0.233
29903WAT     H189951   0.800   3.590   0.330
29903WAT     H289952   0.728   3.497   0.218
29904WAT      O89953   2.389   1.963   1.592
29904WAT     H189954   2.486   1.952   1.611
29904WAT     H289955   2.363   2.059   1.601
29905WAT      O89956   1.810   4.661   2.734
29905WAT     H189957   1.765   4.572   2.740
29905WAT     H289958   1.862   4.665   2.648
29906WAT      O89959   8.432   1.756   7.198
29906WAT     H189960   8.459   1.849   7.221
29906WAT     H289961   8.504   1.711   7.146
29907WAT      O89962   4.726   6.985   8.425
29907WAT     H189963   4.809   6.957   8.473
29907WAT     H289964   4.742   6.982   8.327
29908WAT      O89965   0.425   0.467   1.001
29908WAT     H189966   0.435   0.459   0.902
29908WAT     H289967   0.507   0.510   1.039
29909WAT      O89968   9.589   0.770   2.091
29909WAT     H189969   9.558   0.714   2.168
29909WAT     H289970   9.539   0.744   2.009
29910WAT      O89971   0.588   7.297   9.326
29910WAT     H189972   0.586   7.396   9.312
29910WAT     H289973   0.495   7.265   9.346
29911WAT      O89974   4.529   0.603   6.790
29911WAT     H189975   4.451   0.631   6.734
29911WAT     H289976   4.604   0.576   6.729
29912WAT      O89977   4.755   8.188   6.844
29912WAT     H189978   4.723   8.260   6.783
29912WAT     H289979   4.813   8.227   6.915
29913WAT      O89980   5.712   7.940   2.634
29913WAT     H189981   5.763   7.953   2.719
29913WAT     H289982   5.642   8.012   2.625
29914WAT      O89983   4.869   0.387   4.689
29914WAT     H189984   4.775   0.365   4.715
29914WAT     H289985   4.878   0.385   4.590
29915WAT      O89986   4.123   9.442   8.183
29915WAT     H189987   4.100   9.407   8.092
29915WAT     H289988   4.222   9.457   8.188
29916WAT      O89989   0.436   5.180   5.030
29916WAT     H189990   0.372   5.212   5.101
29916WAT     H289991   0.529   5.210   5.054
29917WAT      O89992   1.122   7.915   7.520
29917WAT     H189993   1.192   7.962   7.573
29917WAT     H289994   1.148   7.820   7.506
29918WAT      O89995   1.046   1.546   4.644
29918WAT     H189996   1.093   1.558   4.732
29918WAT     H289997   1.017   1.451   4.635
29919WAT      O89998   3.894   8.956   7.027
29919WAT     H189999   3.984   8.997   7.036
29919WAT     H290000   3.823   9.025   7.045
29920WAT      O90001   8.032   8.232   5.606
29920WAT     H190002   8.008   8.237   5.509
29920WAT     H290003   7.963   8.179   5.654
29921WAT      O90004   5.486   9.007   7.636
29921WAT     H190005   5.421   9.067   7.589
29921WAT     H290006   5.449   8.915   7.642
29922WAT      O90007   6.818   1.053   6.502
29922WAT     H190008   6.761   0.996   6.562
29922WAT     H290009   6.792   1.037   6.407
29923WAT      O90010   6.279   3.178   7.130
29923WAT     H190011   6.291   3.081   7.107
29923WAT     H290012   6.352   3.207   7.192
29924WAT      O90013   6.323   6.571   5.330
29924WAT     H190014   6.396   6.504   5.341
29924WAT     H290015   6.234   6.525   5.333
29925WAT      O90016   6.886   7.161   0.375
29925WAT     H190017   6.850   7.178   0.467
29925WAT     H290018   6.841   7.082   0.335
29926WAT      O90019   7.367   4.804   0.159
29926WAT     H190020   7.323   4.757   0.082
29926WAT     H290021   7.457   4.836   0.132
29927WAT      O90022   2.432   1.062   2.036
29927WAT     H190023   2.447   1.139   2.097
29927WAT     H290024   2.354   1.008   2.068
29928WAT      O90025   7.860   9.041   7.012
29928WAT     H190026   7.924   9.079   6.945
29928WAT     H290027   7.896   9.054   7.104
29929WAT      O90028   1.346   6.954   1.282
29929WAT     H190029   1.311   6.954   1.375
29929WAT     H290030   1.367   6.861   1.253
29930WAT      O90031   9.803   5.848   9.329
29930WAT     H190032   9.773   5.854   9.234
29930WAT     H290033   9.864   5.769   9.339
29931WAT      O90034   9.670   3.588   9.737
29931WAT     H190035   9.585   3.608   9.786
29931WAT     H290036   9.662   3.620   9.642
29932WAT      O90037   4.817   1.506   7.722
29932WAT     H190038   4.892   1.524   7.786
29932WAT     H290039   4.804   1.585   7.663
29933WAT      O90040   7.719   7.359   0.694
29933WAT     H190041   7.675   7.353   0.783
29933WAT     H290042   7.793   7.426   0.697
29934WAT      O90043   0.649   8.643   7.640
29934WAT     H190044   0.714   8.663   7.567
29934WAT     H290045   0.611   8.729   7.675
29935WAT      O90046   9.664   9.128   9.633
29935WAT     H190047   9.619   9.040   9.647
29935WAT     H290048   9.595   9.200   9.634
29936WAT      O90049   8.848   9.032   6.237
29936WAT     H190050   8.841   9.064   6.331
29936WAT     H290051   8.933   9.064   6.196
29937WAT      O90052   3.865   5.352   8.795
29937WAT     H190053   3.827   5.261   8.809
29937WAT     H290054   3.798   5.421   8.823
29938WAT      O90055   4.780   4.445   1.143
29938WAT     H190056   4.736   4.534   1.134
29938WAT     H290057   4.752   4.402   1.229
29939WAT      O90058   8.828   4.567   3.060
29939WAT     H190059   8.910   4.523   3.021
29939WAT     H290060   8.806   4.524   3.147
29940WAT      O90061   7.727   4.192   7.298
29940WAT     H190062   7.807   4.248   7.278
29940WAT     H290063   7.694   4.211   7.391
29941WAT      O90064   3.663   8.613   8.256
29941WAT     H190065   3.685   8.710   8.257
29941WAT     H290066   3.747   8.559   8.257
29942WAT      O90067   2.881   2.640   5.437
29942WAT     H190068   2.893   2.582   5.356
29942WAT     H290069   2.944   2.717   5.432
29943WAT      O90070   5.900   0.601   4.564
29943WAT     H190071   5.831   0.667   4.594
29943WAT     H290072   5.912   0.608   4.465
29944WAT      O90073   5.565   7.527   9.140
29944WAT     H190074   5.490   7.573   9.188
29944WAT     H290075   5.615   7.469   9.204
29945WAT      O90076   4.198   7.697   8.800
29945WAT     H190077   4.139   7.742   8.733
29945WAT     H290078   4.294   7.713   8.777
29946WAT      O90079   4.710   3.023   1.575
29946WAT     H190080   4.762   2.964   1.513
29946WAT     H290081   4.635   2.971   1.616
29947WAT      O90082   4.990   6.837   7.524
29947WAT     H190083   4.904   6.846   7.474
29947WAT     H290084   4.981   6.877   7.615
29948WAT      O90085   2.372   2.259   4.798
29948WAT     H190086   2.405   2.256   4.893
29948WAT     H290087   2.424   2.193   4.743
29949WAT      O90088   2.567   7.191   3.160
29949WAT     H190089   2.553   7.276   3.211
29949WAT     H290090   2.530   7.115   3.213
29950WAT      O90091   2.828   6.877   3.905
29950WAT     H190092   2.732   6.867   3.879
29950WAT     H290093   2.878   6.796   3.877
29951WAT      O90094   1.071   4.383   7.023
29951WAT     H190095   1.020   4.365   7.107
29951WAT     H290096   1.167   4.400   7.044
29952WAT      O90097   4.895   7.543   5.681
29952WAT     H190098   4.855   7.474   5.622
29952WAT     H290099   4.934   7.617   5.625
29953WAT      O90100   2.393   9.844   1.258
29953WAT     H190101   2.487   9.814   1.246
29953WAT     H290102   2.331   9.767   1.243
29954WAT      O90103   4.779   8.413   3.613
29954WAT     H190104   4.817   8.455   3.695
29954WAT     H290105   4.746   8.485   3.551
29955WAT      O90106   3.765   1.634   0.219
29955WAT     H190107   3.768   1.541   0.182
29955WAT     H290108   3.859   1.665   0.238
29956WAT      O90109   4.796   1.454   5.092
29956WAT     H190110   4.801   1.541   5.041
29956WAT     H290111   4.711   1.407   5.067
29957WAT      O90112   3.273   4.191   6.737
29957WAT     H190113   3.262   4.135   6.654
29957WAT     H290114   3.226   4.147   6.813
29958WAT      O90115   2.200   6.708   0.385
29958WAT     H190116   2.124   6.655   0.347
29958WAT     H290117   2.223   6.783   0.323
29959WAT      O90118   2.657   0.196   4.272
29959WAT     H190119   2.630   0.100   4.264
29959WAT     H290120   2.689   0.214   4.365
29960WAT      O90121   5.558   3.103   8.889
29960WAT     H190122   5.607   3.155   8.819
29960WAT     H290123   5.486   3.159   8.928
29961WAT      O90124   5.838   2.129   1.001
29961WAT     H190125   5.928   2.172   0.994
29961WAT     H290126   5.800   2.146   1.092
29962WAT      O90127   1.354   0.852   9.433
29962WAT     H190128   1.265   0.820   9.400
29962WAT     H290129   1.424   0.835   9.364
29963WAT      O90130   4.785   5.403   6.191
29963WAT     H190131   4.836   5.489   6.185
29963WAT     H290132   4.816   5.352   6.272
29964WAT      O90133   3.227   4.816   7.859
29964WAT     H190134   3.193   4.846   7.948
29964WAT     H290135   3.313   4.864   7.839
29965WAT      O90136   0.009   0.211   3.107
29965WAT     H190137  -0.008   0.114   3.089
29965WAT     H290138  -0.076   0.255   3.133
29966WAT      O90139   2.352   8.577   7.120
29966WAT     H190140   2.341   8.604   7.215
29966WAT     H290141   2.291   8.501   7.099
29967WAT      O90142   3.493   2.555   4.478
29967WAT     H190143   3.452   2.583   4.391
29967WAT     H290144   3.420   2.530   4.542
29968WAT      O90145   3.121   4.361   9.200
29968WAT     H190146   3.073   4.333   9.117
29968WAT     H290147   3.188   4.291   9.225
29969WAT      O90148   3.901   5.923   1.983
29969WAT     H190149   3.991   5.880   1.985
29969WAT     H290150   3.836   5.867   2.034
29970WAT      O90151   4.516   4.594   2.537
29970WAT     H190152   4.511   4.572   2.440
29970WAT     H290153   4.534   4.692   2.548
29971WAT      O90154   9.129   5.147   0.897
29971WAT     H190155   9.164   5.119   0.987
29971WAT     H290156   9.055   5.213   0.910
29972WAT      O90157   8.753   9.074   2.128
29972WAT     H190158   8.658   9.070   2.157
29972WAT     H290159   8.810   9.023   2.192
29973WAT      O90160   2.083   0.872   7.865
29973WAT     H190161   2.014   0.861   7.937
29973WAT     H290162   2.174   0.864   7.905
29974WAT      O90163   3.083   9.827   8.819
29974WAT     H190164   3.054   9.831   8.724
29974WAT     H290165   3.172   9.874   8.829
29975WAT      O90166   2.949   7.840   3.568
29975WAT     H190167   3.000   7.891   3.638
29975WAT     H290168   2.915   7.904   3.499
29976WAT      O90169   7.187   7.724   3.050
29976WAT     H190170   7.158   7.769   2.966
29976WAT     H290171   7.157   7.629   3.049
29977WAT      O90172   3.666   1.021   7.209
29977WAT     H190173   3.677   1.099   7.147
29977WAT     H290174   3.591   0.963   7.176
29978WAT      O90175   3.009   6.512   7.703
29978WAT     H190176   3.038   6.603   7.676
29978WAT     H290177   2.913   6.515   7.733
29979WAT      O90178   9.450   7.757   5.671
29979WAT     H190179   9.471   7.850   5.701
29979WAT     H290180   9.436   7.756   5.572
29980WAT      O90181   0.882   7.135   5.916
29980WAT     H190182   0.978   7.159   5.905
29980WAT     H290183   0.849   7.172   6.003
29981WAT      O90184   9.460   2.173   8.760
29981WAT     H190185   9.424   2.114   8.832
29981WAT     H290186   9.436   2.268   8.779
29982WAT      O90187   5.728   8.326   4.750
29982WAT     H190188   5.793   8.358   4.680
29982WAT     H290189   5.689   8.239   4.721
29983WAT      O90190   1.584   3.442   2.129
29983WAT     H190191   1.486   3.430   2.113
29983WAT     H290192   1.617   3.522   2.078
29984WAT      O90193   8.207   8.300   6.201
29984WAT     H190194   8.273   8.228   6.180
29984WAT     H290195   8.180   8.293   6.297
29985WAT      O90196   4.605   5.569   2.972
29985WAT     H190197   4.635   5.515   2.893
29985WAT     H290198   4.630   5.665   2.958
29986WAT      O90199   0.218   6.236   9.295
29986WAT     H190200   0.153   6.222   9.370
29986WAT     H290201   0.309   6.253   9.333
29987WAT      O90202   9.166   7.714   8.913
29987WAT     H190203   9.244   7.777   8.908
29987WAT     H290204   9.103   7.745   8.984
29988WAT      O90205   9.190   3.643   4.156
29988WAT     H190206   9.129   3.675   4.083
29988WAT     H290207   9.269   3.703   4.164
29989WAT      O90208   7.640   6.714   9.312
29989WAT     H190209   7.561   6.654   9.297
29989WAT     H290210   7.610   6.799   9.356
29990WAT      O90211   3.462   3.233   5.733
29990WAT     H190212   3.539   3.180   5.699
29990WAT     H290213   3.423   3.187   5.813
29991WAT      O90214   4.172   2.828   7.281
29991WAT     H190215   4.126   2.740   7.277
29991WAT     H290216   4.247   2.829   7.214
29992WAT      O90217   3.077   9.608   0.616
29992WAT     H190218   3.102   9.511   0.613
29992WAT     H290219   2.988   9.620   0.572
29993WAT      O90220   7.683   3.319   5.337
29993WAT     H190221   7.684   3.418   5.349
29993WAT     H290222   7.766   3.290   5.289
29994WAT      O90223   1.754   4.300   5.489
29994WAT     H190224   1.686   4.282   5.417
29994WAT     H290225   1.820   4.225   5.492
29995WAT      O90226   2.804   5.520   8.781
29995WAT     H190227   2.768   5.596   8.727
29995WAT     H290228   2.730   5.477   8.833
29996WAT      O90229   8.840   1.203   1.314
29996WAT     H190230   8.796   1.230   1.399
29996WAT     H290231   8.876   1.284   1.268
29997WAT      O90232   0.854   7.834   7.578
29997WAT     H190233   0.926   7.895   7.546
29997WAT     H290234   0.768   7.858   7.532
29998WAT      O90235   5.322   0.727   3.172
29998WAT     H190236   5.244   0.748   3.231
29998WAT     H290237   5.406   0.755   3.218
29999WAT      O90238   5.565   0.139   3.254
29999WAT     H190239   5.488   0.115   3.195
29999WAT     H290240   5.651   0.125   3.204
30000WAT      O90241   4.472   7.424   5.456
30000WAT     H190242   4.520   7.346   5.495
30000WAT     H290243   4.494   7.431   5.358
30001WAT      O90244   5.525   9.312   8.472
30001WAT     H190245   5.580   9.329   8.391
30001WAT     H290246   5.578   9.333   8.554
30002WAT      O90247   9.716   9.782   2.582
30002WAT     H190248   9.746   9.871   2.616
30002WAT     H290249   9.650   9.743   2.646
30003WAT      O90250   8.676   8.497   3.130
30003WAT     H190251   8.750   8.465   3.190
30003WAT     H290252   8.713   8.519   3.040
30004WAT      O90253   5.494   1.251   2.348
30004WAT     H190254   5.447   1.222   2.432
30004WAT     H290255   5.553   1.176   2.316
30005WAT      O90256   8.420   0.205   4.197
30005WAT     H190257   8.407   0.304   4.205
30005WAT     H290258   8.452   0.168   4.284
30006WAT      O90259   2.422   6.940   2.045
30006WAT     H190260   2.425   6.967   1.949
30006WAT     H290261   2.490   6.992   2.096
30007WAT      O90262   4.910   4.642   3.580
30007WAT     H190263   4.920   4.704   3.503
30007WAT     H290264   4.997   4.633   3.628
30008WAT      O90265   1.307   7.483   6.861
30008WAT     H190266   1.310   7.583   6.871
30008WAT     H290267   1.298   7.441   6.951
30009WAT      O90268   3.612   6.360   6.267
30009WAT     H190269   3.664   6.359   6.181
30009WAT     H290270   3.518   6.332   6.248
30010WAT      O90271   1.200   0.062   2.383
30010WAT     H190272   1.182   0.157   2.356
30010WAT     H290273   1.113   0.014   2.395
30011WAT      O90274   3.243   5.524   3.313
30011WAT     H190275   3.249   5.622   3.332
30011WAT     H290276   3.307   5.475   3.372
30012WAT      O90277   1.844   0.461   8.974
30012WAT     H190278   1.880   0.395   8.908
30012WAT     H290279   1.918   0.493   9.033
30013WAT      O90280   1.250   3.991   6.258
30013WAT     H190281   1.258   3.949   6.168
30013WAT     H290282   1.225   3.922   6.326
30014WAT      O90283   0.198   7.282   7.147
30014WAT     H190284   0.275   7.327   7.193
30014WAT     H290285   0.231   7.204   7.094
30015WAT      O90286   0.906   3.010   8.857
30015WAT     H190287   0.913   2.996   8.956
30015WAT     H290288   0.846   2.940   8.818
30016WAT      O90289   8.595   1.011   9.094
30016WAT     H190290   8.626   1.032   9.186
30016WAT     H290291   8.501   1.044   9.082
30017WAT      O90292   1.446   2.350   2.559
30017WAT     H190293   1.459   2.276   2.493
30017WAT     H290294   1.450   2.312   2.652
30018WAT      O90295   4.906   5.009   1.107
30018WAT     H190296   4.940   5.085   1.051
30018WAT     H290297   4.983   4.955   1.141
30019WAT      O90298   8.058   6.029   5.923
30019WAT     H190299   8.036   5.954   5.986
30019WAT     H290300   8.062   6.115   5.974
30020WAT      O90301   0.154   3.758   5.254
30020WAT     H190302   0.082   3.774   5.321
30020WAT     H290303   0.228   3.824   5.267
30021WAT      O90304   9.655   2.522   0.305
30021WAT     H190305   9.635   2.585   0.380
30021WAT     H290306   9.594   2.540   0.228
30022WAT      O90307   9.153   9.122   5.857
30022WAT     H190308   9.087   9.052   5.885
30022WAT     H290309   9.127   9.158   5.767
30023WAT      O90310   4.599   5.094   9.009
30023WAT     H190311   4.697   5.107   8.990
30023WAT     H290312   4.565   5.169   9.065
30024WAT      O90313   8.490   2.991   9.793
30024WAT     H190314   8.542   2.906   9.784
30024WAT     H290315   8.472   3.009   9.890
30025WAT      O90316   1.724   4.200   8.639
30025WAT     H190317   1.754   4.266   8.707
30025WAT     H290318   1.624   4.206   8.629
30026WAT      O90319   3.447   9.402   3.031
30026WAT     H190320   3.527   9.456   3.005
30026WAT     H290321   3.476   9.308   3.053
30027WAT      O90322   5.989   3.783   9.207
30027WAT     H190323   5.958   3.689   9.197
30027WAT     H290324   5.926   3.844   9.159
30028WAT      O90325   8.966   3.561   7.027
30028WAT     H190326   8.905   3.500   7.078
30028WAT     H290327   8.913   3.615   6.962
30029WAT      O90328   1.960   6.905   7.642
30029WAT     H190329   1.960   6.839   7.717
30029WAT     H290330   1.995   6.862   7.559
30030WAT      O90331   5.146   4.863   1.114
30030WAT     H190332   5.157   4.764   1.114
30030WAT     H290333   5.155   4.898   1.207
30031WAT      O90334   1.174   5.323   0.614
30031WAT     H190335   1.111   5.351   0.686
30031WAT     H290336   1.135   5.345   0.525
30032WAT      O90337   0.542   9.590   8.598
30032WAT     H190338   0.574   9.673   8.553
30032WAT     H290339   0.491   9.533   8.533
30033WAT      O90340   7.093   9.032   9.581
30033WAT     H190341   7.159   9.032   9.505
30033WAT     H290342   7.142   9.021   9.667
30034WAT      O90343   8.534   8.860   0.915
30034WAT     H190344   8.629   8.869   0.884
30034WAT     H290345   8.516   8.926   0.988
30035WAT      O90346   7.757   3.726   4.937
30035WAT     H190347   7.771   3.746   5.034
30035WAT     H290348   7.703   3.642   4.929
30036WAT      O90349   9.592   1.215   6.947
30036WAT     H190350   9.559   1.275   6.874
30036WAT     H290351   9.552   1.244   7.034
30037WAT      O90352   2.979   5.734   8.642
30037WAT     H190353   3.030   5.659   8.601
30037WAT     H290354   3.031   5.773   8.718
30038WAT      O90355   5.382   7.271   2.373
30038WAT     H190356   5.337   7.290   2.286
30038WAT     H290357   5.477   7.242   2.356
30039WAT      O90358   0.410   1.925   6.187
30039WAT     H190359   0.509   1.938   6.180
30039WAT     H290360   0.364   1.985   6.122
30040WAT      O90361   5.187   6.625   0.121
30040WAT     H190362   5.181   6.724   0.128
30040WAT     H290363   5.095   6.587   0.116
30041WAT      O90364   4.453   4.574   1.154
30041WAT     H190365   4.413   4.664   1.172
30041WAT     H290366   4.488   4.572   1.060
30042WAT      O90367   0.086   2.150   3.499
30042WAT     H190368   0.171   2.136   3.449
30042WAT     H290369   0.073   2.247   3.518
30043WAT      O90370   3.802   1.159   7.465
30043WAT     H190371   3.772   1.148   7.559
30043WAT     H290372   3.748   1.231   7.421
30044WAT      O90373   5.072   4.478   4.716
30044WAT     H190374   5.024   4.561   4.744
30044WAT     H290375   5.065   4.467   4.617
30045WAT      O90376   9.635   0.604   1.601
30045WAT     H190377   9.668   0.662   1.528
30045WAT     H290378   9.617   0.512   1.566
30046WAT      O90379   4.828   0.659   6.442
30046WAT     H190380   4.917   0.616   6.428
30046WAT     H290381   4.799   0.706   6.359
30047WAT      O90382   6.855   2.781   6.488
30047WAT     H190383   6.765   2.751   6.456
30047WAT     H290384   6.913   2.801   6.409
30048WAT      O90385   1.354   3.670   7.530
30048WAT     H190386   1.418   3.678   7.607
30048WAT     H290387   1.390   3.603   7.464
30049WAT      O90388   9.482   1.082   7.909
30049WAT     H190389   9.561   1.073   7.969
30049WAT     H290390   9.508   1.060   7.815
30050WAT      O90391   1.941   8.298   1.007
30050WAT     H190392   2.037   8.326   1.010
30050WAT     H290393   1.935   8.208   0.964
30051WAT      O90394   4.868   0.030   6.052
30051WAT     H190395   4.951   0.085   6.037
30051WAT     H290396   4.880  -0.061   6.013
30052WAT      O90397   6.240   9.475   3.413
30052WAT     H190398   6.206   9.548   3.354
30052WAT     H290399   6.329   9.443   3.378
30053WAT      O90400   8.846   6.040   3.956
30053WAT     H190401   8.885   5.971   3.895
30053WAT     H290402   8.912   6.061   4.029
30054WAT      O90403   4.973   6.969   2.807
30054WAT     H190404   5.010   6.937   2.894
30054WAT     H290405   4.917   6.897   2.766
30055WAT      O90406   0.569   6.044   4.752
30055WAT     H190407   0.636   5.970   4.758
30055WAT     H290408   0.577   6.089   4.663
30056WAT      O90409   7.014   5.204   2.401
30056WAT     H190410   7.108   5.172   2.384
30056WAT     H290411   6.975   5.153   2.478
30057WAT      O90412   5.750   0.741   7.246
30057WAT     H190413   5.758   0.734   7.346
30057WAT     H290414   5.660   0.778   7.223
30058WAT      O90415   4.498   2.420   4.706
30058WAT     H190416   4.488   2.351   4.778
30058WAT     H290417   4.484   2.377   4.617
30059WAT      O90418   9.353   7.908   8.866
30059WAT     H190419   9.452   7.912   8.854
30059WAT     H290420   9.309   7.982   8.816
30060WAT      O90421   2.271   2.062   6.352
30060WAT     H190422   2.354   2.073   6.299
30060WAT     H290423   2.215   2.145   6.345
30061WAT      O90424   4.212   5.209   8.110
30061WAT     H190425   4.286   5.147   8.082
30061WAT     H290426   4.245   5.303   8.112
30062WAT      O90427   9.653   2.905   2.851
30062WAT     H190428   9.700   2.864   2.772
30062WAT     H290429   9.646   3.004   2.839
30063WAT      O90430   5.951   5.887   2.254
30063WAT     H190431   6.033   5.942   2.237
30063WAT     H290432   5.892   5.933   2.320
30064WAT      O90433   5.514   7.888   1.384
30064WAT     H190434   5.422   7.856   1.403
30064WAT     H290435   5.576   7.809   1.375
30065WAT      O90436   0.909   5.891   0.317
30065WAT     H190437   0.932   5.983   0.288
30065WAT     H290438   0.871   5.839   0.240
30066WAT      O90439   1.068   7.335   0.566
30066WAT     H190440   1.011   7.416   0.581
30066WAT     H290441   1.010   7.257   0.542
30067WAT      O90442   7.103   6.026   8.870
30067WAT     H190443   7.160   6.054   8.792
30067WAT     H290444   7.040   5.954   8.840
30068WAT      O90445   2.132   7.833   2.372
30068WAT     H190446   2.211   7.796   2.421
30068WAT     H290447   2.103   7.919   2.415
30069WAT      O90448   7.342   2.421   8.212
30069WAT     H190449   7.391   2.341   8.176
30069WAT     H290450   7.263   2.441   8.154
30070WAT      O90451   8.306   6.998   7.519
30070WAT     H190452   8.244   6.927   7.553
30070WAT     H290453   8.395   6.957   7.500
30071WAT      O90454   4.261   5.222   3.891
30071WAT     H190455   4.326   5.288   3.854
30071WAT     H290456   4.311   5.154   3.946
30072WAT      O90457   9.148   2.447   2.305
30072WAT     H190458   9.063   2.474   2.351
30072WAT     H290459   9.129   2.432   2.208
30073WAT      O90460   7.051   7.446   2.301
30073WAT     H190461   6.963   7.475   2.340
30073WAT     H290462   7.034   7.372   2.235
30074WAT      O90463   7.790   0.902   3.327
30074WAT     H190464   7.877   0.950   3.335
30074WAT     H290465   7.761   0.900   3.231
30075WAT      O90466   9.101   4.192   4.536
30075WAT     H190467   9.075   4.180   4.440
30075WAT     H290468   9.054   4.124   4.593
30076WAT      O90469   2.413   1.739   1.433
30076WAT     H190470   2.503   1.696   1.424
30076WAT     H290471   2.415   1.804   1.509
30077WAT      O90472   6.560   8.621   1.082
30077WAT     H190473   6.531   8.717   1.073
30077WAT     H290474   6.588   8.604   1.176
30078WAT      O90475   1.997   5.928   5.279
30078WAT     H190476   1.995   6.012   5.334
30078WAT     H290477   1.908   5.915   5.235
30079WAT      O90478   8.555   7.845   3.244
30079WAT     H190479   8.555   7.745   3.238
30079WAT     H290480   8.534   7.873   3.337
30080WAT      O90481   0.483   6.938   3.526
30080WAT     H190482   0.557   6.989   3.483
30080WAT     H290483   0.507   6.918   3.621
30081WAT      O90484   2.201   0.303   7.919
30081WAT     H190485   2.296   0.334   7.913
30081WAT     H290486   2.169   0.276   7.829
30082WAT      O90487   2.859   4.518   6.073
30082WAT     H190488   2.779   4.463   6.050
30082WAT     H290489   2.894   4.562   5.990
30083WAT      O90490   8.828   0.212   3.614
30083WAT     H190491   8.798   0.169   3.699
30083WAT     H290492   8.898   0.279   3.634
30084WAT      O90493   5.649   9.193   9.204
30084WAT     H190494   5.705   9.185   9.121
30084WAT     H290495   5.683   9.130   9.274
30085WAT      O90496   3.763   7.188   1.145
30085WAT     H190497   3.735   7.221   1.236
30085WAT     H290498   3.686   7.198   1.082
30086WAT      O90499   8.928   4.150   3.668
30086WAT     H190500   8.923   4.241   3.628
30086WAT     H290501   8.919   4.158   3.768
30087WAT      O90502   4.928   9.101   0.006
30087WAT     H190503   4.905   9.004  -0.005
30087WAT     H290504   4.978   9.133  -0.074
30088WAT      O90505   9.779   1.502   1.075
30088WAT     H190506   9.776   1.402   1.076
30088WAT     H290507   9.730   1.538   1.155
30089WAT      O90508   5.621   4.306   8.848
30089WAT     H190509   5.572   4.392   8.859
30089WAT     H290510   5.570   4.233   8.893
30090WAT      O90511   4.263   0.012   8.067
30090WAT     H190512   4.173   0.054   8.049
30090WAT     H290513   4.296   0.043   8.156
30091WAT      O90514   5.757   3.714   7.468
30091WAT     H190515   5.719   3.667   7.388
30091WAT     H290516   5.733   3.663   7.551
30092WAT      O90517   9.151   8.030   9.368
30092WAT     H190518   9.188   8.059   9.456
30092WAT     H290519   9.220   8.043   9.296
30093WAT      O90520   5.576   2.026   9.448
30093WAT     H190521   5.635   2.053   9.372
30093WAT     H290522   5.506   1.963   9.416
30094WAT      O90523   6.874   8.955   6.359
30094WAT     H190524   6.824   8.875   6.393
30094WAT     H290525   6.853   8.968   6.262
30095WAT      O90526   0.207   1.045   3.130
30095WAT     H190527   0.184   1.012   3.038
30095WAT     H290528   0.193   0.972   3.196
30096WAT      O90529   3.354   6.445   1.002
30096WAT     H190530   3.380   6.505   0.927
30096WAT     H290531   3.388   6.483   1.088
30097WAT      O90532   4.310   2.717   4.407
30097WAT     H190533   4.376   2.651   4.371
30097WAT     H290534   4.235   2.668   4.451
30098WAT      O90535   1.926   4.838   8.720
30098WAT     H190536   1.961   4.910   8.779
30098WAT     H290537   1.910   4.874   8.628
30099WAT      O90538   0.426   1.683   7.467
30099WAT     H190539   0.337   1.728   7.458
30099WAT     H290540   0.496   1.735   7.419
30100WAT      O90541   4.714   9.382   8.411
30100WAT     H190542   4.807   9.373   8.446
30100WAT     H290543   4.658   9.305   8.442
30101WAT      O90544   2.796   2.363   5.526
30101WAT     H190545   2.776   2.303   5.448
30101WAT     H290546   2.826   2.452   5.492
30102WAT      O90547   8.129   9.754   6.512
30102WAT     H190548   8.125   9.690   6.435
30102WAT     H290549   8.199   9.823   6.494
30103WAT      O90550   4.674   1.334   2.218
30103WAT     H190551   4.621   1.409   2.178
30103WAT     H290552   4.756   1.318   2.163
30104WAT      O90553   0.763   7.710   9.472
30104WAT     H190554   0.840   7.768   9.500
30104WAT     H290555   0.724   7.666   9.553
30105WAT      O90556   2.576   5.940   3.674
30105WAT     H190557   2.510   5.867   3.690
30105WAT     H290558   2.560   6.014   3.739
30106WAT      O90559   0.224   6.122   4.059
30106WAT     H190560   0.149   6.183   4.085
30106WAT     H290561   0.271   6.089   4.141
30107WAT      O90562   5.183   9.223   6.851
30107WAT     H190563   5.270   9.246   6.807
30107WAT     H290564   5.199   9.162   6.928
30108WAT      O90565   1.418   1.189   1.863
30108WAT     H190566   1.391   1.248   1.786
30108WAT     H290567   1.504   1.144   1.842
30109WAT      O90568   4.740   6.279   0.564
30109WAT     H190569   4.746   6.333   0.648
30109WAT     H290570   4.683   6.328   0.498
30110WAT      O90571   2.707   2.287   7.037
30110WAT     H190572   2.639   2.359   7.048
30110WAT     H290573   2.799   2.326   7.044
30111WAT      O90574   8.300   3.441   5.978
30111WAT     H190575   8.400   3.441   5.980
30111WAT     H290576   8.268   3.492   5.899
30112WAT      O90577   9.514   4.699   7.808
30112WAT     H190578   9.440   4.755   7.846
30112WAT     H290579   9.519   4.613   7.859
30113WAT      O90580   2.086   1.670   8.922
30113WAT     H190581   2.145   1.747   8.946
30113WAT     H290582   1.990   1.700   8.923
30114WAT      O90583   9.864   9.786   1.066
30114WAT     H190584   9.823   9.766   1.155
30114WAT     H290585   9.833   9.719   0.999
30115WAT      O90586   7.208   1.964   0.158
30115WAT     H190587   7.127   2.015   0.127
30115WAT     H290588   7.289   2.022   0.149
30116WAT      O90589   0.180   8.157   5.381
30116WAT     H190590   0.114   8.227   5.353
30116WAT     H290591   0.211   8.176   5.474
30117WAT      O90592   5.793   6.411   1.681
30117WAT     H190593   5.818   6.317   1.702
30117WAT     H290594   5.781   6.422   1.582
30118WAT      O90595   8.769   6.488   6.000
30118WAT     H190596   8.815   6.485   6.089
30118WAT     H290597   8.788   6.403   5.950
30119WAT      O90598   4.558   6.463   5.489
30119WAT     H190599   4.576   6.411   5.572
30119WAT     H290600   4.475   6.430   5.445
30120WAT      O90601   6.296   9.634   8.754
30120WAT     H190602   6.369   9.596   8.811
30120WAT     H290603   6.250   9.707   8.804
30121WAT      O90604   6.282   7.702   3.525
30121WAT     H190605   6.256   7.737   3.435
30121WAT     H290606   6.203   7.660   3.569
30122WAT      O90607   7.632   8.134   0.121
30122WAT     H190608   7.683   8.095   0.199
30122WAT     H290609   7.561   8.195   0.155
30123WAT      O90610   5.359   1.389   6.003
30123WAT     H190611   5.442   1.336   5.986
30123WAT     H290612   5.344   1.453   5.928
30124WAT      O90613   2.318   1.233   6.687
30124WAT     H190614   2.356   1.322   6.660
30124WAT     H290615   2.244   1.208   6.625
30125WAT      O90616   6.199   2.843   8.891
30125WAT     H190617   6.104   2.838   8.920
30125WAT     H290618   6.259   2.817   8.967
30126WAT      O90619   6.928   3.885   0.677
30126WAT     H190620   6.891   3.832   0.753
30126WAT     H290621   6.924   3.982   0.698
30127WAT      O90622   1.757   5.306   8.223
30127WAT     H190623   1.718   5.380   8.278
30127WAT     H290624   1.822   5.345   8.158
30128WAT      O90625   8.995   5.001   2.748
30128WAT     H190626   8.967   4.909   2.774
30128WAT     H290627   9.075   4.996   2.689
30129WAT      O90628   1.306   9.734   1.410
30129WAT     H190629   1.329   9.791   1.489
30129WAT     H290630   1.236   9.668   1.436
30130WAT      O90631   8.761   7.817   4.967
30130WAT     H190632   8.739   7.770   4.882
30130WAT     H290633   8.861   7.822   4.977
30131WAT      O90634   9.690   5.170   7.368
30131WAT     H190635   9.598   5.181   7.405
30131WAT     H290636   9.755   5.157   7.443
30132WAT      O90637   4.442   6.712   2.850
30132WAT     H190638   4.538   6.725   2.824
30132WAT     H290639   4.383   6.739   2.774
30133WAT      O90640   9.161   0.386   8.120
30133WAT     H190641   9.065   0.384   8.093
30133WAT     H290642   9.167   0.401   8.219
30134WAT      O90643   6.011   1.005   5.575
30134WAT     H190644   5.942   0.978   5.508
30134WAT     H290645   6.102   0.993   5.536
30135WAT      O90646   9.851   7.744   5.878
30135WAT     H190647   9.805   7.693   5.805
30135WAT     H290648   9.924   7.800   5.839
30136WAT      O90649   9.776   6.198   2.521
30136WAT     H190650   9.768   6.121   2.459
30136WAT     H290651   9.860   6.188   2.575
30137WAT      O90652   8.947   2.222   0.719
30137WAT     H190653   8.947   2.322   0.724
30137WAT     H290654   8.985   2.193   0.631
30138WAT      O90655   7.304   9.015   9.419
30138WAT     H190656   7.380   9.073   9.450
30138WAT     H290657   7.315   8.995   9.322
30139WAT      O90658   1.261   4.902   7.202
30139WAT     H190659   1.170   4.861   7.189
30139WAT     H290660   1.314   4.844   7.264
30140WAT      O90661   4.000   4.144   5.159
30140WAT     H190662   3.963   4.143   5.066
30140WAT     H290663   3.962   4.067   5.210
30141WAT      O90664   7.432   2.279   9.081
30141WAT     H190665   7.431   2.186   9.118
30141WAT     H290666   7.356   2.290   9.017
30142WAT      O90667   9.320   0.568   3.349
30142WAT     H190668   9.341   0.644   3.287
30142WAT     H290669   9.269   0.601   3.427
30143WAT      O90670   4.882   0.080   8.421
30143WAT     H190671   4.805   0.139   8.398
30143WAT     H290672   4.968   0.129   8.404
30144WAT      O90673   3.715   4.464   6.710
30144WAT     H190674   3.797   4.417   6.741
30144WAT     H290675   3.642   4.397   6.694
30145WAT      O90676   2.489   3.135   2.347
30145WAT     H190677   2.458   3.041   2.329
30145WAT     H290678   2.461   3.194   2.272
30146WAT      O90679   8.352   7.720   7.003
30146WAT     H190680   8.397   7.788   6.947
30146WAT     H290681   8.253   7.725   6.989
30147WAT      O90682   3.544   5.918   2.218
30147WAT     H190683   3.528   5.909   2.120
30147WAT     H290684   3.596   6.002   2.235
30148WAT      O90685   4.246   5.140   2.936
30148WAT     H190686   4.243   5.205   2.859
30148WAT     H290687   4.163   5.150   2.991
30149WAT      O90688   1.971   8.120   3.384
30149WAT     H190689   2.035   8.194   3.367
30149WAT     H290690   1.976   8.053   3.310
30150WAT      O90691   7.179   7.957   4.116
30150WAT     H190692   7.141   8.025   4.178
30150WAT     H290693   7.106   7.896   4.084
30151WAT      O90694   6.884   7.885   5.166
30151WAT     H190695   6.914   7.968   5.214
30151WAT     H290696   6.922   7.804   5.211
30152WAT      O90697   9.309   2.372   8.034
30152WAT     H190698   9.253   2.295   8.063
30152WAT     H290699   9.403   2.358   8.064
30153WAT      O90700   5.906   1.314   0.574
30153WAT     H190701   5.952   1.310   0.663
30153WAT     H290702   5.918   1.404   0.533
30154WAT      O90703   2.942   1.976   7.655
30154WAT     H190704   2.883   2.005   7.731
30154WAT     H290705   2.893   1.987   7.569
30155WAT      O90706   4.591   7.707   0.995
30155WAT     H190707   4.615   7.715   1.091
30155WAT     H290708   4.510   7.648   0.985
30156WAT      O90709   6.463   0.727   8.551
30156WAT     H190710   6.547   0.695   8.594
30156WAT     H290711   6.425   0.802   8.605
30157WAT      O90712   1.691   7.834   3.506
30157WAT     H190713   1.667   7.737   3.505
30157WAT     H290714   1.645   7.879   3.581
30158WAT      O90715   9.721   2.796   2.603
30158WAT     H190716   9.727   2.711   2.656
30158WAT     H290717   9.813   2.822   2.572
30159WAT      O90718   5.522   0.960   3.898
30159WAT     H190719   5.507   0.868   3.935
30159WAT     H290720   5.546   0.952   3.801
30160WAT      O90721   6.367   1.256   3.898
30160WAT     H190722   6.291   1.321   3.899
30160WAT     H290723   6.432   1.281   3.826
30161WAT      O90724   0.577   5.059   3.857
30161WAT     H190725   0.590   4.977   3.912
30161WAT     H290726   0.664   5.107   3.847
30162WAT      O90727   8.407   0.963   0.314
30162WAT     H190728   8.326   0.978   0.371
30162WAT     H290729   8.459   0.885   0.349
30163WAT      O90730   4.083   0.585   4.931
30163WAT     H190731   4.092   0.657   4.863
30163WAT     H290732   4.100   0.623   5.022
30164WAT      O90733   9.324   8.197   1.523
30164WAT     H190734   9.381   8.271   1.559
30164WAT     H290735   9.371   8.153   1.446
30165WAT      O90736   9.597   6.260   0.179
30165WAT     H190737   9.689   6.298   0.183
30165WAT     H290738   9.602   6.161   0.167
30166WAT      O90739   4.179   1.849   4.725
30166WAT     H190740   4.209   1.834   4.819
30166WAT     H290741   4.248   1.902   4.676
30167WAT      O90742   2.532   9.280   8.979
30167WAT     H190743   2.578   9.203   8.935
30167WAT     H290744   2.529   9.266   9.077
30168WAT      O90745   5.556   8.036   7.752
30168WAT     H190746   5.522   7.942   7.755
30168WAT     H290747   5.536   8.081   7.839
30169WAT      O90748   8.221   3.597   5.123
30169WAT     H190749   8.287   3.669   5.143
30169WAT     H290750   8.217   3.583   5.024
30170WAT      O90751   8.053   9.232   7.676
30170WAT     H190752   8.131   9.170   7.686
30170WAT     H290753   8.074   9.319   7.720
30171WAT      O90754   7.363   2.478   7.413
30171WAT     H190755   7.379   2.463   7.315
30171WAT     H290756   7.355   2.576   7.431
30172WAT      O90757   5.288   8.216   6.092
30172WAT     H190758   5.252   8.296   6.140
30172WAT     H290759   5.293   8.138   6.154
30173WAT      O90760   7.782   9.398   3.138
30173WAT     H190761   7.824   9.311   3.113
30173WAT     H290762   7.772   9.403   3.237
30174WAT      O90763   6.339   8.774   9.761
30174WAT     H190764   6.386   8.753   9.675
30174WAT     H290765   6.304   8.867   9.758
30175WAT      O90766   3.611   3.234   1.933
30175WAT     H190767   3.705   3.265   1.922
30175WAT     H290768   3.608   3.134   1.929
30176WAT      O90769   8.237   3.516   0.544
30176WAT     H190770   8.300   3.452   0.589
30176WAT     H290771   8.146   3.474   0.538
30177WAT      O90772   2.653   0.646   8.776
30177WAT     H190773   2.702   0.731   8.795
30177WAT     H290774   2.685   0.609   8.688
30178WAT      O90775   2.768   8.486   1.360
30178WAT     H190776   2.718   8.438   1.432
30178WAT     H290777   2.851   8.527   1.397
30179WAT      O90778   7.567   7.502   6.762
30179WAT     H190779   7.579   7.586   6.710
30179WAT     H290780   7.602   7.425   6.709
30180WAT      O90781   7.738   8.934   4.546
30180WAT     H190782   7.760   9.000   4.618
30180WAT     H290783   7.651   8.890   4.567
30181WAT      O90784   8.668   9.064   9.315
30181WAT     H190785   8.604   9.109   9.254
30181WAT     H290786   8.676   9.116   9.400
30182WAT      O90787   3.358   0.485   6.447
30182WAT     H190788   3.441   0.429   6.438
30182WAT     H290789   3.372   0.573   6.400
30183WAT      O90790   1.088   7.918   1.781
30183WAT     H190791   1.104   7.987   1.711
30183WAT     H290792   0.991   7.896   1.785
30184WAT      O90793   5.718   5.361   3.398
30184WAT     H190794   5.732   5.403   3.308
30184WAT     H290795   5.803   5.321   3.430
30185WAT      O90796   2.484   6.567   4.280
30185WAT     H190797   2.452   6.566   4.375
30185WAT     H290798   2.416   6.612   4.222
30186WAT      O90799   9.214   4.822   2.538
30186WAT     H190800   9.196   4.789   2.631
30186WAT     H290801   9.235   4.920   2.541
30187WAT      O90802   8.214   1.650   7.326
30187WAT     H190803   8.303   1.680   7.294
30187WAT     H290804   8.215   1.643   7.426
30188WAT      O90805   2.469   1.427   1.672
30188WAT     H190806   2.524   1.501   1.710
30188WAT     H290807   2.372   1.451   1.678
30189WAT      O90808   2.483   8.521   5.958
30189WAT     H190809   2.549   8.534   5.884
30189WAT     H290810   2.508   8.439   6.010
30190WAT      O90811   7.512   5.896   6.259
30190WAT     H190812   7.484   5.990   6.281
30190WAT     H290813   7.440   5.851   6.208
30191WAT      O90814   9.183   1.231   9.366
30191WAT     H190815   9.182   1.331   9.376
30191WAT     H290816   9.149   1.207   9.275
30192WAT      O90817   1.875   2.222   6.848
30192WAT     H190818   1.848   2.155   6.779
30192WAT     H290819   1.924   2.176   6.922
30193WAT      O90820   6.105   4.956   1.812
30193WAT     H190821   6.010   4.926   1.812
30193WAT     H290822   6.165   4.876   1.808
30194WAT      O90823   7.814   8.723   2.982
30194WAT     H190824   7.723   8.720   3.024
30194WAT     H290825   7.884   8.705   3.052
30195WAT      O90826   1.105   3.919   3.078
30195WAT     H190827   1.049   3.958   3.006
30195WAT     H290828   1.063   3.937   3.167
30196WAT      O90829   2.213   7.095   0.794
30196WAT     H190830   2.254   7.147   0.869
30196WAT     H290831   2.119   7.070   0.819
30197WAT      O90832   4.178   8.575   4.645
30197WAT     H190833   4.114   8.651   4.631
30197WAT     H290834   4.271   8.608   4.633
30198WAT      O90835   0.701   7.933   1.997
30198WAT     H190836   0.797   7.907   1.984
30198WAT     H290837   0.676   8.001   1.928
30199WAT      O90838   5.463   7.633   6.915
30199WAT     H190839   5.393   7.697   6.945
30199WAT     H290840   5.537   7.629   6.982
30200WAT      O90841   9.199   0.051   9.682
30200WAT     H190842   9.120   0.027   9.739
30200WAT     H290843   9.191   0.146   9.653
30201WAT      O90844   4.607   3.469   7.787
30201WAT     H190845   4.660   3.411   7.850
30201WAT     H290846   4.649   3.464   7.696
30202WAT      O90847   1.852   7.747   1.867
30202WAT     H190848   1.780   7.677   1.860
30202WAT     H290849   1.813   7.830   1.907
30203WAT      O90850   0.604   6.506   8.756
30203WAT     H190851   0.685   6.536   8.705
30203WAT     H290852   0.572   6.580   8.815
30204WAT      O90853   1.081   6.500   1.787
30204WAT     H190854   1.064   6.498   1.688
30204WAT     H290855   1.057   6.590   1.823
30205WAT      O90856   9.738   8.919   6.667
30205WAT     H190857   9.727   8.960   6.577
30205WAT     H290858   9.699   8.980   6.736
30206WAT      O90859   5.805   1.541   3.521
30206WAT     H190860   5.890   1.497   3.492
30206WAT     H290861   5.787   1.518   3.617
30207WAT      O90862   4.882   2.531   8.255
30207WAT     H190863   4.843   2.613   8.213
30207WAT     H290864   4.819   2.497   8.325
30208WAT      O90865   2.220   2.033   5.051
30208WAT     H190866   2.147   1.977   5.089
30208WAT     H290867   2.196   2.058   4.957
30209WAT      O90868   8.198   7.197   3.907
30209WAT     H190869   8.267   7.269   3.899
30209WAT     H290870   8.132   7.207   3.832
30210WAT      O90871   7.407   2.901   2.310
30210WAT     H190872   7.453   2.850   2.237
30210WAT     H290873   7.469   2.971   2.346
30211WAT      O90874   4.246   3.251   2.901
30211WAT     H190875   4.153   3.251   2.936
30211WAT     H290876   4.296   3.328   2.940
30212WAT      O90877   1.435   8.395   7.843
30212WAT     H190878   1.390   8.436   7.764
30212WAT     H290879   1.521   8.352   7.813
30213WAT      O90880   3.848   3.173   7.524
30213WAT     H190881   3.859   3.118   7.441
30213WAT     H290882   3.935   3.176   7.574
30214WAT      O90883   6.440   4.206   0.303
30214WAT     H190884   6.496   4.260   0.366
30214WAT     H290885   6.449   4.242   0.210
30215WAT      O90886   6.813   9.456   1.697
30215WAT     H190887   6.736   9.490   1.751
30215WAT     H290888   6.787   9.452   1.600
30216WAT      O90889   0.861   7.957   3.903
30216WAT     H190890   0.916   7.875   3.920
30216WAT     H290891   0.784   7.934   3.844
30217WAT      O90892   3.106   3.788   3.535
30217WAT     H190893   3.038   3.726   3.496
30217WAT     H290894   3.156   3.834   3.461
30218WAT      O90895   7.610   6.342   3.312
30218WAT     H190896   7.690   6.291   3.281
30218WAT     H290897   7.635   6.437   3.329
30219WAT      O90898   2.967   2.623   0.924
30219WAT     H190899   2.953   2.559   0.850
30219WAT     H290900   2.934   2.584   1.010
30220WAT      O90901   5.521   2.561   1.178
30220WAT     H190902   5.585   2.504   1.126
30220WAT     H290903   5.437   2.572   1.125
30221WAT      O90904   1.668   0.332   6.561
30221WAT     H190905   1.719   0.326   6.475
30221WAT     H290906   1.665   0.242   6.603
30222WAT      O90907   7.460   7.120   1.709
30222WAT     H190908   7.422   7.042   1.660
30222WAT     H290909   7.493   7.188   1.644
30223WAT      O90910   1.533   2.014   3.471
30223WAT     H190911   1.615   2.005   3.528
30223WAT     H290912   1.485   1.927   3.467
30224WAT      O90913   7.683   8.500   1.497
30224WAT     H190914   7.625   8.443   1.555
30224WAT     H290915   7.659   8.596   1.509
30225WAT      O90916   9.508   4.452   6.538
30225WAT     H190917   9.569   4.471   6.461
30225WAT     H290918   9.413   4.460   6.508
30226WAT      O90919   6.441   4.119   8.429
30226WAT     H190920   6.448   4.166   8.341
30226WAT     H290921   6.357   4.149   8.476
30227WAT      O90922   9.258   2.273   3.081
30227WAT     H190923   9.297   2.362   3.061
30227WAT     H290924   9.262   2.215   3.000
30228WAT      O90925   7.293   9.176   7.897
30228WAT     H190926   7.244   9.227   7.827
30228WAT     H290927   7.313   9.235   7.975
30229WAT      O90928   1.851   0.136   7.103
30229WAT     H190929   1.793   0.129   7.184
30229WAT     H290930   1.872   0.232   7.085
30230WAT      O90931   2.923   4.684   5.865
30230WAT     H190932   2.895   4.778   5.883
30230WAT     H290933   2.876   4.651   5.783
30231WAT      O90934   9.584   5.297   4.012
30231WAT     H190935   9.679   5.326   4.008
30231WAT     H290936   9.526   5.366   3.969
30232WAT      O90937   7.556   4.686   9.584
30232WAT     H190938   7.497   4.626   9.638
30232WAT     H290939   7.625   4.631   9.537
30233WAT      O90940   7.803   2.232   3.207
30233WAT     H190941   7.784   2.142   3.168
30233WAT     H290942   7.760   2.302   3.150
30234WAT      O90943   1.664   1.960   9.418
30234WAT     H190944   1.750   1.994   9.456
30234WAT     H290945   1.644   1.870   9.456
30235WAT      O90946   3.052   1.807   0.689
30235WAT     H190947   3.141   1.835   0.724
30235WAT     H290948   3.061   1.772   0.596
30236WAT      O90949   2.462   7.050   2.486
30236WAT     H190950   2.415   7.002   2.412
30236WAT     H290951   2.533   6.990   2.524
30237WAT      O90952   0.502   2.532   5.849
30237WAT     H190953   0.513   2.620   5.802
30237WAT     H290954   0.415   2.532   5.898
30238WAT      O90955   2.394   8.410   0.414
30238WAT     H190956   2.477   8.379   0.367
30238WAT     H290957   2.347   8.477   0.358
30239WAT      O90958   2.429   3.941   5.528
30239WAT     H190959   2.499   3.935   5.457
30239WAT     H290960   2.445   3.870   5.597
30240WAT      O90961   0.260   7.893   6.736
30240WAT     H190962   0.303   7.981   6.716
30240WAT     H290963   0.248   7.842   6.651
30241WAT      O90964   6.625   3.778   0.261
30241WAT     H190965   6.724   3.763   0.260
30241WAT     H290966   6.577   3.691   0.249
30242WAT      O90967   8.491   2.665   2.056
30242WAT     H190968   8.570   2.662   1.995
30242WAT     H290969   8.415   2.711   2.010
30243WAT      O90970   7.078   5.326   6.223
30243WAT     H190971   7.088   5.268   6.304
30243WAT     H290972   7.152   5.305   6.158
30244WAT      O90973   5.776   3.502   2.368
30244WAT     H190974   5.792   3.569   2.296
30244WAT     H290975   5.754   3.414   2.328
30245WAT      O90976   4.930   2.985   2.834
30245WAT     H190977   5.014   2.997   2.782
30245WAT     H290978   4.940   3.025   2.925
30246WAT      O90979   1.566   3.944   1.327
30246WAT     H190980   1.508   4.018   1.360
30246WAT     H290981   1.644   3.983   1.278
30247WAT      O90982   8.915   8.715   0.504
30247WAT     H190983   8.900   8.796   0.562
30247WAT     H290984   8.872   8.730   0.415
30248WAT      O90985   5.085   7.141   8.127
30248WAT     H190986   5.116   7.233   8.152
30248WAT     H290987   5.055   7.141   8.032
30249WAT      O90988   8.373   6.710   6.568
30249WAT     H190989   8.277   6.738   6.564
30249WAT     H290990   8.379   6.613   6.588
30250WAT      O90991   3.828   0.428   0.231
30250WAT     H190992   3.790   0.337   0.221
30250WAT     H290993   3.915   0.434   0.181
30251WAT      O90994   9.845   3.950   2.133
30251WAT     H190995   9.873   3.993   2.218
30251WAT     H290996   9.882   4.001   2.056
30252WAT      O90997   6.556   3.178   6.400
30252WAT     H190998   6.499   3.205   6.323
30252WAT     H290999   6.605   3.258   6.434
30253WAT      O91000   7.277   0.509   2.333
30253WAT     H191001   7.222   0.442   2.283
30253WAT     H291002   7.237   0.525   2.423
30254WAT      O91003   3.484   5.628   7.394
30254WAT     H191004   3.519   5.637   7.487
30254WAT     H291005   3.560   5.627   7.330
30255WAT      O91006   9.444   0.988   5.069
30255WAT     H191007   9.529   0.994   5.018
30255WAT     H291008   9.379   0.930   5.019
30256WAT      O91009   7.714   2.981   6.773
30256WAT     H191010   7.765   2.923   6.836
30256WAT     H291011   7.749   2.967   6.680
30257WAT      O91012   2.631   2.448   5.193
30257WAT     H191013   2.630   2.539   5.153
30257WAT     H291014   2.573   2.387   5.139
30258WAT      O91015   5.426   4.000   7.387
30258WAT     H191016   5.370   3.979   7.468
30258WAT     H291017   5.373   3.981   7.304
30259WAT      O91018   2.872   4.700   6.741
30259WAT     H191019   2.843   4.664   6.652
30259WAT     H291020   2.842   4.795   6.750
30260WAT      O91021   7.306   2.228   5.550
30260WAT     H191022   7.229   2.189   5.600
30260WAT     H291023   7.388   2.172   5.565
30261WAT      O91024   6.833   8.969   9.603
30261WAT     H191025   6.840   8.934   9.696
30261WAT     H291026   6.918   9.013   9.577
30262WAT      O91027   2.006   6.363   6.691
30262WAT     H191028   1.931   6.414   6.733
30262WAT     H291029   2.017   6.393   6.596
30263WAT      O91030   3.159   8.076   0.466
30263WAT     H191031   3.113   8.156   0.506
30263WAT     H291032   3.109   8.046   0.385
30264WAT      O91033   3.496   7.551   6.349
30264WAT     H191034   3.479   7.622   6.281
30264WAT     H291035   3.584   7.568   6.394
30265WAT      O91036   5.902   5.964   7.476
30265WAT     H191037   5.866   5.999   7.563
30265WAT     H291038   5.935   5.870   7.489
30266WAT      O91039   6.824   4.261   2.393
30266WAT     H191040   6.866   4.328   2.331
30266WAT     H291041   6.728   4.249   2.367
30267WAT      O91042   0.235   5.422   0.974
30267WAT     H191043   0.257   5.334   1.016
30267WAT     H291044   0.212   5.407   0.878
30268WAT      O91045   3.379   4.644   7.264
30268WAT     H191046   3.330   4.576   7.209
30268WAT     H291047   3.359   4.736   7.229
30269WAT      O91048   0.977   7.598   3.054
30269WAT     H191049   1.057   7.632   3.102
30269WAT     H291050   0.999   7.584   2.958
30270WAT      O91051   9.727   1.695   4.062
30270WAT     H191052   9.808   1.696   4.002
30270WAT     H291053   9.697   1.789   4.078
30271WAT      O91054   8.530   4.171   8.734
30271WAT     H191055   8.590   4.122   8.796
30271WAT     H291056   8.568   4.167   8.641
30272WAT      O91057   8.700   5.157   2.238
30272WAT     H191058   8.681   5.084   2.303
30272WAT     H291059   8.614   5.191   2.200
30273WAT      O91060   2.610   5.637   3.880
30273WAT     H191061   2.668   5.569   3.835
30273WAT     H291062   2.514   5.612   3.866
30274WAT      O91063   0.162   0.676   8.544
30274WAT     H191064   0.125   0.766   8.567
30274WAT     H291065   0.261   0.684   8.528
30275WAT      O91066   9.187   4.783   2.799
30275WAT     H191067   9.277   4.817   2.827
30275WAT     H291068   9.169   4.695   2.843
30276WAT      O91069   2.256   6.156   0.967
30276WAT     H191070   2.296   6.234   1.015
30276WAT     H291071   2.324   6.084   0.957
30277WAT      O91072   2.722   8.458   1.690
30277WAT     H191073   2.708   8.373   1.741
30277WAT     H291074   2.659   8.460   1.612
30278WAT      O91075   8.355   5.983   9.518
30278WAT     H191076   8.309   6.027   9.596
30278WAT     H291077   8.341   5.884   9.522
30279WAT      O91078   1.686   8.058   5.934
30279WAT     H191079   1.668   8.100   6.023
30279WAT     H291080   1.784   8.058   5.916
30280WAT      O91081   3.106   4.602   6.248
30280WAT     H191082   3.101   4.585   6.346
30280WAT     H291083   3.030   4.555   6.202
30281WAT      O91084   0.065   6.320   0.038
30281WAT     H191085   0.034   6.232   0.073
30281WAT     H291086  -0.002   6.356  -0.028
30282WAT      O91087   1.577   8.202   0.501
30282WAT     H191088   1.525   8.173   0.420
30282WAT     H291089   1.602   8.122   0.555
30283WAT      O91090   8.461   1.169   0.128
30283WAT     H191091   8.375   1.151   0.081
30283WAT     H291092   8.471   1.106   0.206
30284WAT      O91093   1.135   7.658   7.477
30284WAT     H191094   1.071   7.627   7.406
30284WAT     H291095   1.113   7.613   7.564
30285WAT      O91096   9.078   3.703   3.376
30285WAT     H191097   9.158   3.744   3.333
30285WAT     H291098   9.008   3.773   3.390
30286WAT      O91099   7.009   3.677   6.406
30286WAT     H191100   7.005   3.675   6.306
30286WAT     H291101   6.936   3.736   6.440
30287WAT      O91102   8.364   6.805   4.127
30287WAT     H191103   8.438   6.873   4.130
30287WAT     H291104   8.334   6.783   4.220
30288WAT      O91105   0.541   1.004   0.080
30288WAT     H191106   0.613   0.963   0.023
30288WAT     H291107   0.470   0.936   0.097
30289WAT      O91108   4.281   0.186   1.269
30289WAT     H191109   4.285   0.105   1.327
30289WAT     H291110   4.188   0.223   1.271
30290WAT      O91111   6.701   2.991   9.780
30290WAT     H191112   6.636   3.021   9.850
30290WAT     H291113   6.795   3.004   9.814
30291WAT      O91114   4.451   9.262   9.103
30291WAT     H191115   4.457   9.354   9.065
30291WAT     H291116   4.494   9.262   9.194
30292WAT      O91117   6.777   5.183   9.354
30292WAT     H191118   6.876   5.190   9.366
30292WAT     H291119   6.735   5.147   9.437
30293WAT      O91120   6.693   6.807   0.072
30293WAT     H191121   6.707   6.866   0.151
30293WAT     H291122   6.691   6.863  -0.011
30294WAT      O91123   6.726   8.996   0.741
30294WAT     H191124   6.716   8.932   0.817
30294WAT     H291125   6.816   8.984   0.699
30295WAT      O91126   1.827   0.108   2.362
30295WAT     H191127   1.917   0.111   2.317
30295WAT     H291128   1.829   0.165   2.444
30296WAT      O91129   8.208   7.096   3.185
30296WAT     H191130   8.274   7.099   3.260
30296WAT     H291131   8.252   7.128   3.101
30297WAT      O91132   4.842   7.290   0.341
30297WAT     H191133   4.890   7.296   0.253
30297WAT     H291134   4.887   7.221   0.399
30298WAT      O91135   5.670   1.705   2.169
30298WAT     H191136   5.696   1.612   2.196
30298WAT     H291137   5.574   1.706   2.143
30299WAT      O91138   7.328   4.415   4.671
30299WAT     H191139   7.282   4.500   4.646
30299WAT     H291140   7.427   4.432   4.679
30300WAT      O91141   0.283   7.321   9.447
30300WAT     H191142   0.271   7.277   9.537
30300WAT     H291143   0.305   7.417   9.460
30301WAT      O91144   9.164   6.480   4.649
30301WAT     H191145   9.252   6.524   4.660
30301WAT     H291146   9.114   6.522   4.574
30302WAT      O91147   3.283   4.689   2.375
30302WAT     H191148   3.204   4.629   2.384
30302WAT     H291149   3.279   4.759   2.446
30303WAT      O91150   0.187   4.781   1.773
30303WAT     H191151   0.239   4.859   1.808
30303WAT     H291152   0.250   4.714   1.734
30304WAT      O91153   5.514   4.679   8.279
30304WAT     H191154   5.549   4.768   8.307
30304WAT     H291155   5.414   4.678   8.288
30305WAT      O91156   3.005   8.790   1.193
30305WAT     H191157   3.078   8.749   1.248
30305WAT     H291158   2.927   8.811   1.252
30306WAT      O91159   1.084   8.186   8.121
30306WAT     H191160   1.176   8.215   8.096
30306WAT     H291161   1.060   8.222   8.211
30307WAT      O91162   2.710   7.504   8.972
30307WAT     H191163   2.639   7.459   8.918
30307WAT     H291164   2.787   7.528   8.913
30308WAT      O91165   0.934   6.979   7.530
30308WAT     H191166   0.917   7.040   7.453
30308WAT     H291167   0.856   6.980   7.592
30309WAT      O91168   6.795   8.651   3.838
30309WAT     H191169   6.878   8.702   3.861
30309WAT     H291170   6.716   8.697   3.880
30310WAT      O91171   3.197   5.355   1.590
30310WAT     H191172   3.294   5.346   1.612
30310WAT     H291173   3.167   5.273   1.542
30311WAT      O91174   7.569   7.193   2.153
30311WAT     H191175   7.554   7.278   2.103
30311WAT     H291176   7.667   7.178   2.165
30312WAT      O91177   8.724   8.342   9.722
30312WAT     H191178   8.760   8.419   9.775
30312WAT     H291179   8.723   8.260   9.778
30313WAT      O91180   3.540   1.680   3.877
30313WAT     H191181   3.520   1.619   3.954
30313WAT     H291182   3.621   1.734   3.898
30314WAT      O91183   4.604   7.335   3.106
30314WAT     H191184   4.528   7.336   3.042
30314WAT     H291185   4.682   7.383   3.066
30315WAT      O91186   4.082   2.822   5.179
30315WAT     H191187   4.106   2.726   5.196
30315WAT     H291188   3.982   2.831   5.179
30316WAT      O91189   4.683   8.253   3.955
30316WAT     H191190   4.683   8.168   4.007
30316WAT     H291191   4.665   8.233   3.859
30317WAT      O91192   5.538   2.419   2.494
30317WAT     H191193   5.452   2.445   2.536
30317WAT     H291194   5.567   2.489   2.429
30318WAT      O91195   7.226   4.338   3.118
30318WAT     H191196   7.318   4.314   3.088
30318WAT     H291197   7.178   4.385   3.045
30319WAT      O91198   3.501   7.807   7.583
30319WAT     H191199   3.432   7.863   7.536
30319WAT     H291200   3.467   7.781   7.673
30320WAT      O91201   1.677   7.873   2.276
30320WAT     H191202   1.656   7.813   2.199
30320WAT     H291203   1.606   7.943   2.284
30321WAT      O91204   2.981   6.566   8.777
30321WAT     H191205   2.934   6.619   8.847
30321WAT     H291206   3.063   6.616   8.747
30322WAT      O91207   9.194   6.847   8.659
30322WAT     H191208   9.174   6.868   8.755
30322WAT     H291209   9.202   6.931   8.607
30323WAT      O91210   3.748   0.072   4.499
30323WAT     H191211   3.653   0.100   4.484
30323WAT     H291212   3.751   0.004   4.573
30324WAT      O91213   5.478   8.529   2.925
30324WAT     H191214   5.423   8.611   2.939
30324WAT     H291215   5.510   8.495   3.013
30325WAT      O91216   1.526   1.979   3.139
30325WAT     H191217   1.565   1.961   3.229
30325WAT     H291218   1.489   2.072   3.136
30326WAT      O91219   8.921   3.946   8.017
30326WAT     H191220   8.991   3.952   7.947
30326WAT     H291221   8.848   4.012   7.998
30327WAT      O91222   4.209   8.248   2.811
30327WAT     H191223   4.187   8.345   2.813
30327WAT     H291224   4.149   8.198   2.873
30328WAT      O91225   1.030   6.622   3.266
30328WAT     H191226   1.000   6.534   3.231
30328WAT     H291227   1.077   6.609   3.354
30329WAT      O91228   4.970   7.310   3.655
30329WAT     H191229   5.012   7.363   3.728
30329WAT     H291230   4.870   7.315   3.663
30330WAT      O91231   5.748   5.474   3.157
30330WAT     H191232   5.808   5.432   3.089
30330WAT     H291233   5.748   5.573   3.145
30331WAT      O91234   2.014   6.788   9.385
30331WAT     H191235   2.062   6.812   9.301
30331WAT     H291236   1.922   6.754   9.363
30332WAT      O91237   5.643   9.457   4.075
30332WAT     H191238   5.703   9.438   3.997
30332WAT     H291239   5.553   9.486   4.042
30333WAT      O91240   5.539   5.212   7.608
30333WAT     H191241   5.439   5.209   7.605
30333WAT     H291242   5.571   5.288   7.551
30334WAT      O91243   0.018   3.507   6.844
30334WAT     H191244   0.037   3.415   6.810
30334WAT     H291245  -0.072   3.508   6.888
30335WAT      O91246   2.381   4.874   0.838
30335WAT     H191247   2.393   4.973   0.840
30335WAT     H291248   2.355   4.845   0.746
30336WAT      O91249   0.336   3.439   9.476
30336WAT     H191250   0.365   3.523   9.523
30336WAT     H291251   0.364   3.360   9.530
30337WAT      O91252   9.619   6.049   3.994
30337WAT     H191253   9.562   6.131   3.989
30337WAT     H291254   9.708   6.068   3.954
30338WAT      O91255   3.619   2.797   1.187
30338WAT     H191256   3.550   2.843   1.243
30338WAT     H291257   3.683   2.748   1.245
30339WAT      O91258   7.932   7.076   6.097
30339WAT     H191259   7.932   6.979   6.070
30339WAT     H291260   7.840   7.113   6.086
30340WAT      O91261   7.502   4.544   6.405
30340WAT     H191262   7.484   4.473   6.473
30340WAT     H291263   7.543   4.623   6.450
30341WAT      O91264   0.134   5.757   3.696
30341WAT     H191265   0.130   5.796   3.788
30341WAT     H291266   0.140   5.832   3.629
30342WAT      O91267   1.974   5.456   9.878
30342WAT     H191268   1.955   5.553   9.893
30342WAT     H291269   1.888   5.405   9.875
30343WAT      O91270   1.898   9.033   9.025
30343WAT     H191271   1.808   9.057   9.060
30343WAT     H291272   1.968   9.058   9.092
30344WAT      O91273   8.765   1.526   1.836
30344WAT     H191274   8.796   1.444   1.883
30344WAT     H291275   8.722   1.588   1.901
30345WAT      O91276   0.906   1.615   3.575
30345WAT     H191277   0.928   1.651   3.666
30345WAT     H291278   0.985   1.566   3.538
30346WAT      O91279   7.946   5.001   3.329
30346WAT     H191280   7.894   5.016   3.245
30346WAT     H291281   7.949   4.903   3.349
30347WAT      O91282   6.470   2.462   8.026
30347WAT     H191283   6.525   2.540   8.056
30347WAT     H291284   6.489   2.383   8.084
30348WAT      O91285   7.292   1.285   9.441
30348WAT     H191286   7.250   1.283   9.532
30348WAT     H291287   7.389   1.261   9.448
30349WAT      O91288   8.088   4.045   1.503
30349WAT     H191289   8.118   4.140   1.499
30349WAT     H291290   8.142   3.990   1.440
30350WAT      O91291   7.416   9.567   2.977
30350WAT     H191292   7.319   9.557   2.959
30350WAT     H291293   7.465   9.579   2.890
30351WAT      O91294   3.930   2.576   2.675
30351WAT     H191295   3.831   2.584   2.675
30351WAT     H291296   3.956   2.480   2.663
30352WAT      O91297   2.089   2.913   0.802
30352WAT     H191298   1.998   2.951   0.786
30352WAT     H291299   2.081   2.818   0.831
30353WAT      O91300   4.304   9.713   9.335
30353WAT     H191301   4.272   9.652   9.407
30353WAT     H291302   4.233   9.780   9.314
30354WAT      O91303   9.058   2.577   4.813
30354WAT     H191304   9.081   2.480   4.801
30354WAT     H291305   9.143   2.630   4.823
30355WAT      O91306   0.327   1.463   1.461
30355WAT     H191307   0.285   1.549   1.434
30355WAT     H291308   0.257   1.392   1.465
30356WAT      O91309   2.788   1.849   5.915
30356WAT     H191310   2.874   1.898   5.902
30356WAT     H291311   2.734   1.854   5.831
30357WAT      O91312   3.161   2.236   1.391
30357WAT     H191313   3.260   2.240   1.386
30357WAT     H291314   3.132   2.249   1.486
30358WAT      O91315   6.626   2.280   2.644
30358WAT     H191316   6.589   2.247   2.557
30358WAT     H291317   6.726   2.273   2.643
30359WAT      O91318   3.854   1.517   8.202
30359WAT     H191319   3.885   1.534   8.108
30359WAT     H291320   3.895   1.432   8.235
30360WAT      O91321   2.728   0.708   6.967
30360WAT     H191322   2.748   0.690   6.870
30360WAT     H291323   2.657   0.646   6.998
30361WAT      O91324   7.624   8.891   6.419
30361WAT     H191325   7.536   8.886   6.466
30361WAT     H291326   7.622   8.964   6.351
30362WAT      O91327   1.709   7.258   6.099
30362WAT     H191328   1.805   7.273   6.077
30362WAT     H291329   1.672   7.341   6.143
30363WAT      O91330   2.227   5.094   9.667
30363WAT     H191331   2.284   5.017   9.638
30363WAT     H291332   2.132   5.076   9.640
30364WAT      O91333   7.105   1.159   9.313
30364WAT     H191334   7.035   1.115   9.370
30364WAT     H291335   7.168   1.210   9.372
30365WAT      O91336   7.456   3.907   2.776
30365WAT     H191337   7.400   3.939   2.852
30365WAT     H291338   7.413   3.826   2.735
30366WAT      O91339   5.979   7.853   0.318
30366WAT     H191340   6.068   7.808   0.323
30366WAT     H291341   5.989   7.940   0.270
30367WAT      O91342   1.155   8.779   1.173
30367WAT     H191343   1.191   8.721   1.246
30367WAT     H291344   1.228   8.799   1.108
30368WAT      O91345   5.234   7.246   8.993
30368WAT     H191346   5.164   7.176   9.009
30368WAT     H291347   5.274   7.273   9.081
30369WAT      O91348   2.137   8.922   5.105
30369WAT     H191349   2.190   8.847   5.145
30369WAT     H291350   2.168   8.938   5.011
30370WAT      O91351   9.668   8.046   5.161
30370WAT     H191352   9.711   8.127   5.121
30370WAT     H291353   9.582   8.072   5.205
30371WAT      O91354   6.733   5.751   7.671
30371WAT     H191355   6.794   5.791   7.603
30371WAT     H291356   6.752   5.791   7.760
30372WAT      O91357   3.031   0.216   3.885
30372WAT     H191358   3.069   0.126   3.908
30372WAT     H291359   3.033   0.228   3.786
30373WAT      O91360   7.828   6.363   8.574
30373WAT     H191361   7.862   6.329   8.661
30373WAT     H291362   7.847   6.461   8.566
30374WAT      O91363   1.214   2.011   1.498
30374WAT     H191364   1.170   2.087   1.450
30374WAT     H291365   1.303   1.993   1.457
30375WAT      O91366   8.322   4.934   8.305
30375WAT     H191367   8.258   4.964   8.376
30375WAT     H291368   8.370   5.013   8.268
30376WAT      O91369   7.389   5.689   1.611
30376WAT     H191370   7.341   5.601   1.607
30376WAT     H291371   7.399   5.726   1.519
30377WAT      O91372   4.715   0.203   0.470
30377WAT     H191373   4.639   0.240   0.524
30377WAT     H291374   4.772   0.144   0.527
30378WAT      O91375   6.174   1.649   1.693
30378WAT     H191376   6.147   1.722   1.757
30378WAT     H291377   6.134   1.562   1.724
30379WAT      O91378   0.453   4.576   1.032
30379WAT     H191379   0.506   4.540   0.955
30379WAT     H291380   0.367   4.525   1.041
30380WAT      O91381   9.048   1.855   8.828
30380WAT     H191382   9.135   1.806   8.830
30380WAT     H291383   9.049   1.923   8.755
30381WAT      O91384   3.507   0.785   2.723
30381WAT     H191385   3.529   0.697   2.681
30381WAT     H291386   3.592   0.830   2.750
30382WAT      O91387   1.003   3.408   3.020
30382WAT     H191388   1.050   3.364   2.944
30382WAT     H291389   1.033   3.503   3.027
30383WAT      O91390   6.780   8.613   8.703
30383WAT     H191391   6.689   8.605   8.663
30383WAT     H291392   6.772   8.616   8.803
30384WAT      O91393   3.542   0.251   6.051
30384WAT     H191394   3.570   0.156   6.041
30384WAT     H291395   3.442   0.255   6.061
30385WAT      O91396   4.358   5.382   5.049
30385WAT     H191397   4.419   5.450   5.010
30385WAT     H291398   4.296   5.425   5.114
30386WAT      O91399   3.993   1.705   4.171
30386WAT     H191400   3.934   1.685   4.093
30386WAT     H291401   3.949   1.770   4.232
30387WAT      O91402   8.732   9.077   3.673
30387WAT     H191403   8.693   8.996   3.629
30387WAT     H291404   8.662   9.122   3.728
30388WAT      O91405   1.418   1.232   2.144
30388WAT     H191406   1.396   1.328   2.161
30388WAT     H291407   1.384   1.206   2.054
30389WAT      O91408   4.435   3.401   1.112
30389WAT     H191409   4.409   3.477   1.171
30389WAT     H291410   4.435   3.432   1.016
30390WAT      O91411   1.849   2.200   2.576
30390WAT     H191412   1.924   2.257   2.610
30390WAT     H291413   1.814   2.238   2.490
30391WAT      O91414   3.842   2.064   8.142
30391WAT     H191415   3.865   2.093   8.235
30391WAT     H291416   3.752   2.021   8.141
30392WAT      O91417   0.945   6.751   8.131
30392WAT     H191418   0.858   6.710   8.103
30392WAT     H291419   0.964   6.831   8.074
30393WAT      O91420   0.796   1.924   1.632
30393WAT     H191421   0.876   1.876   1.595
30393WAT     H291422   0.756   1.871   1.706
30394WAT      O91423   9.577   4.017   6.953
30394WAT     H191424   9.494   3.962   6.959
30394WAT     H291425   9.646   3.981   7.015
30395WAT      O91426   3.147   3.987   0.661
30395WAT     H191427   3.144   3.920   0.587
30395WAT     H291428   3.241   4.006   0.686
30396WAT      O91429   1.858   0.937   7.112
30396WAT     H191430   1.853   1.022   7.165
30396WAT     H291431   1.807   0.948   7.027
30397WAT      O91432   3.098   6.629   1.121
30397WAT     H191433   3.079   6.543   1.168
30397WAT     H291434   3.186   6.665   1.154
30398WAT      O91435   1.323   4.549   8.237
30398WAT     H191436   1.277   4.611   8.172
30398WAT     H291437   1.393   4.497   8.189
30399WAT      O91438   2.609   9.710   2.622
30399WAT     H191439   2.689   9.692   2.680
30399WAT     H291440   2.631   9.688   2.527
30400WAT      O91441   5.145   4.034   3.889
30400WAT     H191442   5.108   3.972   3.957
30400WAT     H291443   5.088   4.032   3.807
30401WAT      O91444   6.964   1.623   8.460
30401WAT     H191445   7.024   1.673   8.398
30401WAT     H291446   6.916   1.552   8.410
30402WAT      O91447   7.741   0.583   8.153
30402WAT     H191448   7.841   0.587   8.153
30402WAT     H291449   7.705   0.671   8.186
30403WAT      O91450   1.975   3.936   6.412
30403WAT     H191451   1.980   3.982   6.324
30403WAT     H291452   1.884   3.948   6.451
30404WAT      O91453   7.469   0.813   9.335
30404WAT     H191454   7.384   0.760   9.344
30404WAT     H291455   7.467   0.864   9.250
30405WAT      O91456   8.316   3.137   1.378
30405WAT     H191457   8.350   3.064   1.437
30405WAT     H291458   8.288   3.098   1.290
30406WAT      O91459   0.022   1.298   7.466
30406WAT     H191460  -0.010   1.204   7.475
30406WAT     H291461  -0.045   1.351   7.414
30407WAT      O91462   0.213   2.293   7.018
30407WAT     H191463   0.242   2.305   6.923
30407WAT     H291464   0.293   2.285   7.077
30408WAT      O91465   8.437   5.281   0.722
30408WAT     H191466   8.449   5.220   0.801
30408WAT     H291467   8.476   5.238   0.641
30409WAT      O91468   3.850   2.882   9.471
30409WAT     H191469   3.942   2.917   9.457
30409WAT     H291470   3.850   2.817   9.547
30410WAT      O91471   3.374   7.796   4.305
30410WAT     H191472   3.332   7.778   4.394
30410WAT     H291473   3.426   7.715   4.277
30411WAT      O91474   5.438   2.596   9.198
30411WAT     H191475   5.423   2.689   9.232
30411WAT     H291476   5.396   2.530   9.260
30412WAT      O91477   7.011   7.410   5.938
30412WAT     H191478   6.988   7.345   5.866
30412WAT     H291479   7.108   7.405   5.958
30413WAT      O91480   2.829   0.631   8.540
30413WAT     H191481   2.898   0.583   8.486
30413WAT     H291482   2.872   0.705   8.592
30414WAT      O91483   9.404   3.643   0.926
30414WAT     H191484   9.483   3.609   0.875
30414WAT     H291485   9.394   3.741   0.911
30415WAT      O91486   9.079   6.143   3.421
30415WAT     H191487   9.117   6.235   3.408
30415WAT     H291488   9.072   6.097   3.332
30416WAT      O91489   5.346   7.122   1.076
30416WAT     H191490   5.284   7.051   1.041
30416WAT     H291491   5.424   7.078   1.120
30417WAT      O91492   0.601   4.399   2.998
30417WAT     H191493   0.506   4.371   2.982
30417WAT     H291494   0.650   4.328   3.047
30418WAT      O91495   3.075   6.078   5.257
30418WAT     H191496   3.014   6.108   5.330
30418WAT     H291497   3.168   6.070   5.294
30419WAT      O91498   3.020   9.477   6.350
30419WAT     H191499   3.006   9.533   6.431
30419WAT     H291500   3.075   9.397   6.374
30420WAT      O91501   8.865   8.705   4.577
30420WAT     H191502   8.786   8.721   4.519
30420WAT     H291503   8.928   8.783   4.570
30421WAT      O91504   0.429   5.997   7.567
30421WAT     H191505   0.456   5.950   7.651
30421WAT     H291506   0.422   6.095   7.585
30422WAT      O91507   4.833   3.560   9.717
30422WAT     H191508   4.922   3.601   9.702
30422WAT     H291509   4.762   3.621   9.682
30423WAT      O91510   0.438   8.247   1.866
30423WAT     H191511   0.493   8.281   1.943
30423WAT     H291512   0.343   8.279   1.877
30424WAT      O91513   3.494   9.149   6.974
30424WAT     H191514   3.418   9.214   6.982
30424WAT     H291515   3.464   9.059   7.007
30425WAT      O91516   4.191   9.393   9.407
30425WAT     H191517   4.213   9.457   9.481
30425WAT     H291518   4.146   9.313   9.445
30426WAT      O91519   3.006   0.113   9.782
30426WAT     H191520   2.940   0.038   9.777
30426WAT     H291521   2.976   0.189   9.726
30427WAT      O91522   6.804   8.353   2.601
30427WAT     H191523   6.871   8.383   2.533
30427WAT     H291524   6.850   8.299   2.671
30428WAT      O91525   1.302   9.119   2.034
30428WAT     H191526   1.212   9.079   2.049
30428WAT     H291527   1.325   9.115   1.937
30429WAT      O91528   1.321   8.696   4.554
30429WAT     H191529   1.229   8.694   4.516
30429WAT     H291530   1.377   8.761   4.503
30430WAT      O91531   0.576   2.127   2.060
30430WAT     H191532   0.665   2.112   2.017
30430WAT     H291533   0.512   2.057   2.029
30431WAT      O91534   9.148   6.584   6.152
30431WAT     H191535   9.086   6.506   6.144
30431WAT     H291536   9.209   6.587   6.073
30432WAT      O91537   7.560   4.556   7.699
30432WAT     H191538   7.461   4.551   7.689
30432WAT     H291539   7.582   4.595   7.789
30433WAT      O91540   5.305   6.612   1.820
30433WAT     H191541   5.282   6.582   1.727
30433WAT     H291542   5.363   6.693   1.815
30434WAT      O91543   6.039   7.560   3.584
30434WAT     H191544   5.941   7.569   3.604
30434WAT     H291545   6.076   7.483   3.635
30435WAT      O91546   7.154   0.248   1.670
30435WAT     H191547   7.231   0.306   1.644
30435WAT     H291548   7.098   0.230   1.589
30436WAT      O91549   9.702   8.516   6.783
30436WAT     H191550   9.636   8.541   6.854
30436WAT     H291551   9.769   8.452   6.821
30437WAT      O91552   7.236   3.253   0.373
30437WAT     H191553   7.332   3.260   0.346
30437WAT     H291554   7.187   3.195   0.309
30438WAT      O91555   8.447   7.377   2.426
30438WAT     H191556   8.368   7.362   2.366
30438WAT     H291557   8.531   7.351   2.377
30439WAT      O91558   5.049   0.791   1.243
30439WAT     H191559   5.081   0.736   1.166
30439WAT     H291560   4.981   0.740   1.295
30440WAT      O91561   0.257   4.657   5.788
30440WAT     H191562   0.188   4.713   5.741
30440WAT     H291563   0.293   4.706   5.867
30441WAT      O91564   8.858   2.258   5.131
30441WAT     H191565   8.773   2.210   5.154
30441WAT     H291566   8.884   2.238   5.037
30442WAT      O91567   9.567   2.093   1.332
30442WAT     H191568   9.472   2.123   1.323
30442WAT     H291569   9.588   2.028   1.259
30443WAT      O91570   8.499   5.503   2.036
30443WAT     H191571   8.435   5.495   1.960
30443WAT     H291572   8.450   5.530   2.119
30444WAT      O91573   3.394   7.434   1.324
30444WAT     H191574   3.324   7.451   1.393
30444WAT     H291575   3.396   7.337   1.300
30445WAT      O91576   2.423   0.033   7.722
30445WAT     H191577   2.516   0.012   7.691
30445WAT     H291578   2.358   0.014   7.648
30446WAT      O91579   8.136   7.902   1.775
30446WAT     H191580   8.043   7.864   1.773
30446WAT     H291581   8.147   7.959   1.856
30447WAT      O91582   1.735   0.114   4.699
30447WAT     H191583   1.682   0.168   4.765
30447WAT     H291584   1.741   0.164   4.613
30448WAT      O91585   6.796   1.044   3.369
30448WAT     H191586   6.757   1.101   3.297
30448WAT     H291587   6.853   1.099   3.429
30449WAT      O91588   0.124   0.534   5.011
30449WAT     H191589   0.178   0.451   4.996
30449WAT     H291590   0.104   0.544   5.108
30450WAT      O91591   0.134   7.425   6.732
30450WAT     H191592   0.102   7.338   6.768
30450WAT     H291593   0.202   7.409   6.660
30451WAT      O91594   4.511   5.932   3.628
30451WAT     H191595   4.569   5.955   3.705
30451WAT     H291596   4.539   5.985   3.548
30452WAT      O91597   0.594   5.226   6.933
30452WAT     H191598   0.588   5.135   6.892
30452WAT     H291599   0.689   5.250   6.947
30453WAT      O91600   7.141   5.991   5.309
30453WAT     H191601   7.133   6.047   5.227
30453WAT     H291602   7.105   6.041   5.387
30454WAT      O91603   7.158   5.989   6.557
30454WAT     H191604   7.136   6.075   6.603
30454WAT     H291605   7.241   5.950   6.597
30455WAT      O91606   0.873   8.277   7.977
30455WAT     H191607   0.959   8.246   8.019
30455WAT     H291608   0.800   8.212   7.998
30456WAT      O91609   2.187   8.348   2.413
30456WAT     H191610   2.102   8.398   2.399
30456WAT     H291611   2.256   8.379   2.347
30457WAT      O91612   8.424   7.996   6.493
30457WAT     H191613   8.471   7.939   6.560
30457WAT     H291614   8.491   8.034   6.429
30458WAT      O91615   0.179   8.600   8.723
30458WAT     H191616   0.275   8.573   8.731
30458WAT     H291617   0.174   8.699   8.710
30459WAT      O91618   0.619   7.239   4.842
30459WAT     H191619   0.616   7.164   4.775
30459WAT     H291620   0.565   7.213   4.923
30460WAT      O91621   9.250   5.864   9.301
30460WAT     H191622   9.211   5.936   9.359
30460WAT     H291623   9.340   5.839   9.336
30461WAT      O91624   6.448   3.136   3.317
30461WAT     H191625   6.548   3.137   3.326
30461WAT     H291626   6.406   3.157   3.406
30462WAT      O91627   6.254   6.347   7.091
30462WAT     H191628   6.168   6.298   7.083
30462WAT     H291629   6.255   6.425   7.028
30463WAT      O91630   3.214   7.370   1.563
30463WAT     H191631   3.144   7.437   1.590
30463WAT     H291632   3.172   7.296   1.511
30464WAT      O91633   4.384   6.704   4.752
30464WAT     H191634   4.383   6.665   4.660
30464WAT     H291635   4.479   6.714   4.783
30465WAT      O91636   6.631   9.462   0.968
30465WAT     H191637   6.603   9.469   0.872
30465WAT     H291638   6.719   9.413   0.973
30466WAT      O91639   3.385   9.035   9.105
30466WAT     H191640   3.369   8.937   9.119
30466WAT     H291641   3.301   9.086   9.124
30467WAT      O91642   6.515   3.255   7.768
30467WAT     H191643   6.452   3.206   7.708
30467WAT     H291644   6.464   3.294   7.845
30468WAT      O91645   0.189   6.778   5.860
30468WAT     H191646   0.288   6.765   5.869
30468WAT     H291647   0.156   6.729   5.779
30469WAT      O91648   8.249   9.102   4.769
30469WAT     H191649   8.279   9.123   4.862
30469WAT     H291650   8.171   9.159   4.745
30470WAT      O91651   1.038   4.755   7.123
30470WAT     H191652   1.079   4.741   7.033
30470WAT     H291653   1.002   4.667   7.156
30471WAT      O91654   0.617   4.243   2.580
30471WAT     H191655   0.533   4.199   2.547
30471WAT     H291656   0.629   4.330   2.532
30472WAT      O91657   7.630   8.087   9.487
30472WAT     H191658   7.543   8.095   9.438
30472WAT     H291659   7.615   8.103   9.585
30473WAT      O91660   1.932   3.165   1.450
30473WAT     H191661   1.860   3.108   1.411
30473WAT     H291662   1.996   3.191   1.379
30474WAT      O91663   5.848   8.541   1.037
30474WAT     H191664   5.778   8.562   0.969
30474WAT     H291665   5.810   8.557   1.129
30475WAT      O91666   6.050   6.669   2.185
30475WAT     H191667   6.065   6.670   2.284
30475WAT     H291668   6.033   6.575   2.155
30476WAT      O91669   7.540   7.106   3.640
30476WAT     H191670   7.627   7.108   3.590
30476WAT     H291671   7.480   7.178   3.605
30477WAT      O91672   9.672   8.762   3.189
30477WAT     H191673   9.700   8.795   3.099
30477WAT     H291674   9.575   8.779   3.203
30478WAT      O91675   2.471   0.169   1.598
30478WAT     H191676   2.495   0.078   1.563
30478WAT     H291677   2.514   0.239   1.542
30479WAT      O91678   7.893   0.291   2.726
30479WAT     H191679   7.838   0.368   2.758
30479WAT     H291680   7.990   0.311   2.740
30480WAT      O91681   1.635   0.493   3.167
30480WAT     H191682   1.594   0.519   3.255
30480WAT     H291683   1.735   0.502   3.174
30481WAT      O91684   0.509   0.544   0.730
30481WAT     H191685   0.575   0.608   0.770
30481WAT     H291686   0.558   0.464   0.694
30482WAT      O91687   1.202   5.939   5.404
30482WAT     H191688   1.145   5.878   5.349
30482WAT     H291689   1.270   5.983   5.345
30483WAT      O91690   1.847   3.918   7.268
30483WAT     H191691   1.755   3.938   7.303
30483WAT     H291692   1.915   3.967   7.322
30484WAT      O91693   1.183   0.187   5.818
30484WAT     H191694   1.180   0.087   5.814
30484WAT     H291695   1.090   0.224   5.807
30485WAT      O91696   0.957   3.869   7.897
30485WAT     H191697   0.984   3.954   7.853
30485WAT     H291698   1.039   3.819   7.925
30486WAT      O91699   6.078   9.651   8.079
30486WAT     H191700   6.140   9.602   8.139
30486WAT     H291701   6.115   9.653   7.986
30487WAT      O91702   3.049   6.389   1.223
30487WAT     H191703   3.044   6.406   1.322
30487WAT     H291704   2.964   6.347   1.192
30488WAT      O91705   3.608   6.584   1.958
30488WAT     H191706   3.687   6.555   2.013
30488WAT     H291707   3.525   6.574   2.012
30489WAT      O91708   8.013   6.858   8.411
30489WAT     H191709   7.954   6.786   8.447
30489WAT     H291710   8.026   6.845   8.313
30490WAT      O91711   7.781   9.581   4.997
30490WAT     H191712   7.756   9.586   5.093
30490WAT     H291713   7.737   9.501   4.955
30491WAT      O91714   2.275   4.951   6.434
30491WAT     H191715   2.182   4.959   6.469
30491WAT     H291716   2.276   4.890   6.355
30492WAT      O91717   7.557   2.403   2.301
30492WAT     H191718   7.546   2.435   2.395
30492WAT     H291719   7.531   2.307   2.295
30493WAT      O91720   2.963   7.037   5.944
30493WAT     H191721   2.988   7.131   5.924
30493WAT     H291722   3.011   7.006   6.025
30494WAT      O91723   8.370   6.840   6.825
30494WAT     H191724   8.391   6.815   6.731
30494WAT     H291725   8.428   6.787   6.887
30495WAT      O91726   2.898   8.607   2.366
30495WAT     H191727   2.913   8.685   2.305
30495WAT     H291728   2.979   8.549   2.365
30496WAT      O91729   8.685   2.996   2.722
30496WAT     H191730   8.640   3.018   2.636
30496WAT     H291731   8.626   2.936   2.776
30497WAT      O91732   7.556   8.456   0.228
30497WAT     H191733   7.648   8.448   0.190
30497WAT     H291734   7.562   8.485   0.324
30498WAT      O91735   3.089   2.601   6.024
30498WAT     H191736   3.166   2.544   5.995
30498WAT     H291737   3.054   2.653   5.946
30499WAT      O91738   1.685   4.570   7.736
30499WAT     H191739   1.666   4.648   7.795
30499WAT     H291740   1.676   4.597   7.640
30500WAT      O91741   4.335   2.928   0.545
30500WAT     H191742   4.408   2.991   0.572
30500WAT     H291743   4.374   2.845   0.507
30501WAT      O91744   6.798   5.419   9.841
30501WAT     H191745   6.724   5.433   9.776
30501WAT     H291746   6.760   5.406   9.933
30502WAT      O91747   1.407   5.331   4.208
30502WAT     H191748   1.425   5.366   4.300
30502WAT     H291749   1.334   5.385   4.166
30503WAT      O91750   4.918   8.433   2.446
30503WAT     H191751   4.856   8.471   2.514
30503WAT     H291752   5.006   8.481   2.451
30504WAT      O91753   5.321   6.057   8.979
30504WAT     H191754   5.376   5.983   9.018
30504WAT     H291755   5.258   6.020   8.911
30505WAT      O91756   1.509   1.106   3.121
30505WAT     H191757   1.586   1.153   3.077
30505WAT     H291758   1.425   1.126   3.071
30506WAT      O91759   9.244   4.019   3.412
30506WAT     H191760   9.222   4.002   3.508
30506WAT     H291761   9.259   4.117   3.398
30507WAT      O91762   4.565   4.050   0.218
30507WAT     H191763   4.519   4.001   0.144
30507WAT     H291764   4.662   4.061   0.195
30508WAT      O91765   1.384   5.265   6.189
30508WAT     H191766   1.444   5.255   6.110
30508WAT     H291767   1.434   5.306   6.265
30509WAT      O91768   4.963   6.190   4.931
30509WAT     H191769   5.037   6.181   4.864
30509WAT     H291770   4.916   6.102   4.941
30510WAT      O91771   7.663   2.556   1.003
30510WAT     H191772   7.744   2.540   0.946
30510WAT     H291773   7.668   2.649   1.041
30511WAT      O91774   5.208   2.813   7.657
30511WAT     H191775   5.215   2.773   7.565
30511WAT     H291776   5.127   2.870   7.662
30512WAT      O91777   3.935   6.608   2.705
30512WAT     H191778   3.944   6.593   2.606
30512WAT     H291779   3.961   6.702   2.727
30513WAT      O91780   7.286   3.041   4.903
30513WAT     H191781   7.339   3.007   4.980
30513WAT     H291782   7.346   3.093   4.842
30514WAT      O91783   4.544   4.192   0.462
30514WAT     H191784   4.571   4.119   0.399
30514WAT     H291785   4.626   4.239   0.495
30515WAT      O91786   6.513   4.875   4.202
30515WAT     H191787   6.555   4.924   4.126
30515WAT     H291788   6.457   4.938   4.257
30516WAT      O91789   3.439   2.575   1.524
30516WAT     H191790   3.464   2.479   1.537
30516WAT     H291791   3.340   2.581   1.508
30517WAT      O91792   9.273   0.747   9.799
30517WAT     H191793   9.218   0.748   9.882
30517WAT     H291794   9.222   0.789   9.724
30518WAT      O91795   6.256   5.786   8.316
30518WAT     H191796   6.323   5.754   8.249
30518WAT     H291797   6.304   5.821   8.397
30519WAT      O91798   3.155   4.020   4.304
30519WAT     H191799   3.213   4.048   4.380
30519WAT     H291800   3.059   4.035   4.328
30520WAT      O91801   8.510   8.664   5.724
30520WAT     H191802   8.521   8.749   5.673
30520WAT     H291803   8.418   8.627   5.708
30521WAT      O91804   0.414   3.609   1.249
30521WAT     H191805   0.485   3.542   1.272
30521WAT     H291806   0.326   3.578   1.284
30522WAT      O91807   3.410   2.648   2.303
30522WAT     H191808   3.340   2.714   2.331
30522WAT     H291809   3.484   2.696   2.256
30523WAT      O91810   5.235   2.132   2.375
30523WAT     H191811   5.326   2.166   2.352
30523WAT     H291812   5.242   2.065   2.449
30524WAT      O91813   3.307   0.580   6.711
30524WAT     H191814   3.226   0.551   6.762
30524WAT     H291815   3.322   0.518   6.634
30525WAT      O91816   6.388   4.997   0.931
30525WAT     H191817   6.378   4.929   1.003
30525WAT     H291818   6.435   5.078   0.967
30526WAT      O91819   8.320   1.722   9.519
30526WAT     H191820   8.281   1.729   9.611
30526WAT     H291821   8.325   1.626   9.492
30527WAT      O91822   7.706   0.899   6.187
30527WAT     H191823   7.790   0.849   6.204
30527WAT     H291824   7.633   0.863   6.246
30528WAT      O91825   8.987   8.944   5.931
30528WAT     H191826   9.007   8.887   5.851
30528WAT     H291827   8.908   8.906   5.980
30529WAT      O91828   7.318   5.594   9.875
30529WAT     H191829   7.238   5.547   9.911
30529WAT     H291830   7.342   5.557   9.786
30530WAT      O91831   1.576   6.737   3.731
30530WAT     H191832   1.674   6.754   3.720
30530WAT     H291833   1.556   6.718   3.828
30531WAT      O91834   1.673   5.915   4.880
30531WAT     H191835   1.588   5.962   4.855
30531WAT     H291836   1.653   5.820   4.903
30532WAT      O91837   1.880   4.162   1.656
30532WAT     H191838   1.781   4.155   1.666
30532WAT     H291839   1.903   4.251   1.617
30533WAT      O91840   0.751   3.548   6.576
30533WAT     H191841   0.663   3.594   6.581
30533WAT     H291842   0.796   3.572   6.490
30534WAT      O91843   4.595   2.810   7.810
30534WAT     H191844   4.567   2.801   7.715
30534WAT     H291845   4.532   2.870   7.858
30535WAT      O91846   3.894   4.907   4.264
30535WAT     H191847   3.849   4.828   4.306
30535WAT     H291848   3.888   4.899   4.164
30536WAT      O91849   0.966   6.557   6.831
30536WAT     H191850   1.048   6.549   6.888
30536WAT     H291851   0.960   6.649   6.793
30537WAT      O91852   2.640   6.688   8.296
30537WAT     H191853   2.738   6.683   8.316
30537WAT     H291854   2.594   6.739   8.368
30538WAT      O91855   1.805   3.451   2.868
30538WAT     H191856   1.803   3.438   2.967
30538WAT     H291857   1.877   3.393   2.829
30539WAT      O91858   7.410   1.314   8.400
30539WAT     H191859   7.449   1.288   8.312
30539WAT     H291860   7.416   1.414   8.412
30540WAT      O91861   5.427   3.544   9.479
30540WAT     H191862   5.409   3.585   9.569
30540WAT     H291863   5.525   3.533   9.467
30541WAT      O91864   9.255   2.362   3.690
30541WAT     H191865   9.201   2.284   3.656
30541WAT     H291866   9.342   2.328   3.726
30542WAT      O91867   9.375   0.726   5.832
30542WAT     H191868   9.411   0.809   5.874
30542WAT     H291869   9.316   0.750   5.755
30543WAT      O91870   5.803   4.307   7.991
30543WAT     H191871   5.743   4.368   8.043
30543WAT     H291872   5.765   4.294   7.899
30544WAT      O91873   3.883   2.156   4.511
30544WAT     H191874   3.900   2.213   4.592
30544WAT     H291875   3.881   2.060   4.539
30545WAT      O91876   0.199   1.799   2.139
30545WAT     H191877   0.120   1.751   2.177
30545WAT     H291878   0.212   1.886   2.189
30546WAT      O91879   9.208   7.002   6.946
30546WAT     H191880   9.228   7.044   6.858
30546WAT     H291881   9.120   7.035   6.980
30547WAT      O91882   8.152   2.706   4.087
30547WAT     H191883   8.137   2.637   4.158
30547WAT     H291884   8.124   2.670   3.998
30548WAT      O91885   3.034   9.048   5.133
30548WAT     H191886   3.058   9.129   5.187
30548WAT     H291887   2.943   9.017   5.157
30549WAT      O91888   5.194   5.515   6.409
30549WAT     H191889   5.230   5.541   6.498
30549WAT     H291890   5.270   5.505   6.344
30550WAT      O91891   1.586   2.233   5.996
30550WAT     H191892   1.559   2.138   6.012
30550WAT     H291893   1.686   2.239   5.990
30551WAT      O91894   3.808   7.609   6.923
30551WAT     H191895   3.878   7.652   6.866
30551WAT     H291896   3.754   7.680   6.969
30552WAT      O91897   6.202   2.290   8.725
30552WAT     H191898   6.265   2.348   8.673
30552WAT     H291899   6.112   2.291   8.680
30553WAT      O91900   4.185   1.549   1.577
30553WAT     H191901   4.241   1.583   1.501
30553WAT     H291902   4.236   1.559   1.663
30554WAT      O91903   0.463   5.471   1.670
30554WAT     H191904   0.509   5.470   1.759
30554WAT     H291905   0.372   5.431   1.679
30555WAT      O91906   5.397   7.579   7.876
30555WAT     H191907   5.425   7.581   7.972
30555WAT     H291908   5.433   7.496   7.833
30556WAT      O91909   4.026   5.054   6.817
30556WAT     H191910   4.097   5.086   6.880
30556WAT     H291911   4.033   5.105   6.731
30557WAT      O91912   8.013   1.588   4.080
30557WAT     H191913   7.987   1.640   4.161
30557WAT     H291914   8.106   1.552   4.093
30558WAT      O91915   7.994   3.155   3.915
30558WAT     H191916   8.043   3.236   3.946
30558WAT     H291917   7.896   3.171   3.920
30559WAT      O91918   4.857   0.919   1.553
30559WAT     H191919   4.791   0.919   1.628
30559WAT     H291920   4.829   0.985   1.484
30560WAT      O91921   6.483   1.673   4.679
30560WAT     H191922   6.393   1.650   4.643
30560WAT     H291923   6.545   1.690   4.602
30561WAT      O91924   3.095   1.204   6.136
30561WAT     H191925   3.106   1.139   6.060
30561WAT     H291926   2.997   1.216   6.154
30562WAT      O91927   0.890   1.439   4.245
30562WAT     H191928   0.859   1.355   4.289
30562WAT     H291929   0.965   1.418   4.182
30563WAT      O91930   9.672   5.959   3.229
30563WAT     H191931   9.655   6.002   3.317
30563WAT     H291932   9.755   5.996   3.189
30564WAT      O91933   2.158   4.311   7.090
30564WAT     H191934   2.166   4.245   7.164
30564WAT     H291935   2.247   4.324   7.047
30565WAT      O91936   1.277   5.891   1.093
30565WAT     H191937   1.373   5.908   1.069
30565WAT     H291938   1.268   5.798   1.129
30566WAT      O91939   9.214   9.269   0.312
30566WAT     H191940   9.207   9.280   0.213
30566WAT     H291941   9.297   9.315   0.345
30567WAT      O91942   0.982   8.982   1.246
30567WAT     H191943   1.054   8.915   1.227
30567WAT     H291944   0.945   9.015   1.159
30568WAT      O91945   4.656   2.731   3.327
30568WAT     H191946   4.731   2.723   3.261
30568WAT     H291947   4.636   2.641   3.365
30569WAT      O91948   6.435   8.236   9.880
30569WAT     H191949   6.366   8.308   9.864
30569WAT     H291950   6.390   8.157   9.921
30570WAT      O91951   9.181   0.113   8.958
30570WAT     H191952   9.257   0.078   9.013
30570WAT     H291953   9.199   0.096   8.862
30571WAT      O91954   9.399   0.222   7.989
30571WAT     H191955   9.481   0.182   8.029
30571WAT     H291956   9.323   0.213   8.053
30572WAT      O91957   8.455   6.443   3.404
30572WAT     H191958   8.361   6.465   3.379
30572WAT     H291959   8.456   6.401   3.495
30573WAT      O91960   1.680   0.952   2.246
30573WAT     H191961   1.632   0.945   2.333
30573WAT     H291962   1.704   0.861   2.212
30574WAT      O91963   0.153   6.943   0.589
30574WAT     H191964   0.184   7.034   0.618
30574WAT     H291965   0.123   6.891   0.668
30575WAT      O91966   3.521   5.881   0.049
30575WAT     H191967   3.502   5.866  -0.048
30575WAT     H291968   3.618   5.869   0.067
30576WAT      O91969   9.130   4.998   3.634
30576WAT     H191970   9.083   5.053   3.565
30576WAT     H291971   9.229   5.013   3.627
30577WAT      O91972   5.687   5.990   9.355
30577WAT     H191973   5.705   5.896   9.325
30577WAT     H291974   5.607   5.991   9.415
30578WAT      O91975   6.196   7.333   6.248
30578WAT     H191976   6.234   7.413   6.295
30578WAT     H291977   6.201   7.348   6.149
30579WAT      O91978   9.056   5.582   4.730
30579WAT     H191979   8.980   5.646   4.736
30579WAT     H291980   9.074   5.559   4.635
30580WAT      O91981   7.821   4.487   4.552
30580WAT     H191982   7.905   4.534   4.581
30580WAT     H291983   7.787   4.528   4.468
30581WAT      O91984   7.314   4.519   2.287
30581WAT     H191985   7.304   4.615   2.313
30581WAT     H291986   7.405   4.486   2.314
30582WAT      O91987   9.383   7.223   8.933
30582WAT     H191988   9.325   7.303   8.915
30582WAT     H291989   9.422   7.231   9.025
30583WAT      O91990   8.836   8.136   4.390
30583WAT     H191991   8.933   8.111   4.381
30583WAT     H291992   8.828   8.236   4.393
30584WAT      O91993   7.190   3.117   7.330
30584WAT     H191994   7.142   3.047   7.276
30584WAT     H291995   7.149   3.206   7.312
30585WAT      O91996   5.647   0.054   5.501
30585WAT     H191997   5.571   0.028   5.559
30585WAT     H291998   5.648  -0.003   5.419
30586WAT      O91999   9.129   5.172   5.334
30586WAT     H192000   9.131   5.080   5.373
30586WAT     H292001   9.173   5.171   5.244
30587WAT      O92002   0.011   6.442   5.497
30587WAT     H192003  -0.033   6.449   5.407
30587WAT     H292004   0.101   6.399   5.486
30588WAT      O92005   6.502   6.490   1.990
30588WAT     H192006   6.436   6.478   1.916
30588WAT     H292007   6.546   6.580   1.981
30589WAT      O92008   0.080   7.421   5.823
30589WAT     H192009   0.131   7.458   5.901
30589WAT     H292010  -0.018   7.421   5.844
30590WAT      O92011   7.896   5.581   2.763
30590WAT     H192012   7.968   5.625   2.816
30590WAT     H292013   7.826   5.647   2.739
30591WAT      O92014   2.385   3.048   5.260
30591WAT     H192015   2.443   3.024   5.182
30591WAT     H292016   2.372   2.967   5.318
30592WAT      O92017   0.809   3.739   1.479
30592WAT     H192018   0.764   3.692   1.555
30592WAT     H292019   0.794   3.838   1.488
30593WAT      O92020   5.261   8.923   2.292
30593WAT     H192021   5.241   9.002   2.349
30593WAT     H292022   5.183   8.859   2.294
30594WAT      O92023   7.977   2.512   7.622
30594WAT     H192024   8.014   2.537   7.532
30594WAT     H292025   8.039   2.448   7.667
30595WAT      O92026   4.911   7.320   1.610
30595WAT     H192027   4.977   7.245   1.601
30595WAT     H292028   4.946   7.387   1.675
30596WAT      O92029   6.596   2.646   8.172
30596WAT     H192030   6.668   2.578   8.186
30596WAT     H292031   6.634   2.738   8.181
30597WAT      O92032   2.545   8.795   7.413
30597WAT     H192033   2.508   8.833   7.328
30597WAT     H292034   2.617   8.854   7.448
30598WAT      O92035   4.977   2.941   7.353
30598WAT     H192036   4.892   2.942   7.406
30598WAT     H292037   5.039   3.012   7.388
30599WAT      O92038   2.106   1.836   3.657
30599WAT     H192039   2.047   1.799   3.585
30599WAT     H292040   2.081   1.796   3.745
30600WAT      O92041   6.772   9.296   9.740
30600WAT     H192042   6.837   9.222   9.722
30600WAT     H292043   6.767   9.355   9.660
30601WAT      O92044   3.128   1.208   3.718
30601WAT     H192045   3.221   1.187   3.745
30601WAT     H292046   3.068   1.209   3.798
30602WAT      O92047   4.512   2.382   5.642
30602WAT     H192048   4.496   2.406   5.738
30602WAT     H292049   4.582   2.443   5.604
30603WAT      O92050   0.417   3.271   9.279
30603WAT     H192051   0.386   3.347   9.337
30603WAT     H292052   0.510   3.246   9.304
30604WAT      O92053   0.269   7.524   1.027
30604WAT     H192054   0.216   7.496   0.947
30604WAT     H292055   0.285   7.623   1.023
30605WAT      O92056   4.525   8.830   0.179
30605WAT     H192057   4.570   8.849   0.266
30605WAT     H292058   4.502   8.916   0.134
30606WAT      O92059   0.974   0.903   3.331
30606WAT     H192060   0.937   0.946   3.413
30606WAT     H292061   0.984   0.972   3.259
30607WAT      O92062   0.509   3.329   6.261
30607WAT     H192063   0.551   3.257   6.316
30607WAT     H292064   0.580   3.394   6.232
30608WAT      O92065   5.635   7.601   4.845
30608WAT     H192066   5.601   7.667   4.913
30608WAT     H292067   5.629   7.509   4.882
30609WAT      O92068   6.489   4.014   9.280
30609WAT     H192069   6.415   3.962   9.236
30609WAT     H292070   6.571   3.957   9.285
30610WAT      O92071   2.364   5.093   5.758
30610WAT     H192072   2.292   5.143   5.805
30610WAT     H292073   2.322   5.029   5.693
30611WAT      O92074   3.405   6.727   3.615
30611WAT     H192075   3.432   6.796   3.549
30611WAT     H292076   3.334   6.763   3.675
30612WAT      O92077   7.548   0.691   4.888
30612WAT     H192078   7.492   0.616   4.852
30612WAT     H292079   7.610   0.655   4.958
30613WAT      O92080   1.190   5.767   5.911
30613WAT     H192081   1.141   5.847   5.945
30613WAT     H292082   1.214   5.781   5.815
30614WAT      O92083   4.148   1.933   7.069
30614WAT     H192084   4.193   2.013   7.029
30614WAT     H292085   4.120   1.954   7.163
30615WAT      O92086   2.727   8.921   9.807
30615WAT     H192087   2.690   8.934   9.714
30615WAT     H292088   2.662   8.958   9.874
30616WAT      O92089   0.989   8.848   0.011
30616WAT     H192090   0.967   8.854   0.109
30616WAT     H292091   1.042   8.765  -0.006
30617WAT      O92092   6.193   7.994   3.481
30617WAT     H192093   6.122   7.966   3.546
30617WAT     H292094   6.153   8.057   3.414
30618WAT      O92095   9.866   4.082   8.588
30618WAT     H192096   9.922   4.011   8.546
30618WAT     H292097   9.831   4.049   8.676
30619WAT      O92098   3.933   3.929   5.774
30619WAT     H192099   3.903   3.834   5.782
30619WAT     H292100   3.986   3.954   5.856
30620WAT      O92101   9.739   4.201   5.557
30620WAT     H192102   9.661   4.162   5.606
30620WAT     H292103   9.798   4.249   5.622
30621WAT      O92104   4.789   7.479   2.964
30621WAT     H192105   4.751   7.572   2.963
30621WAT     H292106   4.835   7.462   2.877
30622WAT      O92107   3.997   8.178   4.920
30622WAT     H192108   4.093   8.197   4.940
30622WAT     H292109   3.944   8.262   4.930
30623WAT      O92110   6.376   1.984   3.370
30623WAT     H192111   6.386   2.002   3.272
30623WAT     H292112   6.463   1.953   3.407
30624WAT      O92113   4.803   2.583   2.994
30624WAT     H192114   4.780   2.653   2.927
30624WAT     H292115   4.727   2.519   3.003
30625WAT      O92116   7.339   0.487   8.771
30625WAT     H192117   7.313   0.442   8.686
30625WAT     H292118   7.359   0.419   8.841
30626WAT      O92119   8.232   4.256   7.803
30626WAT     H192120   8.183   4.261   7.890
30626WAT     H292121   8.235   4.161   7.771
30627WAT      O92122   4.745   5.367   0.747
30627WAT     H192123   4.661   5.390   0.796
30627WAT     H292124   4.728   5.369   0.648
30628WAT      O92125   9.507   3.077   6.888
30628WAT     H192126   9.455   3.081   6.973
30628WAT     H292127   9.564   2.994   6.887
30629WAT      O92128   3.959   6.393   3.997
30629WAT     H192129   3.978   6.327   3.923
30629WAT     H292130   4.021   6.374   4.073
30630WAT      O92131   0.210   8.929   7.237
30630WAT     H192132   0.132   8.866   7.248
30630WAT     H292133   0.233   8.937   7.140
30631WAT      O92134   8.124   5.141   8.164
30631WAT     H192135   8.220   5.142   8.192
30631WAT     H292136   8.106   5.219   8.104
30632WAT      O92137   2.712   3.760   9.874
30632WAT     H192138   2.793   3.817   9.887
30632WAT     H292139   2.697   3.704   9.956
30633WAT      O92140   2.407   7.032   3.949
30633WAT     H192141   2.342   6.998   4.016
30633WAT     H292142   2.449   7.116   3.982
30634WAT      O92143   5.789   1.730   4.789
30634WAT     H192144   5.735   1.649   4.765
30634WAT     H292145   5.727   1.803   4.819
30635WAT      O92146   8.619   0.644   2.800
30635WAT     H192147   8.536   0.692   2.827
30635WAT     H292148   8.687   0.710   2.767
30636WAT      O92149   7.471   5.128   5.481
30636WAT     H192150   7.558   5.132   5.530
30636WAT     H292151   7.396   5.133   5.547
30637WAT      O92152   1.433   2.891   1.856
30637WAT     H192153   1.370   2.879   1.933
30637WAT     H292154   1.463   2.801   1.823
30638WAT      O92155   4.660   3.046   3.285
30638WAT     H192156   4.651   2.947   3.277
30638WAT     H292157   4.712   3.069   3.367
30639WAT      O92158   3.126   7.825   6.609
30639WAT     H192159   3.181   7.779   6.678
30639WAT     H292160   3.076   7.757   6.556
30640WAT      O92161   8.155   4.425   8.810
30640WAT     H192162   8.253   4.409   8.799
30640WAT     H292163   8.109   4.338   8.824
30641WAT      O92164   7.981   9.204   9.364
30641WAT     H192165   8.071   9.180   9.402
30641WAT     H292166   7.967   9.155   9.278
30642WAT      O92167   4.264   4.239   0.974
30642WAT     H192168   4.251   4.274   0.882
30642WAT     H292169   4.359   4.251   1.002
30643WAT      O92170   4.349   9.709   4.037
30643WAT     H192171   4.347   9.806   4.064
30643WAT     H292172   4.414   9.660   4.095
30644WAT      O92173   9.280   6.350   7.946
30644WAT     H192174   9.359   6.289   7.954
30644WAT     H292175   9.231   6.352   8.034
30645WAT      O92176   4.923   4.207   1.646
30645WAT     H192177   4.871   4.131   1.685
30645WAT     H292178   4.923   4.200   1.546
30646WAT      O92179   1.770   6.251   0.556
30646WAT     H192180   1.781   6.327   0.492
30646WAT     H292181   1.817   6.170   0.521
30647WAT      O92182   3.803   1.505   5.890
30647WAT     H192183   3.784   1.409   5.872
30647WAT     H292184   3.760   1.562   5.819
30648WAT      O92185   6.393   0.983   1.986
30648WAT     H192186   6.438   0.989   1.897
30648WAT     H292187   6.425   0.902   2.034
30649WAT      O92188   4.697   9.026   1.826
30649WAT     H192189   4.681   9.083   1.907
30649WAT     H292190   4.621   8.963   1.814
30650WAT      O92191   7.948   9.068   5.229
30650WAT     H192192   7.890   8.987   5.241
30650WAT     H292193   7.922   9.115   5.145
30651WAT      O92194   9.244   8.775   9.154
30651WAT     H192195   9.249   8.869   9.122
30651WAT     H292196   9.323   8.755   9.212
30652WAT      O92197   4.763   2.307   3.250
30652WAT     H192198   4.749   2.359   3.166
30652WAT     H292199   4.828   2.233   3.234
30653WAT      O92200   3.163   9.036   0.289
30653WAT     H192201   3.215   9.120   0.307
30653WAT     H292202   3.066   9.059   0.279
30654WAT      O92203   7.913   5.697   0.284
30654WAT     H192204   8.007   5.663   0.282
30654WAT     H292205   7.853   5.626   0.323
30655WAT      O92206   6.624   6.242   8.526
30655WAT     H192207   6.626   6.341   8.520
30655WAT     H292208   6.530   6.210   8.514
30656WAT      O92209   8.263   0.978   1.891
30656WAT     H192210   8.270   0.898   1.951
30656WAT     H292211   8.226   1.055   1.942
30657WAT      O92212   9.574   4.610   2.420
30657WAT     H192213   9.607   4.650   2.334
30657WAT     H292214   9.643   4.548   2.456
30658WAT      O92215   9.606   7.321   2.410
30658WAT     H192216   9.667   7.382   2.460
30658WAT     H292217   9.602   7.233   2.457
30659WAT      O92218   2.602   9.005   0.970
30659WAT     H192219   2.543   9.038   0.897
30659WAT     H292220   2.550   9.000   1.055
30660WAT      O92221   1.349   6.667   2.908
30660WAT     H192222   1.429   6.723   2.928
30660WAT     H292223   1.374   6.596   2.842
30661WAT      O92224   7.124   4.611   5.297
30661WAT     H192225   7.158   4.645   5.210
30661WAT     H292226   7.059   4.676   5.336
30662WAT      O92227   6.932   7.492   1.029
30662WAT     H192228   6.854   7.466   0.974
30662WAT     H292229   6.990   7.412   1.046
30663WAT      O92230   8.624   2.928   9.308
30663WAT     H192231   8.722   2.920   9.291
30663WAT     H292232   8.590   2.843   9.346
30664WAT      O92233   1.020   0.287   1.870
30664WAT     H192234   1.034   0.378   1.908
30664WAT     H292235   1.054   0.218   1.933
30665WAT      O92236   7.152   1.537   3.412
30665WAT     H192237   7.087   1.467   3.379
30665WAT     H292238   7.176   1.598   3.336
30666WAT      O92239   5.373   3.482   2.568
30666WAT     H192240   5.298   3.427   2.604
30666WAT     H292241   5.337   3.567   2.531
30667WAT      O92242   7.311   3.930   4.614
30667WAT     H192243   7.378   3.922   4.688
30667WAT     H292244   7.360   3.936   4.526
30668WAT      O92245   3.647   7.952   3.524
30668WAT     H192246   3.635   7.916   3.616
30668WAT     H292247   3.558   7.972   3.484
30669WAT      O92248   2.464   7.634   5.240
30669WAT     H192249   2.540   7.658   5.300
30669WAT     H292250   2.429   7.717   5.196
30670WAT      O92251   5.269   7.830   3.439
30670WAT     H192252   5.286   7.751   3.381
30670WAT     H292253   5.356   7.867   3.472
30671WAT      O92254   5.685   3.871   5.210
30671WAT     H192255   5.600   3.857   5.261
30671WAT     H292256   5.664   3.891   5.115
30672WAT      O92257   7.612   2.569   8.626
30672WAT     H192258   7.703   2.537   8.649
30672WAT     H292259   7.580   2.523   8.543
30673WAT      O92260   8.991   0.708   5.439
30673WAT     H192261   9.010   0.643   5.366
30673WAT     H292262   8.977   0.799   5.400
30674WAT      O92263   3.663   0.340   3.981
30674WAT     H192264   3.635   0.413   3.919
30674WAT     H292265   3.719   0.273   3.931
30675WAT      O92266   5.633   7.947   4.337
30675WAT     H192267   5.670   7.939   4.430
30675WAT     H292268   5.578   7.867   4.315
30676WAT      O92269   5.054   4.934   2.980
30676WAT     H192270   5.088   5.027   2.992
30676WAT     H292271   5.119   4.869   3.020
30677WAT      O92272   6.709   0.306   9.623
30677WAT     H192273   6.742   0.211   9.624
30677WAT     H292274   6.719   0.344   9.531
30678WAT      O92275   5.540   9.396   3.363
30678WAT     H192276   5.625   9.357   3.328
30678WAT     H292277   5.549   9.495   3.370
30679WAT      O92278   1.512   6.396   2.229
30679WAT     H192279   1.552   6.449   2.154
30679WAT     H292280   1.584   6.364   2.290
30680WAT      O92281   8.708   4.530   2.475
30680WAT     H192282   8.620   4.550   2.431
30680WAT     H292283   8.774   4.502   2.406
30681WAT      O92284   8.975   4.787   2.415
30681WAT     H192285   9.070   4.798   2.447
30681WAT     H292286   8.912   4.817   2.486
30682WAT      O92287   2.054   6.464   5.172
30682WAT     H192288   2.000   6.456   5.256
30682WAT     H292289   2.054   6.560   5.141
30683WAT      O92290   9.373   2.938   4.258
30683WAT     H192291   9.314   2.857   4.260
30683WAT     H292292   9.319   3.017   4.229
30684WAT      O92293   1.287   2.572   9.544
30684WAT     H192294   1.384   2.596   9.541
30684WAT     H292295   1.241   2.628   9.613
30685WAT      O92296   1.417   1.022   6.316
30685WAT     H192297   1.400   1.075   6.233
30685WAT     H292298   1.333   1.013   6.369
30686WAT      O92299   5.472   7.700   5.419
30686WAT     H192300   5.480   7.618   5.475
30686WAT     H292301   5.414   7.767   5.466
30687WAT      O92302   0.935   6.962   4.014
30687WAT     H192303   0.864   6.943   4.083
30687WAT     H292304   1.024   6.970   4.060
30688WAT      O92305   5.560   7.620   9.878
30688WAT     H192306   5.624   7.648   9.806
30688WAT     H292307   5.487   7.688   9.885
30689WAT      O92308   0.133   6.667   9.326
30689WAT     H192309   0.058   6.615   9.366
30689WAT     H292310   0.123   6.669   9.226
30690WAT      O92311   4.730   6.063   7.358
30690WAT     H192312   4.754   6.150   7.402
30690WAT     H292313   4.697   5.999   7.427
30691WAT      O92314   7.735   3.480   4.164
30691WAT     H192315   7.758   3.549   4.094
30691WAT     H292316   7.716   3.393   4.120
30692WAT      O92317   6.437   5.606   3.672
30692WAT     H192318   6.417   5.658   3.755
30692WAT     H292319   6.396   5.651   3.593
30693WAT      O92320   4.086   4.678   1.252
30693WAT     H192321   4.032   4.649   1.173
30693WAT     H292322   4.026   4.726   1.316
30694WAT      O92323   3.673   4.913   1.512
30694WAT     H192324   3.642   4.991   1.566
30694WAT     H292325   3.599   4.883   1.451
30695WAT      O92326   8.039   1.302   3.139
30695WAT     H192327   8.065   1.346   3.054
30695WAT     H292328   8.081   1.350   3.216
30696WAT      O92329   5.158   7.187   7.231
30696WAT     H192330   5.119   7.095   7.232
30696WAT     H292331   5.178   7.214   7.137
30697WAT      O92332   6.720   0.164   4.515
30697WAT     H192333   6.714   0.258   4.546
30697WAT     H292334   6.640   0.113   4.546
30698WAT      O92335   2.847   8.932   2.034
30698WAT     H192336   2.892   8.905   2.120
30698WAT     H292337   2.825   9.029   2.036
30699WAT      O92338   7.714   6.680   5.272
30699WAT     H192339   7.673   6.695   5.182
30699WAT     H292340   7.731   6.768   5.316
30700WAT      O92341   8.440   9.453   4.450
30700WAT     H192342   8.535   9.451   4.420
30700WAT     H292343   8.428   9.522   4.522
30701WAT      O92344   0.891   5.207   5.319
30701WAT     H192345   0.870   5.119   5.277
30701WAT     H292346   0.829   5.223   5.396
30702WAT      O92347   5.382   2.127   5.470
30702WAT     H192348   5.436   2.072   5.533
30702WAT     H292349   5.417   2.114   5.377
30703WAT      O92350   0.366   1.217   6.323
30703WAT     H192351   0.366   1.313   6.352
30703WAT     H292352   0.281   1.174   6.353
30704WAT      O92353   7.968   2.322   7.944
30704WAT     H192354   7.943   2.263   7.867
30704WAT     H292355   7.886   2.354   7.991
30705WAT      O92356   0.830   0.152   5.544
30705WAT     H192357   0.906   0.186   5.489
30705WAT     H292358   0.809   0.218   5.617
30706WAT      O92359   0.259   5.407   6.620
30706WAT     H192360   0.160   5.405   6.624
30706WAT     H292361   0.297   5.384   6.710
30707WAT      O92362   5.973   8.934   9.262
30707WAT     H192363   6.006   8.841   9.278
30707WAT     H292364   6.015   8.970   9.179
30708WAT      O92365   3.068   3.286   8.565
30708WAT     H192366   3.053   3.382   8.543
30708WAT     H292367   3.155   3.255   8.526
30709WAT      O92368   1.755   4.298   3.870
30709WAT     H192369   1.746   4.367   3.797
30709WAT     H292370   1.851   4.273   3.880
30710WAT      O92371   0.382   0.016   5.640
30710WAT     H192372   0.448  -0.041   5.690
30710WAT     H292373   0.372   0.103   5.687
30711WAT      O92374   0.411   5.832   5.354
30711WAT     H192375   0.383   5.820   5.449
30711WAT     H292376   0.502   5.873   5.351
30712WAT      O92377   6.367   3.191   6.193
30712WAT     H192378   6.327   3.277   6.161
30712WAT     H292379   6.294   3.132   6.228
30713WAT      O92380   8.883   1.508   0.589
30713WAT     H192381   8.943   1.443   0.635
30713WAT     H292382   8.915   1.523   0.496
30714WAT      O92383   6.642   0.015   0.680
30714WAT     H192384   6.565   0.025   0.743
30714WAT     H292385   6.621   0.061   0.594
30715WAT      O92386   4.202   4.935   2.109
30715WAT     H192387   4.167   4.844   2.131
30715WAT     H292388   4.246   4.933   2.019
30716WAT      O92389   8.508   7.883   8.749
30716WAT     H192390   8.487   7.932   8.664
30716WAT     H292391   8.491   7.785   8.736
30717WAT      O92392   7.435   7.853   3.132
30717WAT     H192393   7.364   7.805   3.079
30717WAT     H292394   7.391   7.917   3.195
30718WAT      O92395   4.621   0.127   0.225
30718WAT     H192396   4.627   0.188   0.146
30718WAT     H292397   4.682   0.160   0.297
30719WAT      O92398   7.987   8.554   6.602
30719WAT     H192399   8.014   8.637   6.554
30719WAT     H292400   7.925   8.501   6.545
30720WAT      O92401   7.774   0.381   8.415
30720WAT     H192402   7.834   0.328   8.355
30720WAT     H292403   7.803   0.370   8.510
30721WAT      O92404   3.871   2.828   0.478
30721WAT     H192405   3.863   2.738   0.520
30721WAT     H292406   3.936   2.883   0.531
30722WAT      O92407   8.488   1.997   7.266
30722WAT     H192408   8.453   2.046   7.186
30722WAT     H292409   8.578   2.033   7.290
30723WAT      O92410   6.886   7.108   7.108
30723WAT     H192411   6.978   7.122   7.144
30723WAT     H292412   6.869   7.173   7.034
30724WAT      O92413   8.102   0.977   6.281
30724WAT     H192414   8.117   0.942   6.373
30724WAT     H292415   8.029   1.046   6.283
30725WAT      O92416   2.228   9.525   3.754
30725WAT     H192417   2.151   9.546   3.693
30725WAT     H292418   2.194   9.514   3.847
30726WAT      O92419   2.382   4.894   9.530
30726WAT     H192420   2.343   4.808   9.498
30726WAT     H292421   2.369   4.964   9.461
30727WAT      O92422   6.188   0.011   3.493
30727WAT     H192423   6.119   0.033   3.424
30727WAT     H292424   6.154  -0.061   3.553
30728WAT      O92425   4.377   8.601   3.536
30728WAT     H192426   4.357   8.698   3.553
30728WAT     H292427   4.394   8.555   3.622
30729WAT      O92428   6.403   0.618   7.547
30729WAT     H192429   6.372   0.627   7.453
30729WAT     H292430   6.436   0.525   7.563
30730WAT      O92431   3.047   3.486   8.851
30730WAT     H192432   3.016   3.467   8.758
30730WAT     H292433   3.097   3.573   8.853
30731WAT      O92434   2.299   2.858   8.020
30731WAT     H192435   2.222   2.921   8.013
30731WAT     H292436   2.294   2.809   8.107
30732WAT      O92437   3.314   0.150   1.974
30732WAT     H192438   3.361   0.223   2.023
30732WAT     H292439   3.348   0.061   2.006
30733WAT      O92440   5.436   0.935   0.069
30733WAT     H192441   5.461   1.017   0.121
30733WAT     H292442   5.468   0.854   0.118
30734WAT      O92443   2.110   8.316   4.323
30734WAT     H192444   2.047   8.239   4.335
30734WAT     H292445   2.190   8.303   4.382
30735WAT      O92446   4.285   1.018   1.670
30735WAT     H192447   4.371   0.990   1.711
30735WAT     H292448   4.285   1.117   1.657
30736WAT      O92449   0.991   7.262   3.062
30736WAT     H192450   0.932   7.194   3.106
30736WAT     H292451   1.066   7.286   3.123
30737WAT      O92452   9.261   8.198   3.192
30737WAT     H192453   9.270   8.195   3.291
30737WAT     H292454   9.245   8.105   3.157
30738WAT      O92455   6.597   8.543   4.991
30738WAT     H192456   6.589   8.516   4.895
30738WAT     H292457   6.506   8.547   5.032
30739WAT      O92458   4.962   9.043   8.791
30739WAT     H192459   4.888   8.989   8.831
30739WAT     H292460   4.993   8.999   8.707
30740WAT      O92461   5.017   9.407   2.933
30740WAT     H192462   5.103   9.429   2.979
30740WAT     H292463   4.998   9.476   2.863
30741WAT      O92464   9.341   7.159   3.438
30741WAT     H192465   9.326   7.212   3.521
30741WAT     H292466   9.263   7.171   3.376
30742WAT      O92467   1.582   3.576   5.510
30742WAT     H192468   1.662   3.620   5.550
30742WAT     H292469   1.501   3.632   5.525
30743WAT      O92470   9.162   3.974   2.683
30743WAT     H192471   9.204   4.051   2.729
30743WAT     H292472   9.156   3.896   2.745
30744WAT      O92473   4.480   9.598   6.329
30744WAT     H192474   4.436   9.632   6.246
30744WAT     H292475   4.547   9.528   6.306
30745WAT      O92476   9.664   2.942   7.956
30745WAT     H192477   9.618   3.031   7.959
30745WAT     H292478   9.730   2.941   7.882
30746WAT      O92479   5.897   0.882   2.669
30746WAT     H192480   5.826   0.938   2.627
30746WAT     H292481   5.982   0.890   2.616
30747WAT      O92482   6.315   8.322   3.644
30747WAT     H192483   6.309   8.419   3.668
30747WAT     H292484   6.411   8.292   3.649
30748WAT      O92485   4.113   2.888   1.976
30748WAT     H192486   4.071   2.949   1.909
30748WAT     H292487   4.047   2.819   2.004
30749WAT      O92488   6.585   3.626   9.441
30749WAT     H192489   6.555   3.593   9.351
30749WAT     H292490   6.684   3.638   9.440
30750WAT      O92491   8.343   7.584   0.022
30750WAT     H192492   8.260   7.604   0.075
30750WAT     H292493   8.348   7.646  -0.056
30751WAT      O92494   4.461   2.250   1.177
30751WAT     H192495   4.413   2.188   1.239
30751WAT     H292496   4.394   2.311   1.133
30752WAT      O92497   2.973   2.035   4.909
30752WAT     H192498   2.981   2.055   5.007
30752WAT     H292499   3.038   1.962   4.885
30753WAT      O92500   1.060   1.906   1.213
30753WAT     H192501   1.137   1.889   1.151
30753WAT     H292502   1.093   1.901   1.307
30754WAT      O92503   7.456   3.962   4.380
30754WAT     H192504   7.519   4.032   4.346
30754WAT     H292505   7.476   3.875   4.337
30755WAT      O92506   4.829   8.694   0.188
30755WAT     H192507   4.897   8.683   0.260
30755WAT     H292508   4.743   8.725   0.229
30756WAT      O92509   8.642   6.529   7.173
30756WAT     H192510   8.733   6.570   7.181
30756WAT     H292511   8.587   6.581   7.107
30757WAT      O92512   8.328   6.014   3.661
30757WAT     H192513   8.275   5.935   3.694
30757WAT     H292514   8.304   6.032   3.565
30758WAT      O92515   9.492   8.963   1.671
30758WAT     H192516   9.474   8.887   1.732
30758WAT     H292517   9.448   8.947   1.583
30759WAT      O92518   9.446   7.276   7.675
30759WAT     H192519   9.428   7.374   7.662
30759WAT     H292520   9.502   7.264   7.757
30760WAT      O92521   3.493   9.557   0.589
30760WAT     H192522   3.436   9.629   0.630
30760WAT     H292523   3.474   9.470   0.634
30761WAT      O92524   1.556   3.200   5.510
30761WAT     H192525   1.471   3.250   5.522
30761WAT     H292526   1.573   3.185   5.413
30762WAT      O92527   6.932   5.349   5.823
30762WAT     H192528   6.865   5.423   5.820
30762WAT     H292529   6.898   5.276   5.884
30763WAT      O92530   3.410   9.550   0.309
30763WAT     H192531   3.384   9.457   0.284
30763WAT     H292532   3.433   9.552   0.407
30764WAT      O92533   3.413   3.094   9.784
30764WAT     H192534   3.386   3.066   9.876
30764WAT     H292535   3.332   3.107   9.727
30765WAT      O92536   8.807   9.731   2.422
30765WAT     H192537   8.888   9.699   2.472
30765WAT     H292538   8.734   9.749   2.487
30766WAT      O92539   1.559   0.910   2.791
30766WAT     H192540   1.497   0.988   2.794
30766WAT     H292541   1.653   0.943   2.777
30767WAT      O92542   1.987   7.782   7.930
30767WAT     H192543   2.053   7.711   7.908
30767WAT     H292544   1.895   7.743   7.933
30768WAT      O92545   1.307   2.952   0.676
30768WAT     H192546   1.264   2.993   0.595
30768WAT     H292547   1.238   2.905   0.731
30769WAT      O92548   1.971   8.527   2.411
30769WAT     H192549   1.981   8.600   2.344
30769WAT     H292550   1.939   8.565   2.498
30770WAT      O92551   3.862   1.132   5.125
30770WAT     H192552   3.790   1.068   5.096
30770WAT     H292553   3.883   1.117   5.221
30771WAT      O92554   8.930   0.091   7.014
30771WAT     H192555   8.985   0.016   6.976
30771WAT     H292556   8.893   0.064   7.102
30772WAT      O92557   4.596   4.201   7.537
30772WAT     H192558   4.529   4.198   7.611
30772WAT     H292559   4.590   4.117   7.483
30773WAT      O92560   2.094   6.695   6.122
30773WAT     H192561   2.141   6.747   6.193
30773WAT     H292562   2.057   6.611   6.161
30774WAT      O92563   6.688   7.308   3.208
30774WAT     H192564   6.600   7.326   3.252
30774WAT     H292565   6.672   7.260   3.121
30775WAT      O92566   6.777   1.296   8.520
30775WAT     H192567   6.828   1.352   8.456
30775WAT     H292568   6.840   1.231   8.565
30776WAT      O92569   3.523   0.478   0.141
30776WAT     H192570   3.536   0.382   0.164
30776WAT     H292571   3.609   0.515   0.105
30777WAT      O92572   0.118   5.173   7.119
30777WAT     H192573   0.097   5.102   7.053
30777WAT     H292574   0.180   5.136   7.189
30778WAT      O92575   5.612   7.876   8.020
30778WAT     H192576   5.689   7.822   8.054
30778WAT     H292577   5.574   7.832   7.939
30779WAT      O92578   8.619   2.410   0.189
30779WAT     H192579   8.715   2.428   0.167
30779WAT     H292580   8.586   2.478   0.254
30780WAT      O92581   2.012   1.349   8.417
30780WAT     H192582   2.038   1.253   8.420
30780WAT     H292583   1.973   1.376   8.505
30781WAT      O92584   7.046   5.193   3.897
30781WAT     H192585   6.985   5.221   3.971
30781WAT     H292586   7.001   5.123   3.842
30782WAT      O92587   9.102   9.292   3.952
30782WAT     H192588   9.175   9.359   3.937
30782WAT     H292589   9.133   9.202   3.920
30783WAT      O92590   6.731   1.752   6.083
30783WAT     H192591   6.792   1.735   6.161
30783WAT     H292592   6.659   1.815   6.111
30784WAT      O92593   7.363   2.279   4.472
30784WAT     H192594   7.415   2.208   4.425
30784WAT     H292595   7.288   2.310   4.414
30785WAT      O92596   1.898   9.175   3.208
30785WAT     H192597   1.987   9.142   3.240
30785WAT     H292598   1.832   9.172   3.282
30786WAT      O92599   0.734   4.562   6.767
30786WAT     H192600   0.821   4.515   6.786
30786WAT     H292601   0.659   4.510   6.806
30787WAT      O92602   2.016   8.155   5.533
30787WAT     H192603   2.001   8.059   5.556
30787WAT     H292604   2.020   8.209   5.618
30788WAT      O92605   9.252   8.930   2.747
30788WAT     H192606   9.226   8.991   2.672
30788WAT     H292607   9.174   8.915   2.807
30789WAT      O92608   2.363   5.984   7.952
30789WAT     H192609   2.397   5.972   7.859
30789WAT     H292610   2.330   6.078   7.963
30790WAT      O92611   0.591   4.766   7.679
30790WAT     H192612   0.497   4.773   7.711
30790WAT     H292613   0.595   4.792   7.582
30791WAT      O92614   1.880   8.157   7.923
30791WAT     H192615   1.842   8.075   7.880
30791WAT     H292616   1.963   8.185   7.874
30792WAT      O92617   6.885   2.404   4.326
30792WAT     H192618   6.842   2.333   4.270
30792WAT     H292619   6.829   2.487   4.324
30793WAT      O92620   7.752   3.214   5.773
30793WAT     H192621   7.709   3.304   5.771
30793WAT     H292622   7.701   3.155   5.836
30794WAT      O92623   7.776   0.616   1.967
30794WAT     H192624   7.768   0.615   2.067
30794WAT     H292625   7.870   0.638   1.941
30795WAT      O92626   8.702   4.867   8.570
30795WAT     H192627   8.655   4.819   8.645
30795WAT     H292628   8.635   4.921   8.519
30796WAT      O92629   0.475   7.133   5.037
30796WAT     H192630   0.497   7.036   5.026
30796WAT     H292631   0.515   7.166   5.122
30797WAT      O92632   6.045   0.260   2.872
30797WAT     H192633   6.068   0.345   2.825
30797WAT     H292634   6.092   0.256   2.960
30798WAT      O92635   2.456   5.429   1.889
30798WAT     H192636   2.404   5.404   1.971
30798WAT     H292637   2.437   5.364   1.816
30799WAT      O92638   3.480   5.492   8.183
30799WAT     H192639   3.568   5.464   8.144
30799WAT     H292640   3.458   5.585   8.153
30800WAT      O92641   0.159   1.857   5.441
30800WAT     H192642   0.096   1.781   5.457
30800WAT     H292643   0.186   1.897   5.529
30801WAT      O92644   9.357   4.075   0.064
30801WAT     H192645   9.400   4.032  -0.016
30801WAT     H292646   9.425   4.129   0.113
30802WAT      O92647   8.955   0.996   2.600
30802WAT     H192648   8.980   1.041   2.514
30802WAT     H292649   8.914   1.063   2.662
30803WAT      O92650   8.874   8.881   5.364
30803WAT     H192651   8.783   8.912   5.339
30803WAT     H292652   8.868   8.794   5.413
30804WAT      O92653   6.417   9.056   4.694
30804WAT     H192654   6.347   9.010   4.748
30804WAT     H292655   6.470   8.988   4.643
30805WAT      O92656   8.412   0.424   0.865
30805WAT     H192657   8.329   0.369   0.863
30805WAT     H292658   8.491   0.365   0.885
30806WAT      O92659   3.138   2.381   3.093
30806WAT     H192660   3.187   2.459   3.054
30806WAT     H292661   3.080   2.339   3.024
30807WAT      O92662   2.328   8.628   4.178
30807WAT     H192663   2.262   8.576   4.232
30807WAT     H292664   2.299   8.724   4.174
30808WAT      O92665   5.932   7.769   7.494
30808WAT     H192666   5.891   7.848   7.540
30808WAT     H292667   5.926   7.689   7.553
30809WAT      O92668   0.401   7.626   2.458
30809WAT     H192669   0.343   7.673   2.392
30809WAT     H292670   0.413   7.683   2.540
30810WAT      O92671   3.637   7.433   8.553
30810WAT     H192672   3.592   7.354   8.511
30810WAT     H292673   3.593   7.452   8.641
30811WAT      O92674   0.499   3.184   3.629
30811WAT     H192675   0.475   3.281   3.618
30811WAT     H292676   0.560   3.157   3.554
30812WAT      O92677   9.208   7.963   7.888
30812WAT     H192678   9.169   7.960   7.796
30812WAT     H292679   9.253   7.876   7.908
30813WAT      O92680   9.377   5.572   5.238
30813WAT     H192681   9.395   5.522   5.322
30813WAT     H292682   9.462   5.586   5.188
30814WAT      O92683   6.252   0.916   7.813
30814WAT     H192684   6.283   0.821   7.811
30814WAT     H292685   6.168   0.925   7.760
30815WAT      O92686   6.720   3.585   8.234
30815WAT     H192687   6.636   3.601   8.287
30815WAT     H292688   6.735   3.662   8.172
30816WAT      O92689   7.831   4.141   8.068
30816WAT     H192690   7.794   4.196   8.142
30816WAT     H292691   7.921   4.177   8.041
30817WAT      O92692   8.510   5.457   3.582
30817WAT     H192693   8.465   5.515   3.514
30817WAT     H292694   8.456   5.374   3.596
30818WAT      O92695   3.476   8.164   7.325
30818WAT     H192696   3.400   8.160   7.390
30818WAT     H292697   3.450   8.116   7.241
30819WAT      O92698   0.558   3.395   9.030
30819WAT     H192699   0.489   3.460   8.997
30819WAT     H292700   0.539   3.373   9.126
30820WAT      O92701   2.543   7.534   1.337
30820WAT     H192702   2.579   7.527   1.430
30820WAT     H292703   2.618   7.534   1.271
30821WAT      O92704   6.092   9.692   4.777
30821WAT     H192705   6.003   9.677   4.734
30821WAT     H292706   6.087   9.665   4.873
30822WAT      O92707   4.007   5.787   9.554
30822WAT     H192708   4.047   5.764   9.466
30822WAT     H292709   3.995   5.886   9.560
30823WAT      O92710   2.520   8.837   5.155
30823WAT     H192711   2.583   8.792   5.219
30823WAT     H292712   2.426   8.819   5.182
30824WAT      O92713   0.175   6.738   3.755
30824WAT     H192714   0.190   6.837   3.744
30824WAT     H292715   0.125   6.703   3.676
30825WAT      O92716   5.932   0.558   5.427
30825WAT     H192717   5.925   0.588   5.332
30825WAT     H292718   6.001   0.611   5.474
30826WAT      O92719   4.759   3.778   8.438
30826WAT     H192720   4.673   3.775   8.387
30826WAT     H292721   4.740   3.769   8.536
30827WAT      O92722   4.824   5.700   5.999
30827WAT     H192723   4.894   5.754   6.047
30827WAT     H292724   4.865   5.615   5.966
30828WAT      O92725   8.706   8.418   3.425
30828WAT     H192726   8.713   8.511   3.462
30828WAT     H292727   8.721   8.351   3.498
30829WAT      O92728   3.476   5.878   3.908
30829WAT     H192729   3.484   5.787   3.867
30829WAT     H292730   3.380   5.897   3.929
30830WAT      O92731   5.019   1.417   0.462
30830WAT     H192732   4.931   1.410   0.416
30830WAT     H292733   5.007   1.465   0.549
30831WAT      O92734   9.201   4.415   9.352
30831WAT     H192735   9.188   4.506   9.391
30831WAT     H292736   9.131   4.353   9.389
30832WAT      O92737   9.680   1.809   2.629
30832WAT     H192738   9.739   1.863   2.569
30832WAT     H292739   9.721   1.718   2.641
30833WAT      O92740   1.659   6.609   2.857
30833WAT     H192741   1.619   6.687   2.905
30833WAT     H292742   1.587   6.557   2.811
30834WAT      O92743   6.168   7.399   4.356
30834WAT     H192744   6.235   7.464   4.391
30834WAT     H292745   6.210   7.342   4.285
30835WAT      O92746   9.348   8.601   6.534
30835WAT     H192747   9.319   8.594   6.438
30835WAT     H292748   9.330   8.514   6.580
30836WAT      O92749   8.028   2.814   9.576
30836WAT     H192750   8.104   2.780   9.632
30836WAT     H292751   8.031   2.914   9.575
30837WAT      O92752   7.340   1.484   7.613
30837WAT     H192753   7.275   1.504   7.540
30837WAT     H292754   7.422   1.539   7.599
30838WAT      O92755   7.595   1.888   7.395
30838WAT     H192756   7.546   1.892   7.482
30838WAT     H292757   7.538   1.926   7.323
30839WAT      O92758   5.693   5.161   1.321
30839WAT     H192759   5.709   5.258   1.302
30839WAT     H292760   5.604   5.134   1.284
30840WAT      O92761   3.982   4.608   5.881
30840WAT     H192762   3.905   4.550   5.910
30840WAT     H292763   4.047   4.616   5.956
30841WAT      O92764   0.383   5.360   6.845
30841WAT     H192765   0.451   5.305   6.892
30841WAT     H292766   0.299   5.363   6.899
30842WAT      O92767   1.407   7.285   4.693
30842WAT     H192768   1.497   7.300   4.653
30842WAT     H292769   1.347   7.363   4.672
30843WAT      O92770   6.573   2.044   7.946
30843WAT     H192771   6.670   2.042   7.921
30843WAT     H292772   6.534   1.952   7.936
30844WAT      O92773   1.976   3.709   9.838
30844WAT     H192774   1.998   3.650   9.916
30844WAT     H292775   1.897   3.767   9.861
30845WAT      O92776   3.488   1.389   6.171
30845WAT     H192777   3.444   1.455   6.232
30845WAT     H292778   3.424   1.363   6.099
30846WAT      O92779   4.395   8.345   1.197
30846WAT     H192780   4.303   8.309   1.211
30846WAT     H292781   4.391   8.431   1.146
30847WAT      O92782   9.750   2.371   5.062
30847WAT     H192783   9.787   2.403   4.975
30847WAT     H292784   9.652   2.353   5.052
30848WAT      O92785   2.500   4.481   8.181
30848WAT     H192786   2.420   4.519   8.227
30848WAT     H292787   2.487   4.384   8.164
30849WAT      O92788   3.921   0.445   6.296
30849WAT     H192789   3.935   0.419   6.201
30849WAT     H292790   3.903   0.544   6.302
30850WAT      O92791   0.044   4.109   3.504
30850WAT     H192792   0.139   4.127   3.480
30850WAT     H292793   0.039   4.034   3.571
30851WAT      O92794   4.905   5.331   5.553
30851WAT     H192795   4.822   5.334   5.609
30851WAT     H292796   4.943   5.423   5.545
30852WAT      O92797   9.606   2.235   7.038
30852WAT     H192798   9.556   2.219   6.953
30852WAT     H292799   9.547   2.283   7.103
30853WAT      O92800   2.556   4.875   1.549
30853WAT     H192801   2.499   4.952   1.578
30853WAT     H292802   2.652   4.904   1.548
30854WAT      O92803   7.206   8.888   0.658
30854WAT     H192804   7.274   8.837   0.711
30854WAT     H292805   7.252   8.946   0.592
30855WAT      O92806   7.255   1.880   5.328
30855WAT     H192807   7.329   1.938   5.363
30855WAT     H292808   7.188   1.866   5.401
30856WAT      O92809   5.595   1.487   1.118
30856WAT     H192810   5.627   1.448   1.032
30856WAT     H292811   5.521   1.430   1.156
30857WAT      O92812   1.485   8.829   3.630
30857WAT     H192813   1.404   8.781   3.664
30857WAT     H292814   1.558   8.763   3.612
30858WAT      O92815   1.821   1.370   6.349
30858WAT     H192816   1.721   1.372   6.352
30858WAT     H292817   1.851   1.354   6.255
30859WAT      O92818   8.405   9.630   4.654
30859WAT     H192819   8.348   9.708   4.680
30859WAT     H292820   8.501   9.651   4.672
30860WAT      O92821   1.120   9.625   8.944
30860WAT     H192822   1.025   9.600   8.964
30860WAT     H292823   1.122   9.691   8.868
30861WAT      O92824   5.809   5.948   1.847
30861WAT     H192825   5.780   6.033   1.803
30861WAT     H292826   5.829   5.880   1.776
30862WAT      O92827   0.286   7.182   4.631
30862WAT     H192828   0.238   7.094   4.627
30862WAT     H292829   0.226   7.254   4.597
30863WAT      O92830   2.171   1.029   9.519
30863WAT     H192831   2.103   1.102   9.510
30863WAT     H292832   2.149   0.971   9.597
30864WAT      O92833   7.964   3.764   3.739
30864WAT     H192834   7.974   3.665   3.747
30864WAT     H292835   8.053   3.808   3.750
30865WAT      O92836   7.695   2.104   4.829
30865WAT     H192837   7.790   2.108   4.861
30865WAT     H292838   7.681   2.174   4.759
30866WAT      O92839   2.674   8.621   8.496
30866WAT     H192840   2.772   8.631   8.511
30866WAT     H292841   2.648   8.672   8.414
30867WAT      O92842   8.844   5.836   1.638
30867WAT     H192843   8.795   5.920   1.616
30867WAT     H292844   8.934   5.858   1.675
30868WAT      O92845   1.820   5.321   3.347
30868WAT     H192846   1.732   5.369   3.346
30868WAT     H292847   1.890   5.382   3.383
30869WAT      O92848   0.428   8.851   4.159
30869WAT     H192849   0.492   8.779   4.131
30869WAT     H292850   0.335   8.813   4.162
30870WAT      O92851   2.577   2.913   7.395
30870WAT     H192852   2.502   2.867   7.348
30870WAT     H292853   2.555   3.010   7.407
30871WAT      O92854   1.303   7.403   6.187
30871WAT     H192855   1.343   7.440   6.102
30871WAT     H292856   1.241   7.470   6.226
30872WAT      O92857   3.416   5.602   0.495
30872WAT     H192858   3.403   5.536   0.569
30872WAT     H292859   3.400   5.695   0.528
30873WAT      O92860   6.334   8.507   5.125
30873WAT     H192861   6.278   8.440   5.077
30873WAT     H292862   6.298   8.521   5.218
30874WAT      O92863   3.512   5.408   6.574
30874WAT     H192864   3.511   5.429   6.476
30874WAT     H292865   3.423   5.431   6.614
30875WAT      O92866   3.535   2.058   6.711
30875WAT     H192867   3.479   2.139   6.727
30875WAT     H292868   3.631   2.083   6.706
30876WAT      O92869   5.818   4.244   0.227
30876WAT     H192870   5.900   4.188   0.211
30876WAT     H292871   5.755   4.194   0.286
30877WAT      O92872   2.731   2.776   2.885
30877WAT     H192873   2.812   2.721   2.869
30877WAT     H292874   2.671   2.770   2.805
30878WAT      O92875   7.490   0.669   7.865
30878WAT     H192876   7.419   0.690   7.798
30878WAT     H292877   7.477   0.575   7.899
30879WAT      O92878   5.067   0.598   2.460
30879WAT     H192879   5.003   0.655   2.512
30879WAT     H292880   5.123   0.546   2.524
30880WAT      O92881   6.691   6.290   1.282
30880WAT     H192882   6.669   6.387   1.277
30880WAT     H292883   6.744   6.272   1.365
30881WAT      O92884   7.740   1.654   5.219
30881WAT     H192885   7.707   1.699   5.135
30881WAT     H292886   7.761   1.723   5.288
30882WAT      O92887   5.326   8.249   2.091
30882WAT     H192888   5.325   8.322   2.159
30882WAT     H292889   5.236   8.241   2.048
30883WAT      O92890   4.884   2.466   0.418
30883WAT     H192891   4.975   2.424   0.427
30883WAT     H292892   4.865   2.483   0.321
30884WAT      O92893   0.993   3.457   7.169
30884WAT     H192894   1.036   3.372   7.137
30884WAT     H292895   0.907   3.435   7.215
30885WAT      O92896   4.351   2.872   0.161
30885WAT     H192897   4.277   2.928   0.198
30885WAT     H292898   4.438   2.920   0.170
30886WAT      O92899   7.328   5.130   3.194
30886WAT     H192900   7.253   5.193   3.176
30886WAT     H292901   7.413   5.181   3.208
30887WAT      O92902   9.839   1.609   2.089
30887WAT     H192903   9.800   1.549   2.020
30887WAT     H292904   9.766   1.665   2.130
30888WAT      O92905   4.422   3.586   9.664
30888WAT     H192906   4.387   3.595   9.758
30888WAT     H292907   4.374   3.649   9.604
30889WAT      O92908   6.925   3.296   6.675
30889WAT     H192909   6.961   3.314   6.766
30889WAT     H292910   6.898   3.200   6.668
30890WAT      O92911   8.916   6.012   5.516
30890WAT     H192912   8.926   5.931   5.459
30890WAT     H292913   8.869   5.987   5.601
30891WAT      O92914   4.328   9.534   6.849
30891WAT     H192915   4.370   9.443   6.844
30891WAT     H292916   4.338   9.580   6.761
30892WAT      O92917   9.602   3.518   1.443
30892WAT     H192918   9.651   3.450   1.498
30892WAT     H292919   9.641   3.609   1.461
30893WAT      O92920   0.746   1.422   2.259
30893WAT     H192921   0.694   1.456   2.337
30893WAT     H292922   0.739   1.322   2.255
30894WAT      O92923   1.779   6.048   5.797
30894WAT     H192924   1.770   5.957   5.837
30894WAT     H292925   1.719   6.056   5.718
30895WAT      O92926   0.916   5.957   9.791
30895WAT     H192927   0.979   6.034   9.795
30895WAT     H292928   0.962   5.874   9.822
30896WAT      O92929   8.260   5.181   5.230
30896WAT     H192930   8.287   5.086   5.213
30896WAT     H292931   8.324   5.242   5.183
30897WAT      O92932   1.705   7.857   0.054
30897WAT     H192933   1.738   7.763   0.060
30897WAT     H292934   1.681   7.889   0.146
30898WAT      O92935   9.292   0.956   1.844
30898WAT     H192936   9.370   0.899   1.817
30898WAT     H292937   9.211   0.928   1.793
30899WAT      O92938   1.984   8.032   9.813
30899WAT     H192939   2.011   8.099   9.881
30899WAT     H292940   2.055   8.024   9.742
30900WAT      O92941   5.407   4.180   9.232
30900WAT     H192942   5.487   4.212   9.283
30900WAT     H292943   5.435   4.140   9.145
30901WAT      O92944   3.637   8.969   8.867
30901WAT     H192945   3.660   8.904   8.796
30901WAT     H292946   3.584   9.044   8.827
30902WAT      O92947   5.645   3.353   5.255
30902WAT     H192948   5.576   3.321   5.190
30902WAT     H292949   5.736   3.323   5.226
30903WAT      O92950   9.031   1.086   9.890
30903WAT     H192951   9.024   1.181   9.921
30903WAT     H292952   8.939   1.051   9.870
30904WAT      O92953   7.934   4.933   5.294
30904WAT     H192954   7.987   4.917   5.377
30904WAT     H292955   7.938   5.030   5.270
30905WAT      O92956   7.546   0.547   0.541
30905WAT     H192957   7.579   0.456   0.564
30905WAT     H292958   7.622   0.612   0.548
30906WAT      O92959   2.331   8.504   2.235
30906WAT     H192960   2.373   8.572   2.174
30906WAT     H292961   2.382   8.502   2.322
30907WAT      O92962   9.624   2.112   7.954
30907WAT     H192963   9.622   2.208   7.982
30907WAT     H292964   9.712   2.092   7.909
30908WAT      O92965   6.125   8.440   1.831
30908WAT     H192966   6.127   8.427   1.930
30908WAT     H292967   6.148   8.535   1.810
30909WAT      O92968   4.516   2.714   5.954
30909WAT     H192969   4.596   2.774   5.961
30909WAT     H292970   4.481   2.695   6.046
30910WAT      O92971   8.802   6.361   6.844
30910WAT     H192972   8.744   6.319   6.913
30910WAT     H292973   8.816   6.458   6.867
30911WAT      O92974   8.845   6.250   0.803
30911WAT     H192975   8.945   6.253   0.808
30911WAT     H292976   8.809   6.343   0.811
30912WAT      O92977   7.993   6.463   7.730
30912WAT     H192978   8.071   6.445   7.790
30912WAT     H292979   7.918   6.402   7.755
30913WAT      O92980   1.019   5.624   6.303
30913WAT     H192981   1.092   5.598   6.240
30913WAT     H292982   0.940   5.564   6.288
30914WAT      O92983   0.136   0.161   9.540
30914WAT     H192984   0.114   0.096   9.613
30914WAT     H292985   0.212   0.125   9.486
30915WAT      O92986   2.058   4.279   3.246
30915WAT     H192987   2.070   4.180   3.252
30915WAT     H292988   2.144   4.321   3.216
30916WAT      O92989   3.039   6.707   0.609
30916WAT     H192990   2.972   6.634   0.601
30916WAT     H292991   3.130   6.671   0.589
30917WAT      O92992   4.641   3.729   9.629
30917WAT     H192993   4.563   3.670   9.648
30917WAT     H292994   4.618   3.824   9.648
30918WAT      O92995   1.972   9.045   7.698
30918WAT     H192996   1.880   9.017   7.672
30918WAT     H292997   2.034   9.031   7.621
30919WAT      O92998   5.777   2.103   5.135
30919WAT     H192999   5.840   2.062   5.202
30919WAT     H293000   5.767   2.201   5.154
30920WAT      O93001   8.606   5.781   8.276
30920WAT     H193002   8.581   5.718   8.349
30920WAT     H293003   8.662   5.734   8.208
30921WAT      O93004   6.165   4.555   5.450
30921WAT     H193005   6.136   4.505   5.531
30921WAT     H293006   6.262   4.576   5.456
30922WAT      O93007   3.662   6.102   1.958
30922WAT     H193008   3.727   6.042   1.910
30922WAT     H293009   3.591   6.132   1.894
30923WAT      O93010   3.155   1.608   1.416
30923WAT     H193011   3.222   1.550   1.462
30923WAT     H293012   3.200   1.661   1.344
30924WAT      O93013   8.008   3.394   9.615
30924WAT     H193014   8.061   3.391   9.530
30924WAT     H293015   8.070   3.403   9.692
30925WAT      O93016   6.769   7.126   1.135
30925WAT     H193017   6.784   7.124   1.036
30925WAT     H293018   6.673   7.109   1.155
30926WAT      O93019   6.917   4.435   6.552
30926WAT     H193020   6.907   4.456   6.649
30926WAT     H293021   7.014   4.422   6.530
30927WAT      O93022   1.710   7.518   7.437
30927WAT     H193023   1.754   7.568   7.362
30927WAT     H293024   1.758   7.431   7.452
30928WAT      O93025   3.213   6.420   9.215
30928WAT     H193026   3.198   6.347   9.282
30928WAT     H293027   3.127   6.469   9.201
30929WAT      O93028   2.504   4.151   6.667
30929WAT     H193029   2.499   4.127   6.570
30929WAT     H293030   2.424   4.114   6.715
30930WAT      O93031   8.240   9.540   2.675
30930WAT     H193032   8.316   9.575   2.729
30930WAT     H293033   8.177   9.490   2.734
30931WAT      O93034   7.316   9.362   8.112
30931WAT     H193035   7.300   9.439   8.050
30931WAT     H293036   7.412   9.361   8.140
30932WAT      O93037   0.375   9.720   0.558
30932WAT     H193038   0.367   9.666   0.641
30932WAT     H293039   0.336   9.669   0.481
30933WAT      O93040   9.438   9.414   4.144
30933WAT     H193041   9.521   9.469   4.158
30933WAT     H293042   9.419   9.408   4.046
30934WAT      O93043   1.474   6.584   7.263
30934WAT     H193044   1.399   6.579   7.328
30934WAT     H293045   1.494   6.493   7.227
30935WAT      O93046   0.845   3.206   9.304
30935WAT     H193047   0.752   3.179   9.328
30935WAT     H293048   0.887   3.253   9.382
30936WAT      O93049   3.042   9.203   1.641
30936WAT     H193050   3.116   9.136   1.643
30936WAT     H293051   3.070   9.283   1.587
30937WAT      O93052   6.560   1.219   2.011
30937WAT     H193053   6.532   1.280   2.085
30937WAT     H293054   6.500   1.140   2.008
30938WAT      O93055   8.101   9.681   3.832
30938WAT     H193056   8.181   9.654   3.886
30938WAT     H293057   8.124   9.759   3.775
30939WAT      O93058   6.826   7.218   5.722
30939WAT     H193059   6.808   7.303   5.771
30939WAT     H293060   6.754   7.204   5.653
30940WAT      O93061   9.754   6.995   1.923
30940WAT     H193062   9.804   6.921   1.967
30940WAT     H293063   9.656   6.984   1.941
30941WAT      O93064   1.587   6.438   6.007
30941WAT     H193065   1.626   6.528   6.030
30941WAT     H293066   1.488   6.440   6.022
30942WAT      O93067   9.205   8.131   6.485
30942WAT     H193068   9.105   8.141   6.489
30942WAT     H293069   9.231   8.041   6.519
30943WAT      O93070   0.594   2.479   7.667
30943WAT     H193071   0.603   2.499   7.765
30943WAT     H293072   0.532   2.401   7.655
30944WAT      O93073   2.899   5.727   7.748
30944WAT     H193074   2.916   5.685   7.659
30944WAT     H293075   2.966   5.799   7.764
30945WAT      O93076   7.805   1.329   6.111
30945WAT     H193077   7.857   1.391   6.169
30945WAT     H293078   7.724   1.376   6.075
30946WAT      O93079   5.462   2.765   3.361
30946WAT     H193080   5.458   2.668   3.335
30946WAT     H293081   5.391   2.816   3.312
30947WAT      O93082   4.030   0.031   4.112
30947WAT     H193083   4.129   0.041   4.101
30947WAT     H293084   3.997   0.096   4.180
30948WAT      O93085   6.225   5.895   7.280
30948WAT     H193086   6.275   5.862   7.200
30948WAT     H293087   6.128   5.871   7.271
30949WAT      O93088   4.113   4.138   6.272
30949WAT     H193089   4.023   4.170   6.304
30949WAT     H293090   4.162   4.095   6.348
30950WAT      O93091   7.791   9.163   0.790
30950WAT     H193092   7.816   9.101   0.715
30950WAT     H293093   7.692   9.162   0.802
30951WAT      O93094   9.151   9.208   3.599
30951WAT     H193095   9.058   9.213   3.636
30951WAT     H293096   9.148   9.180   3.503
30952WAT      O93097   3.446   8.635   3.221
30952WAT     H193098   3.444   8.538   3.243
30952WAT     H293099   3.533   8.674   3.251
30953WAT      O93100   6.542   3.802   7.206
30953WAT     H193101   6.534   3.754   7.293
30953WAT     H293102   6.638   3.804   7.178
30954WAT      O93103   7.967   9.332   8.348
30954WAT     H193104   7.874   9.294   8.350
30954WAT     H293105   8.004   9.325   8.256
30955WAT      O93106   3.835   3.099   7.971
30955WAT     H193107   3.779   3.141   7.900
30955WAT     H293108   3.858   3.006   7.944
30956WAT      O93109   4.004   1.348   0.304
30956WAT     H193110   3.934   1.382   0.241
30956WAT     H293111   4.038   1.260   0.270
30957WAT      O93112   8.473   6.756   3.436
30957WAT     H193113   8.481   6.657   3.445
30957WAT     H293114   8.415   6.791   3.509
30958WAT      O93115   1.307   0.031   1.664
30958WAT     H193116   1.361  -0.036   1.714
30958WAT     H293117   1.344   0.122   1.678
30959WAT      O93118   6.608   9.593   1.806
30959WAT     H193119   6.573   9.596   1.899
30959WAT     H293120   6.532   9.588   1.741
30960WAT      O93121   9.278   2.053   5.047
30960WAT     H193122   9.237   2.117   4.981
30960WAT     H293123   9.342   1.994   4.999
30961WAT      O93124   8.479   3.896   0.474
30961WAT     H193125   8.528   3.823   0.427
30961WAT     H293126   8.385   3.868   0.493
30962WAT      O93127   7.518   2.154   0.546
30962WAT     H193128   7.450   2.227   0.549
30962WAT     H293129   7.609   2.193   0.534
30963WAT      O93130   5.502   2.641   8.103
30963WAT     H193131   5.599   2.633   8.078
30963WAT     H293132   5.491   2.720   8.164
30964WAT      O93133   9.703   4.627   8.173
30964WAT     H193134   9.643   4.573   8.114
30964WAT     H293135   9.648   4.694   8.223
30965WAT      O93136   7.327   6.221   4.723
30965WAT     H193137   7.411   6.225   4.778
30965WAT     H293138   7.339   6.154   4.649
30966WAT      O93139   2.593   7.311   1.683
30966WAT     H193140   2.507   7.272   1.651
30966WAT     H293141   2.622   7.264   1.766
30967WAT      O93142   1.588   1.371   1.528
30967WAT     H193143   1.629   1.285   1.496
30967WAT     H293144   1.489   1.369   1.510
30968WAT      O93145   4.065   0.128   8.609
30968WAT     H193146   4.084   0.031   8.590
30968WAT     H293147   3.966   0.141   8.615
30969WAT      O93148   6.319   8.857   9.213
30969WAT     H193149   6.306   8.772   9.265
30969WAT     H293150   6.288   8.843   9.119
30970WAT      O93151   5.205   2.286   4.529
30970WAT     H193152   5.110   2.275   4.557
30970WAT     H293153   5.220   2.243   4.440
30971WAT      O93154   3.286   6.255   4.266
30971WAT     H193155   3.224   6.185   4.302
30971WAT     H293156   3.364   6.211   4.221
30972WAT      O93157   0.925   8.522   6.543
30972WAT     H193158   0.999   8.465   6.580
30972WAT     H293159   0.883   8.475   6.465
30973WAT      O93160   6.501   1.363   1.783
30973WAT     H193161   6.555   1.447   1.786
30973WAT     H293162   6.536   1.298   1.850
30974WAT      O93163   7.126   5.912   4.439
30974WAT     H193164   7.194   5.863   4.383
30974WAT     H293165   7.036   5.903   4.397
30975WAT      O93166   9.284   0.009   2.321
30975WAT     H193167   9.282   0.026   2.419
30975WAT     H293168   9.190   0.009   2.286
30976WAT      O93169   4.803   3.846   3.129
30976WAT     H193170   4.851   3.907   3.066
30976WAT     H293171   4.727   3.895   3.171
30977WAT      O93172   7.317   6.568   7.632
30977WAT     H193173   7.403   6.618   7.630
30977WAT     H293174   7.267   6.586   7.547
30978WAT      O93175   2.893   1.987   6.391
30978WAT     H193176   2.811   1.988   6.333
30978WAT     H293177   2.867   1.959   6.483
30979WAT      O93178   0.041   3.238   4.195
30979WAT     H193179  -0.054   3.269   4.199
30979WAT     H293180   0.061   3.182   4.275
30980WAT      O93181   7.008   9.666   2.732
30980WAT     H193182   7.093   9.718   2.724
30980WAT     H293183   6.948   9.689   2.656
30981WAT      O93184   2.689   1.203   5.909
30981WAT     H193185   2.752   1.266   5.865
30981WAT     H293186   2.735   1.115   5.925
30982WAT      O93187   5.874   4.428   0.019
30982WAT     H193188   5.885   4.386   0.109
30982WAT     H293189   5.961   4.426  -0.030
30983WAT      O93190   7.939   2.722   6.436
30983WAT     H193191   7.902   2.632   6.412
30983WAT     H293192   8.013   2.710   6.502
30984WAT      O93193   3.178   7.687   3.518
30984WAT     H193194   3.242   7.652   3.586
30984WAT     H293195   3.111   7.746   3.562
30985WAT      O93196   3.060   3.759   9.589
30985WAT     H193197   3.074   3.698   9.668
30985WAT     H293198   2.964   3.756   9.562
30986WAT      O93199   5.960   0.613   3.028
30986WAT     H193200   6.056   0.594   3.048
30986WAT     H293201   5.903   0.542   3.068
30987WAT      O93202   2.773   8.534   9.622
30987WAT     H193203   2.783   8.606   9.553
30987WAT     H293204   2.863   8.509   9.658
30988WAT      O93205   9.321   3.740   2.270
30988WAT     H193206   9.354   3.821   2.222
30988WAT     H293207   9.232   3.713   2.233
30989WAT      O93208   9.140   2.666   9.806
30989WAT     H193209   9.215   2.703   9.752
30989WAT     H293210   9.146   2.566   9.807
30990WAT      O93211   7.888   6.198   0.416
30990WAT     H193212   7.931   6.272   0.364
30990WAT     H293213   7.894   6.217   0.514
30991WAT      O93214   3.680   0.549   2.648
30991WAT     H193215   3.773   0.586   2.651
30991WAT     H293216   3.680   0.464   2.596
30992WAT      O93217   4.851   4.102   0.759
30992WAT     H193218   4.777   4.045   0.795
30992WAT     H293219   4.879   4.169   0.828
30993WAT      O93220   0.607   3.813   4.229
30993WAT     H193221   0.599   3.720   4.194
30993WAT     H293222   0.684   3.818   4.294
30994WAT      O93223   5.982   2.711   1.402
30994WAT     H193224   5.970   2.724   1.500
30994WAT     H293225   5.941   2.788   1.353
30995WAT      O93226   3.044   2.852   5.438
30995WAT     H193227   3.025   2.943   5.476
30995WAT     H293228   3.096   2.862   5.353
30996WAT      O93229   3.202   7.680   7.063
30996WAT     H193230   3.215   7.678   6.964
30996WAT     H293231   3.279   7.637   7.108
30997WAT      O93232   5.490   3.545   5.347
30997WAT     H193233   5.407   3.509   5.392
30997WAT     H293234   5.543   3.470   5.309
30998WAT      O93235   3.213   3.300   1.754
30998WAT     H193236   3.119   3.270   1.774
30998WAT     H293237   3.268   3.221   1.727
30999WAT      O93238   8.941   9.204   9.614
30999WAT     H193239   9.008   9.149   9.565
30999WAT     H293240   8.849   9.174   9.591
31000WAT      O93241   3.690   2.086   7.327
31000WAT     H193242   3.713   1.992   7.301
31000WAT     H293243   3.689   2.094   7.427
31001WAT      O93244   3.876   9.251   4.759
31001WAT     H193245   3.928   9.336   4.743
31001WAT     H293246   3.899   9.185   4.688
31002WAT      O93247   8.179   7.968   3.426
31002WAT     H193248   8.153   7.897   3.361
31002WAT     H293249   8.232   8.038   3.378
31003WAT      O93250   6.120   7.537   3.933
31003WAT     H193251   6.083   7.451   3.966
31003WAT     H293252   6.099   7.610   3.998
31004WAT      O93253   0.896   4.285   6.054
31004WAT     H193254   0.927   4.379   6.069
31004WAT     H293255   0.871   4.244   6.142
31005WAT      O93256   6.098   9.482   2.476
31005WAT     H193257   6.079   9.580   2.480
31005WAT     H293258   6.141   9.460   2.389
31006WAT      O93259   6.843   1.338   1.564
31006WAT     H193260   6.841   1.306   1.470
31006WAT     H293261   6.836   1.260   1.626
31007WAT      O93262   7.502   1.657   0.656
31007WAT     H193263   7.513   1.727   0.727
31007WAT     H293264   7.550   1.573   0.684
31008WAT      O93265   1.470   7.850   1.615
31008WAT     H193266   1.418   7.791   1.554
31008WAT     H293267   1.567   7.828   1.608
31009WAT      O93268   2.856   5.689   0.431
31009WAT     H193269   2.955   5.683   0.418
31009WAT     H293270   2.814   5.722   0.346
31010WAT      O93271   2.366   0.603   2.764
31010WAT     H193272   2.384   0.696   2.796
31010WAT     H293273   2.421   0.585   2.682
31011WAT      O93274   0.481   0.616   8.931
31011WAT     H193275   0.518   0.539   8.879
31011WAT     H293276   0.529   0.700   8.905
31012WAT      O93277   9.531   9.277   7.262
31012WAT     H193278   9.611   9.262   7.203
31012WAT     H293279   9.450   9.286   7.205
31013WAT      O93280   6.183   6.539   0.336
31013WAT     H193281   6.204   6.521   0.433
31013WAT     H293282   6.181   6.452   0.287
31014WAT      O93283   4.121   1.127   6.907
31014WAT     H193284   4.145   1.125   7.004
31014WAT     H293285   4.026   1.158   6.897
31015WAT      O93286   3.977   6.778   6.473
31015WAT     H193287   4.026   6.785   6.560
31015WAT     H293288   3.885   6.743   6.489
31016WAT      O93289   5.907   7.513   8.312
31016WAT     H193290   5.970   7.479   8.243
31016WAT     H293291   5.953   7.581   8.369
31017WAT      O93292   1.278   0.079   9.878
31017WAT     H193293   1.296  -0.010   9.921
31017WAT     H293294   1.221   0.066   9.797
31018WAT      O93295   3.830   9.824   6.670
31018WAT     H193296   3.899   9.829   6.597
31018WAT     H293297   3.771   9.745   6.654
31019WAT      O93298   2.211   1.922   9.336
31019WAT     H193299   2.304   1.905   9.368
31019WAT     H293300   2.157   1.838   9.344
31020WAT      O93301   0.959   1.271   7.552
31020WAT     H193302   0.964   1.366   7.585
31020WAT     H293303   0.998   1.210   7.621
31021WAT      O93304   8.297   9.048   3.688
31021WAT     H193305   8.296   9.096   3.600
31021WAT     H293306   8.258   9.106   3.759
31022WAT      O93307   3.599   6.455   4.871
31022WAT     H193308   3.668   6.477   4.940
31022WAT     H293309   3.557   6.367   4.892
31023WAT      O93310   2.171   4.508   5.647
31023WAT     H193311   2.185   4.432   5.583
31023WAT     H293312   2.091   4.489   5.704
31024WAT      O93313   0.646   7.136   8.586
31024WAT     H193314   0.686   7.052   8.622
31024WAT     H293315   0.708   7.213   8.603
31025WAT      O93316   6.883   2.319   1.686
31025WAT     H193317   6.787   2.319   1.658
31025WAT     H293318   6.925   2.405   1.659
31026WAT      O93319   2.552   7.242   4.024
31026WAT     H193320   2.633   7.244   3.966
31026WAT     H293321   2.569   7.183   4.103
31027WAT      O93322   8.912   8.444   9.407
31027WAT     H193323   8.901   8.368   9.342
31027WAT     H293324   8.961   8.411   9.488
31028WAT      O93325   5.929   8.480   6.221
31028WAT     H193326   5.834   8.505   6.203
31028WAT     H293327   5.986   8.507   6.143
31029WAT      O93328   6.176   7.263   2.035
31029WAT     H193329   6.136   7.172   2.020
31029WAT     H293330   6.272   7.261   2.010
31030WAT      O93331   1.001   4.517   6.087
31030WAT     H193332   1.090   4.535   6.047
31030WAT     H293333   0.950   4.604   6.096
31031WAT      O93334   2.421   6.157   4.246
31031WAT     H193335   2.480   6.222   4.198
31031WAT     H293336   2.343   6.134   4.188
31032WAT      O93337   2.763   1.360   3.657
31032WAT     H193338   2.672   1.326   3.636
31032WAT     H293339   2.829   1.319   3.594
31033WAT      O93340   5.004   7.570   0.976
31033WAT     H193341   5.056   7.528   0.901
31033WAT     H293342   5.010   7.510   1.057
31034WAT      O93343   3.963   3.738   1.218
31034WAT     H193344   4.018   3.727   1.301
31034WAT     H293345   3.947   3.649   1.175
31035WAT      O93346   1.047   3.732   8.357
31035WAT     H193347   0.973   3.681   8.314
31035WAT     H293348   1.093   3.674   8.424
31036WAT      O93349   7.821   2.217   0.593
31036WAT     H193350   7.803   2.306   0.550
31036WAT     H293351   7.886   2.230   0.669
31037WAT      O93352   2.312   1.188   3.377
31037WAT     H193353   2.230   1.245   3.382
31037WAT     H293354   2.288   1.094   3.402
31038WAT      O93355   4.223   5.760   3.244
31038WAT     H193356   4.265   5.771   3.334
31038WAT     H293357   4.261   5.678   3.199
31039WAT      O93358   2.773   4.571   0.233
31039WAT     H193359   2.836   4.602   0.304
31039WAT     H293360   2.801   4.611   0.145
31040WAT      O93361   6.601   1.205   0.730
31040WAT     H193362   6.584   1.204   0.829
31040WAT     H293363   6.647   1.120   0.703
31041WAT      O93364   9.528   6.073   0.550
31041WAT     H193365   9.494   6.144   0.489
31041WAT     H293366   9.534   6.108   0.643
31042WAT      O93367   8.189   0.693   6.678
31042WAT     H193368   8.240   0.670   6.761
31042WAT     H293369   8.095   0.661   6.686
31043WAT      O93370   4.613   3.986   2.516
31043WAT     H193371   4.705   3.991   2.554
31043WAT     H293372   4.549   3.958   2.589
31044WAT      O93373   4.389   8.259   5.606
31044WAT     H193374   4.350   8.237   5.517
31044WAT     H293375   4.390   8.358   5.619
31045WAT      O93376   3.077   0.221   2.790
31045WAT     H193377   3.096   0.317   2.771
31045WAT     H293378   3.005   0.189   2.729
31046WAT      O93379   5.669   9.718   5.298
31046WAT     H193380   5.593   9.667   5.337
31046WAT     H293381   5.730   9.656   5.250
31047WAT      O93382   9.118   7.659   1.625
31047WAT     H193383   9.044   7.627   1.567
31047WAT     H293384   9.188   7.703   1.569
31048WAT      O93385   0.126   3.567   5.590
31048WAT     H193386   0.075   3.497   5.640
31048WAT     H293387   0.189   3.523   5.527
31049WAT      O93388   5.147   1.976   3.340
31049WAT     H193389   5.187   2.043   3.277
31049WAT     H293390   5.072   2.019   3.390
31050WAT      O93391   1.323   3.957   2.902
31050WAT     H193392   1.255   3.939   2.973
31050WAT     H293393   1.276   3.972   2.815
31051WAT      O93394   4.373   4.767   9.664
31051WAT     H193395   4.413   4.754   9.754
31051WAT     H293396   4.413   4.701   9.600
31052WAT      O93397   4.844   0.050   9.028
31052WAT     H193398   4.849   0.044   9.128
31052WAT     H293399   4.926   0.095   8.994
31053WAT      O93400   5.399   6.239   5.237
31053WAT     H193401   5.497   6.240   5.257
31053WAT     H293402   5.351   6.303   5.298
31054WAT      O93403   7.746   2.376   4.217
31054WAT     H193404   7.712   2.286   4.190
31054WAT     H293405   7.712   2.399   4.308
31055WAT      O93406   1.784   8.426   5.694
31055WAT     H193407   1.707   8.370   5.725
31055WAT     H293408   1.839   8.452   5.774
31056WAT      O93409   5.102   0.386   9.539
31056WAT     H193410   5.164   0.439   9.481
31056WAT     H293411   5.131   0.290   9.539
31057WAT      O93412   7.060   9.279   9.778
31057WAT     H193413   7.101   9.189   9.793
31057WAT     H293414   7.059   9.330   9.864
31058WAT      O93415   9.182   7.193   7.400
31058WAT     H193416   9.120   7.197   7.477
31058WAT     H293417   9.225   7.282   7.387
31059WAT      O93418   0.484   1.572   9.629
31059WAT     H193419   0.556   1.593   9.695
31059WAT     H293420   0.454   1.478   9.641
31060WAT      O93421   9.848   6.911   3.036
31060WAT     H193422   9.812   6.917   3.129
31060WAT     H293423   9.773   6.886   2.974
31061WAT      O93424   7.061   2.850   9.279
31061WAT     H193425   6.968   2.816   9.293
31061WAT     H293426   7.127   2.778   9.298
31062WAT      O93427   5.984   8.664   9.317
31062WAT     H193428   6.017   8.570   9.313
31062WAT     H293429   5.923   8.675   9.395
31063WAT      O93430   3.215   4.613   1.299
31063WAT     H193431   3.270   4.560   1.364
31063WAT     H293432   3.223   4.710   1.319
31064WAT      O93433   6.761   4.715   6.180
31064WAT     H193434   6.754   4.621   6.147
31064WAT     H293435   6.741   4.779   6.106
31065WAT      O93436   3.377   2.124   9.449
31065WAT     H193437   3.446   2.189   9.482
31065WAT     H293438   3.293   2.136   9.502
31066WAT      O93439   0.020   3.955   0.248
31066WAT     H193440  -0.025   4.043   0.232
31066WAT     H293441  -0.032   3.883   0.203
31067WAT      O93442   9.643   5.561   6.567
31067WAT     H193443   9.645   5.612   6.482
31067WAT     H293444   9.734   5.565   6.611
31068WAT      O93445   7.498   1.833   0.145
31068WAT     H193446   7.416   1.775   0.145
31068WAT     H293447   7.472   1.926   0.118
31069WAT      O93448   3.814   4.364   3.363
31069WAT     H193449   3.851   4.286   3.313
31069WAT     H293450   3.738   4.335   3.420
31070WAT      O93451   5.401   1.662   2.084
31070WAT     H193452   5.384   1.567   2.108
31070WAT     H293453   5.354   1.722   2.150
31071WAT      O93454   8.953   0.335   5.817
31071WAT     H193455   8.987   0.429   5.811
31071WAT     H293456   8.867   0.334   5.868
31072WAT      O93457   2.809   0.071   7.138
31072WAT     H193458   2.887   0.105   7.085
31072WAT     H293459   2.816   0.102   7.232
31073WAT      O93460   4.921   9.774   9.516
31073WAT     H193461   4.832   9.775   9.563
31073WAT     H293462   4.948   9.679   9.499
31074WAT      O93463   4.986   4.163   4.192
31074WAT     H193464   5.030   4.091   4.247
31074WAT     H293465   5.041   4.246   4.196
31075WAT      O93466   3.414   7.563   7.227
31075WAT     H193467   3.360   7.538   7.307
31075WAT     H293468   3.500   7.605   7.256
31076WAT      O93469   1.919   3.671   2.522
31076WAT     H193470   1.973   3.607   2.576
31076WAT     H293471   1.861   3.620   2.458
31077WAT      O93472   8.160   7.302   6.367
31077WAT     H193473   8.236   7.307   6.303
31077WAT     H293474   8.098   7.228   6.340
31078WAT      O93475   3.366   2.679   9.742
31078WAT     H193476   3.379   2.712   9.835
31078WAT     H293477   3.452   2.642   9.707
31079WAT      O93478   8.777   7.208   6.322
31079WAT     H193479   8.774   7.151   6.240
31079WAT     H293480   8.707   7.279   6.317
31080WAT      O93481   0.674   9.694   6.563
31080WAT     H193482   0.730   9.625   6.518
31080WAT     H293483   0.693   9.694   6.661
31081WAT      O93484   8.683   7.349   5.981
31081WAT     H193485   8.705   7.416   6.053
31081WAT     H293486   8.751   7.356   5.908
31082WAT      O93487   2.055   5.932   3.748
31082WAT     H193488   1.978   5.883   3.707
31082WAT     H293489   2.026   5.972   3.835
31083WAT      O93490   0.613   1.148   4.183
31083WAT     H193491   0.698   1.159   4.131
31083WAT     H293492   0.605   1.224   4.248
31084WAT      O93493   3.628   8.728   7.537
31084WAT     H193494   3.542   8.689   7.570
31084WAT     H293495   3.626   8.827   7.551
31085WAT      O93496   9.452   9.103   0.443
31085WAT     H193497   9.429   9.022   0.389
31085WAT     H293498   9.482   9.177   0.383
31086WAT      O93499   0.377   5.682   6.353
31086WAT     H193500   0.348   5.690   6.449
31086WAT     H293501   0.324   5.610   6.308
31087WAT      O93502   3.770   3.995   7.319
31087WAT     H193503   3.678   4.034   7.314
31087WAT     H293504   3.828   4.054   7.376
31088WAT      O93505   2.615   2.362   4.045
31088WAT     H193506   2.532   2.312   4.017
31088WAT     H293507   2.589   2.441   4.100
31089WAT      O93508   9.032   0.550   1.320
31089WAT     H193509   9.088   0.480   1.366
31089WAT     H293510   8.943   0.511   1.295
31090WAT      O93511   3.163   4.492   7.880
31090WAT     H193512   3.155   4.590   7.901
31090WAT     H293513   3.255   4.473   7.848
31091WAT      O93514   6.545   5.223   0.915
31091WAT     H193515   6.498   5.267   0.992
31091WAT     H293516   6.612   5.157   0.951
31092WAT      O93517   9.563   1.564   9.840
31092WAT     H193518   9.497   1.602   9.775
31092WAT     H293519   9.637   1.630   9.854
31093WAT      O93520   7.276   9.542   0.010
31093WAT     H193521   7.210   9.617   0.001
31093WAT     H293522   7.357   9.575   0.058
31094WAT      O93523   7.434   7.509   8.704
31094WAT     H193524   7.390   7.599   8.715
31094WAT     H293525   7.531   7.522   8.683
31095WAT      O93526   0.909   1.255   9.369
31095WAT     H193527   1.006   1.258   9.345
31095WAT     H293528   0.879   1.345   9.400
31096WAT      O93529   3.287   5.604   5.680
31096WAT     H193530   3.277   5.541   5.602
31096WAT     H293531   3.197   5.633   5.712
31097WAT      O93532   1.362   6.993   0.550
31097WAT     H193533   1.355   6.903   0.506
31097WAT     H293534   1.371   7.064   0.480
31098WAT      O93535   2.896   8.825   7.371
31098WAT     H193536   2.915   8.738   7.326
31098WAT     H293537   2.982   8.866   7.403
31099WAT      O93538   3.852   5.926   7.063
31099WAT     H193539   3.950   5.945   7.069
31099WAT     H293540   3.836   5.828   7.050
31100WAT      O93541   7.091   3.608   6.098
31100WAT     H193542   7.147   3.528   6.120
31100WAT     H293543   7.057   3.600   6.004
31101WAT      O93544   3.867   5.965   4.778
31101WAT     H193545   3.884   5.970   4.877
31101WAT     H293546   3.894   6.052   4.736
31102WAT      O93547   5.877   3.481   3.660
31102WAT     H193548   5.919   3.454   3.573
31102WAT     H293549   5.798   3.423   3.679
31103WAT      O93550   4.812   1.038   8.004
31103WAT     H193551   4.820   1.080   7.913
31103WAT     H293552   4.877   1.081   8.066
31104WAT      O93553   8.323   9.420   1.410
31104WAT     H193554   8.265   9.339   1.421
31104WAT     H293555   8.418   9.396   1.424
31105WAT      O93556   4.977   7.433   3.160
31105WAT     H193557   4.910   7.435   3.086
31105WAT     H293558   5.043   7.360   3.142
31106WAT      O93559   6.598   5.659   6.195
31106WAT     H193560   6.547   5.726   6.141
31106WAT     H293561   6.679   5.702   6.234
31107WAT      O93562   6.702   2.442   5.531
31107WAT     H193563   6.623   2.397   5.572
31107WAT     H293564   6.767   2.372   5.500
31108WAT      O93565   3.828   7.282   3.353
31108WAT     H193566   3.902   7.346   3.334
31108WAT     H293567   3.788   7.303   3.443
31109WAT      O93568   5.143   1.424   5.444
31109WAT     H193569   5.205   1.352   5.475
31109WAT     H293570   5.166   1.510   5.490
31110WAT      O93571   2.482   0.971   4.288
31110WAT     H193572   2.385   0.949   4.275
31110WAT     H293573   2.505   1.054   4.236
31111WAT      O93574   2.216   3.539   7.784
31111WAT     H193575   2.225   3.441   7.798
31111WAT     H293576   2.120   3.566   7.794
31112WAT      O93577   6.810   7.291   2.839
31112WAT     H193578   6.895   7.341   2.853
31112WAT     H293579   6.807   7.256   2.745
31113WAT      O93580   9.308   3.111   6.301
31113WAT     H193581   9.243   3.136   6.374
31113WAT     H293582   9.323   3.012   6.303
31114WAT      O93583   2.045   4.264   0.118
31114WAT     H193584   2.104   4.308   0.049
31114WAT     H293585   1.989   4.334   0.162
31115WAT      O93586   4.636   1.658   0.880
31115WAT     H193587   4.688   1.667   0.795
31115WAT     H293588   4.547   1.703   0.870
31116WAT      O93589   7.365   0.190   3.116
31116WAT     H193590   7.365   0.168   3.213
31116WAT     H293591   7.456   0.175   3.078
31117WAT      O93592   5.522   2.865   0.827
31117WAT     H193593   5.436   2.900   0.789
31117WAT     H293594   5.544   2.915   0.910
31118WAT      O93595   4.517   1.359   5.798
31118WAT     H193596   4.439   1.382   5.857
31118WAT     H293597   4.595   1.332   5.854
31119WAT      O93598   4.635   3.884   8.934
31119WAT     H193599   4.689   3.913   9.013
31119WAT     H293600   4.575   3.808   8.960
31120WAT      O93601   1.971   2.489   9.384
31120WAT     H193602   2.040   2.435   9.336
31120WAT     H293603   2.005   2.582   9.398
31121WAT      O93604   5.144   9.745   9.103
31121WAT     H193605   5.196   9.663   9.080
31121WAT     H293606   5.131   9.801   9.022
31122WAT      O93607   4.826   8.572   4.445
31122WAT     H193608   4.736   8.616   4.444
31122WAT     H293609   4.869   8.587   4.534
31123WAT      O93610   5.778   4.887   6.849
31123WAT     H193611   5.796   4.830   6.769
31123WAT     H293612   5.685   4.871   6.882
31124WAT      O93613   9.005   5.502   3.267
31124WAT     H193614   9.014   5.468   3.361
31124WAT     H293615   9.074   5.459   3.209
31125WAT      O93616   8.743   7.618   3.023
31125WAT     H193617   8.801   7.639   3.102
31125WAT     H293618   8.649   7.604   3.054
31126WAT      O93619   8.642   8.245   6.080
31126WAT     H193620   8.620   8.335   6.118
31126WAT     H293621   8.630   8.248   5.980
31127WAT      O93622   9.629   0.526   8.338
31127WAT     H193623   9.706   0.590   8.331
31127WAT     H293624   9.601   0.497   8.247
31128WAT      O93625   1.688   7.559   5.376
31128WAT     H193626   1.709   7.529   5.283
31128WAT     H293627   1.739   7.503   5.442
31129WAT      O93628   4.110   0.031   0.408
31129WAT     H193629   4.141   0.104   0.469
31129WAT     H293630   4.010   0.026   0.411
31130WAT      O93631   1.726   7.361   2.079
31130WAT     H193632   1.821   7.350   2.108
31130WAT     H293633   1.719   7.441   2.019
31131WAT      O93634   2.131   0.815   3.006
31131WAT     H193635   2.091   0.875   2.937
31131WAT     H293636   2.190   0.869   3.067
31132WAT      O93637   3.669   0.876   9.491
31132WAT     H193638   3.741   0.829   9.541
31132WAT     H293639   3.623   0.942   9.551
31133WAT      O93640   8.175   7.638   0.366
31133WAT     H193641   8.189   7.550   0.410
31133WAT     H293642   8.123   7.626   0.282
31134WAT      O93643   3.099   4.796   8.966
31134WAT     H193644   3.030   4.729   8.991
31134WAT     H293645   3.140   4.834   9.048
31135WAT      O93646   6.045   5.182   9.509
31135WAT     H193647   6.005   5.169   9.599
31135WAT     H293648   6.114   5.255   9.513
31136WAT      O93649   3.404   8.171   7.752
31136WAT     H193650   3.485   8.125   7.716
31136WAT     H293651   3.346   8.200   7.676
31137WAT      O93652   9.701   7.534   1.552
31137WAT     H193653   9.679   7.452   1.605
31137WAT     H293654   9.656   7.613   1.593
31138WAT      O93655   5.472   3.488   2.971
31138WAT     H193656   5.560   3.447   2.945
31138WAT     H293657   5.406   3.476   2.897
31139WAT      O93658   6.436   1.883   5.805
31139WAT     H193659   6.520   1.921   5.764
31139WAT     H293660   6.447   1.880   5.905
31140WAT      O93661   9.146   1.644   3.349
31140WAT     H193662   9.193   1.704   3.284
31140WAT     H293663   9.210   1.575   3.383
31141WAT      O93664   7.655   3.247   7.537
31141WAT     H193665   7.684   3.304   7.614
31141WAT     H293666   7.563   3.275   7.508
31142WAT      O93667   0.004   3.065   4.660
31142WAT     H193668   0.079   3.017   4.704
31142WAT     H293669   0.007   3.162   4.685
31143WAT      O93670   7.789   7.520   0.967
31143WAT     H193671   7.780   7.618   0.979
31143WAT     H293672   7.722   7.472   1.024
31144WAT      O93673   7.979   0.781   8.567
31144WAT     H193674   7.951   0.877   8.559
31144WAT     H293675   8.007   0.747   8.477
31145WAT      O93676   5.438   2.982   4.191
31145WAT     H193677   5.459   2.887   4.211
31145WAT     H293678   5.515   3.024   4.142
31146WAT      O93679   1.378   4.399   7.613
31146WAT     H193680   1.457   4.366   7.665
31146WAT     H293681   1.395   4.493   7.584
31147WAT      O93682   5.032   5.946   0.018
31147WAT     H193683   4.950   5.910  -0.026
31147WAT     H293684   5.100   5.969  -0.052
31148WAT      O93685   2.833   5.825   4.889
31148WAT     H193686   2.800   5.906   4.840
31148WAT     H293687   2.910   5.786   4.840
31149WAT      O93688   0.308   4.376   2.546
31149WAT     H193689   0.403   4.360   2.522
31149WAT     H293690   0.299   4.466   2.589
31150WAT      O93691   1.302   7.713   1.437
31150WAT     H193692   1.211   7.737   1.471
31150WAT     H293693   1.319   7.762   1.351
31151WAT      O93694   7.908   2.676   5.758
31151WAT     H193695   7.963   2.748   5.715
31151WAT     H293696   7.873   2.614   5.688
31152WAT      O93697   4.371   0.214   3.676
31152WAT     H193698   4.335   0.265   3.754
31152WAT     H293699   4.374   0.117   3.697
31153WAT      O93700   5.427   2.875   9.262
31153WAT     H193701   5.490   2.883   9.185
31153WAT     H293702   5.473   2.904   9.346
31154WAT      O93703   9.743   3.737   1.550
31154WAT     H193704   9.833   3.737   1.507
31154WAT     H293705   9.747   3.689   1.638
31155WAT      O93706   0.147   9.051   9.804
31155WAT     H193707   0.144   9.150   9.814
31155WAT     H293708   0.194   9.027   9.720
31156WAT      O93709   9.068   8.039   6.846
31156WAT     H193710   9.025   8.130   6.845
31156WAT     H293711   9.019   7.979   6.782
31157WAT      O93712   5.806   5.801   0.673
31157WAT     H193713   5.711   5.826   0.657
31157WAT     H293714   5.809   5.716   0.727
31158WAT      O93715   5.772   3.484   0.542
31158WAT     H193716   5.744   3.479   0.637
31158WAT     H293717   5.857   3.537   0.534
31159WAT      O93718   8.293   2.604   0.576
31159WAT     H193719   8.318   2.521   0.627
31159WAT     H293720   8.359   2.676   0.595
31160WAT      O93721   5.872   5.789   1.639
31160WAT     H193722   5.782   5.791   1.596
31160WAT     H293723   5.926   5.713   1.601
31161WAT      O93724   3.397   8.035   7.106
31161WAT     H193725   3.476   8.034   7.046
31161WAT     H293726   3.314   8.052   7.052
31162WAT      O93727   7.904   5.726   1.746
31162WAT     H193728   7.921   5.798   1.679
31162WAT     H293729   7.828   5.669   1.715
31163WAT      O93730   8.765   5.091   4.551
31163WAT     H193731   8.794   5.077   4.646
31163WAT     H293732   8.751   5.002   4.507
31164WAT      O93733   4.326   1.446   8.026
31164WAT     H193734   4.415   1.452   7.981
31164WAT     H293735   4.310   1.352   8.056
31165WAT      O93736   9.333   3.800   6.429
31165WAT     H193737   9.253   3.754   6.468
31165WAT     H293738   9.320   3.899   6.433
31166WAT      O93739   9.879   7.609   3.649
31166WAT     H193740   9.928   7.640   3.568
31166WAT     H293741   9.782   7.599   3.627
31167WAT      O93742   8.305   0.850   5.651
31167WAT     H193743   8.376   0.810   5.593
31167WAT     H293744   8.267   0.931   5.606
31168WAT      O93745   1.659   9.650   8.018
31168WAT     H193746   1.689   9.731   7.969
31168WAT     H293747   1.677   9.661   8.116
31169WAT      O93748   3.539   3.610   3.477
31169WAT     H193749   3.487   3.560   3.408
31169WAT     H293750   3.569   3.548   3.549
31170WAT      O93751   3.155   7.197   6.418
31170WAT     H193752   3.219   7.235   6.485
31170WAT     H293753   3.203   7.183   6.331
31171WAT      O93754   5.906   1.029   0.156
31171WAT     H193755   5.939   1.113   0.199
31171WAT     H293756   5.808   1.039   0.135
31172WAT      O93757   6.107   8.086   2.975
31172WAT     H193758   6.097   8.149   3.051
31172WAT     H293759   6.087   8.133   2.889
31173WAT      O93760   0.850   4.901   3.708
31173WAT     H193761   0.846   4.994   3.747
31173WAT     H293762   0.759   4.873   3.679
31174WAT      O93763   5.677   5.308   0.570
31174WAT     H193764   5.691   5.403   0.542
31174WAT     H293765   5.621   5.261   0.502
31175WAT      O93766   7.860   8.050   5.727
31175WAT     H193767   7.818   8.013   5.644
31175WAT     H293768   7.920   7.982   5.768
31176WAT      O93769   4.498   7.876   6.629
31176WAT     H193770   4.572   7.927   6.585
31176WAT     H293771   4.433   7.845   6.559
31177WAT      O93772   6.955   3.055   8.850
31177WAT     H193773   6.999   3.047   8.939
31177WAT     H293774   6.971   2.971   8.797
31178WAT      O93775   2.363   8.254   4.459
31178WAT     H193776   2.350   8.273   4.556
31178WAT     H293777   2.442   8.305   4.425
31179WAT      O93778   4.700   6.514   8.368
31179WAT     H193779   4.703   6.414   8.373
31179WAT     H293780   4.682   6.542   8.273
31180WAT      O93781   6.862   0.388   1.714
31180WAT     H193782   6.949   0.388   1.664
31180WAT     H293783   6.864   0.319   1.786
31181WAT      O93784   6.011   6.485   7.811
31181WAT     H193785   6.063   6.531   7.882
31181WAT     H293786   6.072   6.424   7.760
31182WAT      O93787   8.815   3.205   2.801
31182WAT     H193788   8.798   3.109   2.777
31182WAT     H293789   8.873   3.210   2.882
31183WAT      O93790   3.263   0.812   5.186
31183WAT     H193791   3.251   0.786   5.090
31183WAT     H293792   3.230   0.737   5.245
31184WAT      O93793   5.187   3.333   7.964
31184WAT     H193794   5.200   3.240   7.931
31184WAT     H293795   5.149   3.389   7.890
31185WAT      O93796   0.606   5.655   5.556
31185WAT     H193797   0.656   5.728   5.510
31185WAT     H293798   0.645   5.566   5.530
31186WAT      O93799   7.187   7.712   8.535
31186WAT     H193800   7.123   7.786   8.513
31186WAT     H293801   7.135   7.627   8.547
31187WAT      O93802   7.048   8.671   4.910
31187WAT     H193803   6.948   8.664   4.916
31187WAT     H293804   7.087   8.683   5.001
31188WAT      O93805   3.479   0.696   9.151
31188WAT     H193806   3.451   0.714   9.246
31188WAT     H293807   3.567   0.648   9.151
31189WAT      O93808   0.339   1.121   2.306
31189WAT     H193809   0.398   1.130   2.226
31189WAT     H293810   0.280   1.201   2.313
31190WAT      O93811   5.805   2.756   2.164
31190WAT     H193812   5.864   2.732   2.087
31190WAT     H293813   5.738   2.824   2.135
31191WAT      O93814   7.954   2.658   2.985
31191WAT     H193815   7.991   2.664   3.077
31191WAT     H293816   7.895   2.578   2.977
31192WAT      O93817   6.883   2.692   7.443
31192WAT     H193818   6.913   2.630   7.516
31192WAT     H293819   6.792   2.727   7.464
31193WAT      O93820   8.455   3.829   8.598
31193WAT     H193821   8.460   3.873   8.509
31193WAT     H293822   8.548   3.805   8.629
31194WAT      O93823   2.150   1.649   7.202
31194WAT     H193824   2.223   1.712   7.226
31194WAT     H293825   2.062   1.698   7.204
31195WAT      O93826   7.607   8.571   8.467
31195WAT     H193827   7.538   8.588   8.398
31195WAT     H293828   7.650   8.658   8.493
31196WAT      O93829   6.745   3.286   7.448
31196WAT     H193830   6.814   3.298   7.520
31196WAT     H293831   6.696   3.372   7.435
31197WAT      O93832   8.174   0.519  -0.001
31197WAT     H193833   8.247   0.456   0.026
31197WAT     H293834   8.085   0.478   0.020
31198WAT      O93835   1.087   2.321   4.691
31198WAT     H193836   1.058   2.329   4.787
31198WAT     H293837   1.163   2.382   4.674
31199WAT      O93838   8.488   7.835   7.204
31199WAT     H193839   8.452   7.795   7.289
31199WAT     H293840   8.443   7.793   7.126
31200WAT      O93841   1.127   6.590   9.119
31200WAT     H193842   1.141   6.602   9.218
31200WAT     H293843   1.192   6.523   9.084
31201WAT      O93844   3.454   9.261   0.616
31201WAT     H193845   3.436   9.254   0.518
31201WAT     H293846   3.390   9.201   0.665
31202WAT      O93847   2.941   2.364   3.913
31202WAT     H193848   2.954   2.332   4.007
31202WAT     H293849   2.848   2.400   3.903
31203WAT      O93850   3.086   7.587   3.284
31203WAT     H193851   3.107   7.633   3.370
31203WAT     H293852   3.091   7.654   3.209
31204WAT      O93853   9.122   7.297   8.008
31204WAT     H193854   9.168   7.281   8.096
31204WAT     H293855   9.183   7.270   7.933
31205WAT      O93856   8.637   0.965   6.909
31205WAT     H193857   8.612   1.060   6.927
31205WAT     H293858   8.587   0.904   6.970
31206WAT      O93859   1.559   7.542   3.282
31206WAT     H193860   1.551   7.478   3.206
31206WAT     H293861   1.472   7.592   3.292
31207WAT      O93862   0.296   9.198   7.821
31207WAT     H193863   0.265   9.164   7.732
31207WAT     H293864   0.394   9.218   7.818
31208WAT      O93865   9.481   2.484   6.170
31208WAT     H193866   9.475   2.516   6.264
31208WAT     H293867   9.547   2.539   6.119
31209WAT      O93868   2.170   6.344   1.960
31209WAT     H193869   2.256   6.382   1.994
31209WAT     H293870   2.105   6.335   2.035
31210WAT      O93871   0.725   6.524   9.244
31210WAT     H193872   0.694   6.618   9.227
31210WAT     H293873   0.763   6.518   9.336
31211WAT      O93874   9.490   6.348   1.423
31211WAT     H193875   9.447   6.379   1.338
31211WAT     H293876   9.436   6.273   1.461
31212WAT      O93877   7.181   4.822   0.329
31212WAT     H193878   7.244   4.828   0.252
31212WAT     H293879   7.101   4.879   0.312
31213WAT      O93880   1.117   0.920   4.752
31213WAT     H193881   1.074   0.994   4.802
31213WAT     H293882   1.155   0.955   4.666
31214WAT      O93883   7.626   0.980   0.424
31214WAT     H193884   7.558   1.047   0.454
31214WAT     H293885   7.597   0.940   0.337
31215WAT      O93886   9.795   1.280   0.266
31215WAT     H193887   9.865   1.351   0.261
31215WAT     H293888   9.837   1.193   0.292
31216WAT      O93889   7.311   2.393   3.821
31216WAT     H193890   7.274   2.328   3.888
31216WAT     H293891   7.411   2.388   3.823
31217WAT      O93892   4.836   0.787   8.871
31217WAT     H193893   4.850   0.841   8.954
31217WAT     H293894   4.918   0.733   8.852
31218WAT      O93895   5.681   7.470   6.521
31218WAT     H193896   5.607   7.530   6.549
31218WAT     H293897   5.653   7.374   6.532
31219WAT      O93898   9.313   0.132   6.258
31219WAT     H193899   9.279   0.207   6.200
31219WAT     H293900   9.245   0.058   6.259
31220WAT      O93901   0.859   8.031   9.000
31220WAT     H193902   0.850   7.985   9.089
31220WAT     H293903   0.870   8.130   9.015
31221WAT      O93904   9.079   3.706   2.587
31221WAT     H193905   9.119   3.786   2.632
31221WAT     H293906   9.118   3.623   2.626
31222WAT      O93907   7.308   7.119   4.768
31222WAT     H193908   7.377   7.104   4.839
31222WAT     H293909   7.217   7.100   4.805
31223WAT      O93910   1.899   3.023   3.919
31223WAT     H193911   1.953   2.943   3.893
31223WAT     H293912   1.805   3.012   3.885
31224WAT      O93913   1.240   5.183   5.557
31224WAT     H193914   1.318   5.204   5.615
31224WAT     H293915   1.227   5.084   5.552
31225WAT      O93916   1.626   8.640   3.459
31225WAT     H193917   1.632   8.576   3.383
31225WAT     H293918   1.675   8.602   3.538
31226WAT      O93919   3.636   2.682   7.051
31226WAT     H193920   3.688   2.597   7.059
31226WAT     H293921   3.558   2.669   6.991
31227WAT      O93922   0.669   3.737   4.503
31227WAT     H193923   0.574   3.706   4.505
31227WAT     H293924   0.725   3.668   4.457
31228WAT      O93925   3.838   4.492   9.559
31228WAT     H193926   3.799   4.568   9.507
31228WAT     H293927   3.771   4.457   9.624
31229WAT      O93928   2.867   0.388   2.282
31229WAT     H193929   2.950   0.362   2.233
31229WAT     H293930   2.788   0.375   2.222
31230WAT      O93931   7.633   5.148   2.348
31230WAT     H193932   7.558   5.206   2.315
31230WAT     H293933   7.719   5.178   2.305
31231WAT      O93934   4.215   4.928   8.636
31231WAT     H193935   4.263   4.924   8.549
31231WAT     H293936   4.234   4.846   8.689
31232WAT      O93937   3.001   3.558   0.579
31232WAT     H193938   3.069   3.486   0.566
31232WAT     H293939   3.016   3.603   0.667
31233WAT      O93940   0.824   5.523   7.390
31233WAT     H193941   0.897   5.571   7.342
31233WAT     H293942   0.752   5.498   7.325
31234WAT      O93943   0.969   5.709   8.256
31234WAT     H193944   0.899   5.664   8.201
31234WAT     H293945   0.926   5.765   8.327
31235WAT      O93946   1.384   4.472   4.405
31235WAT     H193947   1.402   4.544   4.472
31235WAT     H293948   1.460   4.407   4.405
31236WAT      O93949   4.306   0.399   7.309
31236WAT     H193950   4.211   0.429   7.295
31236WAT     H293951   4.324   0.320   7.251
31237WAT      O93952   3.109   2.022   7.121
31237WAT     H193953   3.048   1.960   7.072
31237WAT     H293954   3.196   1.976   7.140
31238WAT      O93955   9.760   4.551   3.351
31238WAT     H193956   9.679   4.570   3.407
31238WAT     H293957   9.747   4.588   3.260
31239WAT      O93958   7.311   8.712   2.580
31239WAT     H193959   7.367   8.682   2.657
31239WAT     H293960   7.313   8.812   2.575
31240WAT      O93961   4.672   5.351   5.685
31240WAT     H193962   4.635   5.302   5.763
31240WAT     H293963   4.654   5.449   5.695
31241WAT      O93964   7.124   2.509   8.648
31241WAT     H193965   7.077   2.520   8.561
31241WAT     H293966   7.222   2.520   8.635
31242WAT      O93967   9.556   9.254   0.788
31242WAT     H193968   9.543   9.335   0.731
31242WAT     H293969   9.472   9.199   0.787
31243WAT      O93970   7.632   4.691   5.882
31243WAT     H193971   7.691   4.697   5.802
31243WAT     H293972   7.573   4.772   5.886
31244WAT      O93973   7.631   6.210   0.320
31244WAT     H193974   7.645   6.132   0.260
31244WAT     H293975   7.719   6.242   0.354
31245WAT      O93976   9.550   5.761   2.173
31245WAT     H193977   9.500   5.730   2.092
31245WAT     H293978   9.491   5.818   2.229
31246WAT      O93979   3.852   5.895   5.492
31246WAT     H193980   3.904   5.952   5.428
31246WAT     H293981   3.883   5.913   5.585
31247WAT      O93982   9.502   2.557   1.426
31247WAT     H193983   9.442   2.538   1.504
31247WAT     H293984   9.572   2.485   1.420
31248WAT      O93985   4.280   3.731   8.256
31248WAT     H193986   4.217   3.728   8.333
31248WAT     H293987   4.232   3.764   8.175
31249WAT      O93988   6.231   0.647   6.236
31249WAT     H193989   6.175   0.567   6.255
31249WAT     H293990   6.321   0.618   6.204
31250WAT      O93991   4.867   8.527   9.856
31250WAT     H193992   4.805   8.450   9.872
31250WAT     H293993   4.893   8.567   9.944
31251WAT      O93994   6.682   4.928   1.187
31251WAT     H193995   6.753   4.940   1.256
31251WAT     H293996   6.721   4.880   1.108
31252WAT      O93997   5.595   9.493   0.023
31252WAT     H193998   5.622   9.562   0.090
31252WAT     H293999   5.624   9.403   0.055
31253WAT      O94000   5.574   9.837   7.541
31253WAT     H194001   5.672   9.845   7.522
31253WAT     H294002   5.539   9.922   7.580
31254WAT      O94003   4.517   2.830   8.231
31254WAT     H194004   4.495   2.750   8.287
31254WAT     H294005   4.450   2.838   8.157
31255WAT      O94006   4.513   1.517   2.112
31255WAT     H194007   4.441   1.515   2.181
31255WAT     H294008   4.544   1.611   2.098
31256WAT      O94009   5.268   5.870   0.654
31256WAT     H194010   5.237   5.797   0.715
31256WAT     H294011   5.255   5.959   0.698
31257WAT      O94012   3.310   8.209   4.218
31257WAT     H194013   3.284   8.186   4.311
31257WAT     H294014   3.356   8.131   4.176
31258WAT      O94015   1.354   8.658   9.113
31258WAT     H194016   1.418   8.731   9.137
31258WAT     H294017   1.263   8.681   9.148
31259WAT      O94018   6.589   1.003   6.962
31259WAT     H194019   6.585   1.098   6.993
31259WAT     H294020   6.511   0.953   6.997
31260WAT      O94021   3.111   9.290   4.214
31260WAT     H194022   3.148   9.243   4.295
31260WAT     H294023   3.169   9.271   4.135
31261WAT      O94024   5.567   3.647   8.888
31261WAT     H194025   5.554   3.558   8.932
31261WAT     H294026   5.483   3.700   8.896
31262WAT      O94027   1.593   4.323   1.993
31262WAT     H194028   1.565   4.284   1.905
31262WAT     H294029   1.610   4.249   2.058
31263WAT      O94030   7.843   6.948   4.019
31263WAT     H194031   7.807   6.994   3.938
31263WAT     H294032   7.824   6.850   4.013
31264WAT      O94033   7.361   4.777   7.526
31264WAT     H194034   7.279   4.832   7.512
31264WAT     H294035   7.377   4.720   7.445
31265WAT      O94036   5.602   7.826   5.776
31265WAT     H194037   5.647   7.746   5.737
31265WAT     H294038   5.647   7.909   5.745
31266WAT      O94039   4.880   1.450   2.874
31266WAT     H194040   4.849   1.362   2.911
31266WAT     H294041   4.848   1.460   2.780
31267WAT      O94042   2.707   6.535   7.371
31267WAT     H194043   2.670   6.451   7.411
31267WAT     H294044   2.716   6.524   7.272
31268WAT      O94045   8.443   1.778   0.260
31268WAT     H194046   8.354   1.758   0.218
31268WAT     H294047   8.511   1.712   0.227
31269WAT      O94048   8.309   5.708   7.826
31269WAT     H194049   8.287   5.793   7.874
31269WAT     H294050   8.407   5.691   7.830
31270WAT      O94051   4.911   6.534   7.617
31270WAT     H194052   4.950   6.513   7.707
31270WAT     H294053   4.865   6.623   7.621
31271WAT      O94054   8.240   5.257   8.746
31271WAT     H194055   8.145   5.260   8.778
31271WAT     H294056   8.260   5.165   8.711
31272WAT      O94057   4.810   8.886   1.430
31272WAT     H194058   4.838   8.967   1.480
31272WAT     H294059   4.729   8.846   1.472
31273WAT      O94060   0.719   5.121   9.773
31273WAT     H194061   0.743   5.120   9.870
31273WAT     H294062   0.783   5.063   9.722
31274WAT      O94063   7.775   5.795   4.401
31274WAT     H194064   7.739   5.824   4.312
31274WAT     H294065   7.812   5.702   4.393
31275WAT      O94066   6.757   7.299   2.126
31275WAT     H194067   6.834   7.240   2.098
31275WAT     H294068   6.686   7.243   2.169
31276WAT      O94069   9.116   7.153   3.280
31276WAT     H194070   9.098   7.069   3.228
31276WAT     H294071   9.089   7.232   3.225
31277WAT      O94072   3.482   8.328   0.110
31277WAT     H194073   3.382   8.331   0.105
31277WAT     H294074   3.521   8.395   0.047
31278WAT      O94075   5.734   1.722   3.859
31278WAT     H194076   5.660   1.705   3.793
31278WAT     H294077   5.819   1.682   3.825
31279WAT      O94078   5.143   4.229   6.665
31279WAT     H194079   5.190   4.142   6.648
31279WAT     H294080   5.107   4.230   6.758
31280WAT      O94081   7.577   1.787   3.054
31280WAT     H194082   7.617   1.699   3.079
31280WAT     H294083   7.565   1.792   2.955
31281WAT      O94084   5.950   8.169   5.631
31281WAT     H194085   6.008   8.090   5.610
31281WAT     H294086   5.870   8.139   5.684
31282WAT      O94087   0.278   9.349   2.065
31282WAT     H194088   0.205   9.286   2.040
31282WAT     H294089   0.348   9.301   2.118
31283WAT      O94090   6.776   2.208   8.821
31283WAT     H194091   6.860   2.187   8.771
31283WAT     H294092   6.712   2.255   8.760
31284WAT      O94093   9.634   6.262   2.857
31284WAT     H194094   9.706   6.192   2.855
31284WAT     H294095   9.579   6.255   2.774
31285WAT      O94096   8.778   1.879   4.519
31285WAT     H194097   8.734   1.933   4.448
31285WAT     H294098   8.708   1.826   4.568
31286WAT      O94099   8.302   8.458   8.437
31286WAT     H194100   8.232   8.434   8.504
31286WAT     H294101   8.310   8.385   8.369
31287WAT      O94102   2.255   5.128   7.499
31287WAT     H194103   2.225   5.160   7.589
31287WAT     H294104   2.295   5.203   7.448
31288WAT      O94105   9.172   4.783   4.779
31288WAT     H194106   9.171   4.850   4.853
31288WAT     H294107   9.159   4.831   4.692
31289WAT      O94108   6.531   6.762   3.425
31289WAT     H194109   6.608   6.713   3.466
31289WAT     H294110   6.449   6.705   3.430
31290WAT      O94111   7.618   0.854   9.573
31290WAT     H194112   7.635   0.758   9.596
31290WAT     H294113   7.571   0.859   9.485
31291WAT      O94114   2.263   6.510   9.148
31291WAT     H194115   2.341   6.556   9.106
31291WAT     H294116   2.258   6.535   9.245
31292WAT      O94117   1.624   2.078   8.997
31292WAT     H194118   1.662   2.131   9.073
31292WAT     H294119   1.561   2.009   9.033
31293WAT      O94120   9.784   1.462   1.451
31293WAT     H194121   9.860   1.399   1.432
31293WAT     H294122   9.809   1.553   1.418
31294WAT      O94123   4.081   1.424   1.185
31294WAT     H194124   4.078   1.347   1.249
31294WAT     H294125   4.129   1.501   1.227
31295WAT      O94126   5.608   0.768   6.031
31295WAT     H194127   5.677   0.838   6.046
31295WAT     H294128   5.518   0.803   6.059
31296WAT      O94129   9.772   0.559   6.231
31296WAT     H194130   9.723   0.480   6.266
31296WAT     H294131   9.870   0.539   6.228
31297WAT      O94132   1.101   0.559   6.084
31297WAT     H194133   1.178   0.526   6.138
31297WAT     H294134   1.016   0.523   6.122
31298WAT      O94135   8.920   5.421   0.190
31298WAT     H194136   8.903   5.337   0.137
31298WAT     H294137   8.994   5.404   0.256
31299WAT      O94138   6.784   8.586   6.862
31299WAT     H194139   6.768   8.495   6.826
31299WAT     H294140   6.746   8.655   6.800
31300WAT      O94141   2.064   0.921   6.371
31300WAT     H194142   1.988   0.925   6.307
31300WAT     H294143   2.030   0.898   6.462
31301WAT      O94144   5.505   0.804   7.636
31301WAT     H194145   5.537   0.897   7.618
31301WAT     H294146   5.421   0.787   7.585
31302WAT      O94147   0.474   5.044   8.681
31302WAT     H194148   0.428   5.124   8.643
31302WAT     H294149   0.572   5.049   8.662
31303WAT      O94150   4.667   4.429   3.009
31303WAT     H194151   4.651   4.431   2.910
31303WAT     H294152   4.607   4.495   3.054
31304WAT      O94153   5.844   7.434   6.032
31304WAT     H194154   5.809   7.523   6.003
31304WAT     H294155   5.789   7.400   6.108
31305WAT      O94156   7.596   2.263   3.403
31305WAT     H194157   7.524   2.324   3.372
31305WAT     H294158   7.672   2.266   3.338
31306WAT      O94159   5.102   8.390   4.595
31306WAT     H194160   5.023   8.337   4.563
31306WAT     H294161   5.185   8.335   4.585
31307WAT      O94162   7.942   4.933   5.660
31307WAT     H194163   8.019   4.927   5.597
31307WAT     H294164   7.912   5.028   5.668
31308WAT      O94165   0.421   0.749   1.178
31308WAT     H194166   0.459   0.841   1.180
31308WAT     H294167   0.494   0.682   1.194
31309WAT      O94168   7.151   7.848   8.144
31309WAT     H194169   7.220   7.820   8.076
31309WAT     H294170   7.068   7.795   8.130
31310WAT      O94171   6.986   6.615   3.203
31310WAT     H194172   6.980   6.714   3.194
31310WAT     H294173   6.894   6.575   3.199
31311WAT      O94174   1.381   9.648   0.016
31311WAT     H194175   1.306   9.583   0.004
31311WAT     H294176   1.427   9.663  -0.072
31312WAT      O94177   4.283   5.759   8.368
31312WAT     H194178   4.327   5.831   8.421
31312WAT     H294179   4.308   5.670   8.406
31313WAT      O94180   2.198   0.092   9.672
31313WAT     H194181   2.156   0.183   9.672
31313WAT     H294182   2.253   0.081   9.589
31314WAT      O94183   8.039   8.301   2.010
31314WAT     H194184   8.107   8.326   1.940
31314WAT     H294185   7.992   8.383   2.042
31315WAT      O94186   3.211   4.685   1.933
31315WAT     H194187   3.269   4.652   1.859
31315WAT     H294188   3.144   4.749   1.897
31316WAT      O94189   9.236   4.304   4.752
31316WAT     H194190   9.234   4.248   4.835
31316WAT     H294191   9.208   4.248   4.673
31317WAT      O94192   4.975   1.631   0.068
31317WAT     H194193   4.930   1.670   0.149
31317WAT     H294194   5.056   1.579   0.097
31318WAT      O94195   2.941   5.004   0.364
31318WAT     H194196   2.856   4.976   0.410
31318WAT     H294197   3.019   4.961   0.408
31319WAT      O94198   9.579   7.482   6.544
31319WAT     H194199   9.583   7.389   6.507
31319WAT     H294200   9.660   7.533   6.515
31320WAT      O94201   3.898   0.462   7.972
31320WAT     H194202   3.871   0.524   7.900
31320WAT     H294203   3.969   0.505   8.028
31321WAT      O94204   9.306   4.287   9.756
31321WAT     H194205   9.316   4.377   9.798
31321WAT     H294206   9.265   4.224   9.822
31322WAT      O94207   7.589   9.405   4.100
31322WAT     H194208   7.570   9.471   4.172
31322WAT     H294209   7.663   9.344   4.130
31323WAT      O94210   9.263   2.294   2.507
31323WAT     H194211   9.360   2.316   2.490
31323WAT     H294212   9.206   2.337   2.437
31324WAT      O94213   7.246   3.382   6.033
31324WAT     H194214   7.277   3.356   6.124
31324WAT     H294215   7.311   3.448   5.993
31325WAT      O94216   4.971   4.679   5.924
31325WAT     H194217   4.961   4.763   5.977
31325WAT     H294218   5.057   4.682   5.872
31326WAT      O94219   0.621   3.945   8.816
31326WAT     H194220   0.648   3.925   8.722
31326WAT     H294221   0.698   3.932   8.877
31327WAT      O94222   2.667   1.832   7.123
31327WAT     H194223   2.634   1.744   7.088
31327WAT     H294224   2.747   1.817   7.181
31328WAT      O94225   0.982   1.699   9.861
31328WAT     H194226   0.989   1.605   9.827
31328WAT     H294227   1.063   1.721   9.915
31329WAT      O94228   6.714   7.579   9.039
31329WAT     H194229   6.731   7.483   9.016
31329WAT     H294230   6.618   7.592   9.062
31330WAT      O94231   4.758   1.641   3.029
31330WAT     H194232   4.696   1.680   2.961
31330WAT     H294233   4.820   1.576   2.984
31331WAT      O94234   8.101   2.817   1.180
31331WAT     H194235   8.031   2.821   1.251
31331WAT     H294236   8.155   2.901   1.180
31332WAT      O94237   7.177   5.508   6.632
31332WAT     H194238   7.159   5.544   6.540
31332WAT     H294239   7.110   5.436   6.653
31333WAT      O94240   8.939   8.384   6.287
31333WAT     H194241   9.031   8.404   6.321
31333WAT     H294242   8.939   8.293   6.244
31334WAT      O94243   0.910   0.698   3.638
31334WAT     H194244   1.009   0.706   3.648
31334WAT     H294245   0.883   0.727   3.546
31335WAT      O94246   1.800   9.568   5.763
31335WAT     H194247   1.754   9.509   5.697
31335WAT     H294248   1.794   9.528   5.854
31336WAT      O94249   7.546   1.788   9.356
31336WAT     H194250   7.510   1.713   9.411
31336WAT     H294251   7.646   1.792   9.367
31337WAT      O94252   9.875   3.644   4.428
31337WAT     H194253   9.844   3.571   4.490
31337WAT     H294254   9.901   3.723   4.482
31338WAT      O94255   3.946   7.415   7.027
31338WAT     H194256   3.900   7.484   6.972
31338WAT     H294257   3.879   7.364   7.080
31339WAT      O94258   8.296   9.129   7.748
31339WAT     H194259   8.275   9.107   7.843
31339WAT     H294260   8.344   9.217   7.744
31340WAT      O94261   4.014   8.577   5.957
31340WAT     H194262   4.025   8.654   6.020
31340WAT     H294263   3.964   8.503   6.003
31341WAT      O94264   0.160   9.152   3.843
31341WAT     H194265   0.123   9.130   3.934
31341WAT     H294266   0.129   9.084   3.777
31342WAT      O94267   7.159   2.980   2.248
31342WAT     H194268   7.165   3.014   2.155
31342WAT     H294269   7.246   2.941   2.276
31343WAT      O94270   7.667   7.933   2.727
31343WAT     H194271   7.747   7.968   2.677
31343WAT     H294272   7.695   7.857   2.785
31344WAT      O94273   2.688   0.987   8.519
31344WAT     H194274   2.785   0.970   8.539
31344WAT     H294275   2.643   1.023   8.600
31345WAT      O94276   3.809   9.628   7.997
31345WAT     H194277   3.790   9.630   8.095
31345WAT     H294278   3.836   9.535   7.971
31346WAT      O94279   2.056   9.414   8.515
31346WAT     H194280   2.057   9.431   8.613
31346WAT     H294281   2.032   9.499   8.467
31347WAT      O94282   0.971   2.914   5.735
31347WAT     H194283   0.888   2.863   5.756
31347WAT     H294284   0.976   2.994   5.793
31348WAT      O94285   3.868   8.918   7.618
31348WAT     H194286   3.811   8.881   7.691
31348WAT     H294287   3.822   8.997   7.576
31349WAT      O94288   2.610   1.121   4.506
31349WAT     H194289   2.622   1.094   4.411
31349WAT     H294290   2.563   1.048   4.556
31350WAT      O94291   2.826   4.017   7.482
31350WAT     H194292   2.904   4.013   7.545
31350WAT     H294293   2.847   4.080   7.407
31351WAT      O94294   3.120   6.543   4.121
31351WAT     H194295   3.059   6.495   4.183
31351WAT     H294296   3.213   6.539   4.157
31352WAT      O94297   8.279   1.752   1.544
31352WAT     H194298   8.199   1.712   1.500
31352WAT     H294299   8.341   1.678   1.573
31353WAT      O94300   2.172   6.518   9.835
31353WAT     H194301   2.176   6.584   9.760
31353WAT     H294302   2.263   6.480   9.851
31354WAT      O94303   5.519   2.980   7.101
31354WAT     H194304   5.545   2.922   7.023
31354WAT     H294305   5.491   3.070   7.067
31355WAT      O94306   2.408   6.402   2.095
31355WAT     H194307   2.497   6.375   2.056
31355WAT     H294308   2.382   6.337   2.166
31356WAT      O94309   5.974   4.263   1.755
31356WAT     H194310   5.942   4.278   1.848
31356WAT     H294311   5.998   4.166   1.743
31357WAT      O94312   7.328   6.188   5.848
31357WAT     H194313   7.290   6.100   5.819
31357WAT     H294314   7.362   6.238   5.768
31358WAT      O94315   3.713   6.402   4.378
31358WAT     H194316   3.741   6.456   4.298
31358WAT     H294317   3.746   6.448   4.461
31359WAT      O94318   8.827   4.170   1.789
31359WAT     H194319   8.849   4.170   1.691
31359WAT     H294320   8.912   4.169   1.842
31360WAT      O94321   6.649   6.606   7.406
31360WAT     H194322   6.568   6.662   7.418
31360WAT     H294323   6.651   6.534   7.476
31361WAT      O94324   1.417   9.436   1.819
31361WAT     H194325   1.443   9.343   1.795
31361WAT     H294326   1.317   9.443   1.825
31362WAT      O94327   6.669   3.847   3.235
31362WAT     H194328   6.591   3.885   3.285
31362WAT     H294329   6.752   3.897   3.260
31363WAT      O94330   0.458   8.881   8.047
31363WAT     H194331   0.435   8.965   8.098
31363WAT     H294332   0.469   8.805   8.111
31364WAT      O94333   4.478   9.630   7.211
31364WAT     H194334   4.520   9.701   7.268
31364WAT     H294335   4.544   9.599   7.142
31365WAT      O94336   6.472   2.331   3.095
31365WAT     H194337   6.403   2.373   3.035
31365WAT     H294338   6.501   2.398   3.163
31366WAT      O94339   6.087   9.068   4.853
31366WAT     H194340   6.136   8.985   4.828
31366WAT     H294341   6.091   9.134   4.778
31367WAT      O94342   8.397   4.894   5.688
31367WAT     H194343   8.480   4.944   5.663
31367WAT     H294344   8.338   4.885   5.608
31368WAT      O94345   2.467   2.061   4.641
31368WAT     H194346   2.427   2.046   4.550
31368WAT     H294347   2.555   2.012   4.646
31369WAT      O94348   8.885   6.121   8.773
31369WAT     H194349   8.848   6.152   8.861
31369WAT     H294350   8.959   6.182   8.745
31370WAT      O94351   7.127   4.466   7.497
31370WAT     H194352   7.214   4.418   7.494
31370WAT     H294353   7.079   4.454   7.410
31371WAT      O94354   4.341   0.972   0.177
31371WAT     H194355   4.363   0.879   0.150
31371WAT     H294356   4.392   0.997   0.259
31372WAT      O94357   5.357   6.321   3.398
31372WAT     H194358   5.439   6.271   3.371
31372WAT     H294359   5.369   6.419   3.379
31373WAT      O94360   5.484   3.456   9.079
31373WAT     H194361   5.431   3.532   9.114
31373WAT     H294362   5.424   3.378   9.061
31374WAT      O94363   3.091   8.290   7.827
31374WAT     H194364   3.164   8.315   7.890
31374WAT     H294365   3.130   8.263   7.739
31375WAT      O94366   1.997   1.255   7.612
31375WAT     H194367   1.999   1.354   7.597
31375WAT     H294368   2.033   1.208   7.531
31376WAT      O94369   7.034   6.967   0.980
31376WAT     H194370   7.095   6.961   0.901
31376WAT     H294371   7.084   6.938   1.062
31377WAT      O94372   3.930   4.829   1.438
31377WAT     H194373   3.914   4.748   1.496
31377WAT     H294374   3.845   4.880   1.428
31378WAT      O94375   6.841   6.653   3.976
31378WAT     H194376   6.750   6.620   4.001
31378WAT     H294377   6.834   6.746   3.939
31379WAT      O94378   4.595   2.786   9.845
31379WAT     H194379   4.665   2.858   9.848
31379WAT     H294380   4.606   2.725   9.923
31380WAT      O94381   3.645   9.185   6.753
31380WAT     H194382   3.597   9.171   6.839
31380WAT     H294383   3.580   9.206   6.681
31381WAT      O94384   3.146   9.171   4.451
31381WAT     H194385   3.105   9.099   4.507
31381WAT     H294386   3.161   9.252   4.507
31382WAT      O94387   9.017   6.017   4.812
31382WAT     H194388   9.098   6.011   4.871
31382WAT     H294389   8.956   6.088   4.846
31383WAT      O94390   6.061   5.645   4.736
31383WAT     H194391   6.036   5.714   4.805
31383WAT     H294392   6.031   5.676   4.646
31384WAT      O94393   6.062   7.908   5.601
31384WAT     H194394   6.038   7.843   5.528
31384WAT     H294395   6.048   7.865   5.690
31385WAT      O94396   8.638   4.669   7.620
31385WAT     H194397   8.541   4.691   7.620
31385WAT     H294398   8.660   4.615   7.539
31386WAT      O94399   5.220   3.908   7.535
31386WAT     H194400   5.172   3.892   7.621
31386WAT     H294401   5.256   3.821   7.501
31387WAT      O94402   0.365   6.090   8.515
31387WAT     H194403   0.356   6.189   8.530
31387WAT     H294404   0.307   6.041   8.580
31388WAT      O94405   3.812   8.352   1.783
31388WAT     H194406   3.879   8.371   1.855
31388WAT     H294407   3.737   8.418   1.790
31389WAT      O94408   5.686   2.131   2.857
31389WAT     H194409   5.742   2.054   2.885
31389WAT     H294410   5.739   2.191   2.796
31390WAT      O94411   0.116   5.627   1.702
31390WAT     H194412   0.148   5.536   1.673
31390WAT     H294413   0.149   5.696   1.638
31391WAT      O94414   8.026   9.185   7.404
31391WAT     H194415   8.019   9.168   7.503
31391WAT     H294416   8.007   9.101   7.354
31392WAT      O94417   1.110   2.464   8.615
31392WAT     H194418   1.068   2.525   8.548
31392WAT     H294419   1.049   2.454   8.694
31393WAT      O94420   3.452   4.229   2.691
31393WAT     H194421   3.497   4.183   2.614
31393WAT     H294422   3.486   4.192   2.777
31394WAT      O94423   0.248   3.892   0.150
31394WAT     H194424   0.260   3.796   0.174
31394WAT     H294425   0.158   3.923   0.179
31395WAT      O94426   2.699   9.458   0.073
31395WAT     H194427   2.614   9.477   0.123
31395WAT     H294428   2.763   9.410   0.132
31396WAT      O94429   4.996   8.757   0.970
31396WAT     H194430   5.032   8.798   0.886
31396WAT     H294431   4.983   8.828   1.039
31397WAT      O94432   3.504   3.942   2.534
31397WAT     H194433   3.551   4.023   2.498
31397WAT     H294434   3.552   3.909   2.615
31398WAT      O94435   6.177   5.208   3.680
31398WAT     H194436   6.234   5.126   3.684
31398WAT     H294437   6.105   5.202   3.749
31399WAT      O94438   8.872   3.812   5.999
31399WAT     H194439   8.947   3.805   6.064
31399WAT     H294440   8.796   3.861   6.041
31400WAT      O94441   3.762   4.451   5.990
31400WAT     H194442   3.682   4.465   6.048
31400WAT     H294443   3.755   4.363   5.943
31401WAT      O94444   4.055   1.816   9.176
31401WAT     H194445   3.984   1.880   9.148
31401WAT     H294446   4.083   1.760   9.098
31402WAT      O94447   4.882   9.744   2.558
31402WAT     H194448   4.818   9.712   2.488
31402WAT     H294449   4.975   9.747   2.520
31403WAT      O94450   4.557   6.495   3.982
31403WAT     H194451   4.549   6.564   3.910
31403WAT     H294452   4.563   6.404   3.941
31404WAT      O94453   0.374   3.927   5.137
31404WAT     H194454   0.349   3.995   5.068
31404WAT     H294455   0.454   3.876   5.106
31405WAT      O94456   5.820   9.647   9.633
31405WAT     H194457   5.735   9.617   9.591
31405WAT     H294458   5.898   9.607   9.584
31406WAT      O94459   6.418   6.130   8.219
31406WAT     H194460   6.387   6.044   8.179
31406WAT     H294461   6.340   6.190   8.234
31407WAT      O94462   3.537   0.011   2.795
31407WAT     H194463   3.588  -0.014   2.877
31407WAT     H294464   3.440  -0.008   2.808
31408WAT      O94465   0.260   8.273   3.394
31408WAT     H194466   0.285   8.364   3.425
31408WAT     H294467   0.263   8.270   3.294
31409WAT      O94468   7.863   3.253   7.317
31409WAT     H194469   7.800   3.218   7.385
31409WAT     H294470   7.815   3.268   7.231
31410WAT      O94471   2.359   5.925   2.959
31410WAT     H194472   2.283   5.880   3.008
31410WAT     H294473   2.434   5.942   3.023
31411WAT      O94474   6.353   2.205   8.327
31411WAT     H194475   6.374   2.121   8.376
31411WAT     H294476   6.309   2.183   8.240
31412WAT      O94477   6.199   1.723   7.777
31412WAT     H194478   6.257   1.642   7.769
31412WAT     H294479   6.105   1.695   7.796
31413WAT      O94480   7.958   8.560   0.430
31413WAT     H194481   7.925   8.467   0.412
31413WAT     H294482   7.880   8.619   0.452
31414WAT      O94483   6.834   6.879   7.709
31414WAT     H194484   6.863   6.785   7.723
31414WAT     H294485   6.874   6.914   7.625
31415WAT      O94486   2.288   3.235   7.782
31415WAT     H194487   2.369   3.282   7.817
31415WAT     H294488   2.288   3.140   7.813
31416WAT      O94489   0.556   5.744   9.878
31416WAT     H194490   0.568   5.645   9.872
31416WAT     H294491   0.481   5.764   9.941
31417WAT      O94492   3.250   8.092   4.474
31417WAT     H194493   3.209   8.011   4.433
31417WAT     H294494   3.338   8.068   4.516
31418WAT      O94495   4.207   3.126   2.592
31418WAT     H194496   4.216   3.061   2.516
31418WAT     H294497   4.287   3.120   2.651
31419WAT      O94498   8.139   5.823   8.641
31419WAT     H194499   8.194   5.891   8.688
31419WAT     H294500   8.102   5.758   8.708
31420WAT      O94501   5.699   3.602   0.306
31420WAT     H194502   5.613   3.588   0.257
31420WAT     H294503   5.692   3.562   0.398
31421WAT      O94504   6.966   0.273   5.693
31421WAT     H194505   6.956   0.324   5.779
31421WAT     H294506   7.016   0.188   5.709
31422WAT      O94507   0.912   9.155   6.817
31422WAT     H194508   0.847   9.121   6.885
31422WAT     H294509   0.904   9.100   6.733
31423WAT      O94510   1.641   7.970   0.609
31423WAT     H194511   1.617   7.897   0.545
31423WAT     H294512   1.707   7.935   0.676
31424WAT      O94513   2.728   1.562   9.336
31424WAT     H194514   2.659   1.612   9.285
31424WAT     H294515   2.693   1.472   9.362
31425WAT      O94516   9.734   5.085   4.442
31425WAT     H194517   9.787   5.166   4.419
31425WAT     H294518   9.774   5.040   4.522
31426WAT      O94519   9.424   2.715   5.930
31426WAT     H194520   9.350   2.734   5.995
31426WAT     H294521   9.507   2.693   5.981
31427WAT      O94522   3.682   3.239   2.512
31427WAT     H194523   3.613   3.307   2.489
31427WAT     H294524   3.693   3.235   2.611
31428WAT      O94525   3.210   7.718   0.142
31428WAT     H194526   3.223   7.628   0.182
31428WAT     H294527   3.197   7.709   0.043
31429WAT      O94528   8.595   8.276   1.308
31429WAT     H194529   8.679   8.324   1.281
31429WAT     H294530   8.599   8.182   1.275
31430WAT      O94531   1.448   8.400   4.890
31430WAT     H194532   1.522   8.425   4.827
31430WAT     H294533   1.360   8.423   4.848
31431WAT      O94534   9.153   9.617   5.408
31431WAT     H194535   9.207   9.572   5.479
31431WAT     H294536   9.201   9.612   5.320
31432WAT      O94537   9.587   4.482   5.405
31432WAT     H194538   9.632   4.571   5.411
31432WAT     H294539   9.642   4.420   5.349
31433WAT      O94540   5.633   5.104   6.646
31433WAT     H194541   5.680   5.159   6.715
31433WAT     H294542   5.648   5.144   6.556
31434WAT      O94543   8.317   6.772   9.352
31434WAT     H194544   8.403   6.725   9.373
31434WAT     H294545   8.251   6.755   9.425
31435WAT      O94546   9.672   2.648   6.058
31435WAT     H194547   9.725   2.618   5.979
31435WAT     H294548   9.722   2.719   6.107
31436WAT      O94549   0.677   8.815   5.001
31436WAT     H194550   0.695   8.749   5.074
31436WAT     H294551   0.756   8.821   4.940
31437WAT      O94552   3.111   1.790   9.754
31437WAT     H194553   3.188   1.811   9.694
31437WAT     H294554   3.026   1.824   9.713
31438WAT      O94555   6.033   2.996   7.793
31438WAT     H194556   6.051   3.075   7.852
31438WAT     H294557   6.105   2.928   7.805
31439WAT      O94558   8.010   9.523   2.077
31439WAT     H194559   7.963   9.572   2.003
31439WAT     H294560   8.015   9.582   2.157
31440WAT      O94561   2.388   9.400   0.148
31440WAT     H194562   2.364   9.364   0.057
31440WAT     H294563   2.411   9.324   0.209
31441WAT      O94564   2.122   5.447   9.204
31441WAT     H194565   2.104   5.509   9.280
31441WAT     H294566   2.129   5.499   9.119
31442WAT      O94567   0.506   7.255   4.219
31442WAT     H194568   0.508   7.179   4.284
31442WAT     H294569   0.515   7.341   4.269
31443WAT      O94570   0.123   9.812   2.869
31443WAT     H194571   0.161   9.903   2.856
31443WAT     H294572   0.179   9.746   2.818
31444WAT      O94573   9.701   2.070   1.978
31444WAT     H194574   9.669   2.159   1.947
31444WAT     H294575   9.623   2.006   1.980
31445WAT      O94576   8.881   3.942   5.657
31445WAT     H194577   8.913   4.037   5.660
31445WAT     H294578   8.806   3.931   5.723
31446WAT      O94579   1.825   5.857   3.274
31446WAT     H194580   1.832   5.947   3.316
31446WAT     H294581   1.793   5.867   3.180
31447WAT      O94582   1.605   5.056   8.172
31447WAT     H194583   1.635   5.152   8.177
31447WAT     H294584   1.544   5.036   8.249
31448WAT      O94585   0.270   9.031   2.663
31448WAT     H194586   0.336   9.020   2.737
31448WAT     H294587   0.178   9.034   2.700
31449WAT      O94588   4.255   1.383   6.619
31449WAT     H194589   4.299   1.293   6.618
31449WAT     H294590   4.197   1.392   6.539
31450WAT      O94591   8.114   3.228   0.836
31450WAT     H194592   8.056   3.248   0.915
31450WAT     H294593   8.058   3.230   0.753
31451WAT      O94594   2.213   6.719   2.402
31451WAT     H194595   2.211   6.627   2.363
31451WAT     H294596   2.158   6.722   2.485
31452WAT      O94597   4.314   2.805   9.462
31452WAT     H194598   4.258   2.880   9.496
31452WAT     H294599   4.376   2.840   9.391
31453WAT      O94600   2.085   6.924   7.035
31453WAT     H194601   2.093   7.006   6.978
31453WAT     H294602   1.990   6.909   7.060
31454WAT      O94603   5.883   1.121   3.616
31454WAT     H194604   5.875   1.030   3.577
31454WAT     H294605   5.805   1.177   3.587
31455WAT      O94606   5.670   0.377   8.450
31455WAT     H194607   5.645   0.393   8.545
31455WAT     H294608   5.621   0.297   8.415
31456WAT      O94609   9.019   0.580   5.183
31456WAT     H194610   9.117   0.602   5.179
31456WAT     H294611   8.995   0.522   5.106
31457WAT      O94612   1.302   3.500   2.688
31457WAT     H194613   1.391   3.531   2.720
31457WAT     H294614   1.239   3.577   2.686
31458WAT      O94615   5.685   1.643   5.186
31458WAT     H194616   5.713   1.585   5.263
31458WAT     H294617   5.633   1.721   5.219
31459WAT      O94618   5.038   1.331   6.798
31459WAT     H194619   5.039   1.396   6.721
31459WAT     H294620   4.944   1.300   6.814
31460WAT      O94621   3.830   4.917   6.656
31460WAT     H194622   3.871   4.941   6.743
31460WAT     H294623   3.838   4.994   6.593
31461WAT      O94624   3.749   1.997   0.381
31461WAT     H194625   3.661   2.037   0.409
31461WAT     H294626   3.741   1.962   0.287
31462WAT      O94627   9.381   7.003   8.257
31462WAT     H194628   9.351   6.997   8.352
31462WAT     H294629   9.422   6.917   8.230
31463WAT      O94630   5.820   4.475   3.348
31463WAT     H194631   5.906   4.432   3.322
31463WAT     H294632   5.758   4.407   3.385
31464WAT      O94633   9.471   0.262   5.659
31464WAT     H194634   9.398   0.248   5.592
31464WAT     H294635   9.460   0.196   5.733
31465WAT      O94636   1.520   4.066   5.326
31465WAT     H194637   1.557   4.154   5.295
31465WAT     H294638   1.586   3.993   5.307
31466WAT      O94639   2.157   2.141   8.660
31466WAT     H194640   2.225   2.070   8.677
31466WAT     H294641   2.168   2.175   8.566
31467WAT      O94642   8.541   7.003   8.350
31467WAT     H194643   8.580   7.080   8.300
31467WAT     H294644   8.465   7.036   8.407
31468WAT      O94645   5.113   6.155   0.516
31468WAT     H194646   5.088   6.106   0.433
31468WAT     H294647   5.213   6.159   0.524
31469WAT      O94648   1.360   7.730   8.983
31469WAT     H194649   1.316   7.818   8.963
31469WAT     H294650   1.297   7.655   8.961
31470WAT      O94651   7.622   2.477   4.986
31470WAT     H194652   7.557   2.428   5.044
31470WAT     H294653   7.599   2.574   4.986
31471WAT      O94654   5.833   7.295   5.306
31471WAT     H194655   5.790   7.381   5.278
31471WAT     H294656   5.799   7.268   5.396
31472WAT      O94657   8.448   0.193   8.091
31472WAT     H194658   8.399   0.107   8.109
31472WAT     H294659   8.441   0.252   8.171
31473WAT      O94660   6.869   4.772   0.927
31473WAT     H194661   6.882   4.831   0.847
31473WAT     H294662   6.957   4.736   0.958
31474WAT      O94663   6.215   7.704   4.712
31474WAT     H194664   6.171   7.621   4.747
31474WAT     H294665   6.314   7.690   4.709
31475WAT      O94666   1.861   8.215   9.008
31475WAT     H194667   1.815   8.189   8.923
31475WAT     H294668   1.886   8.132   9.059
31476WAT      O94669   3.500   0.796   6.668
31476WAT     H194670   3.508   0.791   6.569
31476WAT     H294671   3.447   0.719   6.702
31477WAT      O94672   6.478   5.962   9.380
31477WAT     H194673   6.397   5.980   9.436
31477WAT     H294674   6.558   5.949   9.439
31478WAT      O94675   5.790   0.108   3.099
31478WAT     H194676   5.812   0.010   3.094
31478WAT     H294677   5.811   0.152   3.012
31479WAT      O94678   4.716   6.280   1.577
31479WAT     H194679   4.632   6.241   1.539
31479WAT     H294680   4.724   6.376   1.551
31480WAT      O94681   5.785   9.489   0.305
31480WAT     H194682   5.752   9.428   0.232
31480WAT     H294683   5.884   9.498   0.298
31481WAT      O94684   8.796   2.077   8.539
31481WAT     H194685   8.718   2.030   8.500
31481WAT     H294686   8.787   2.176   8.524
31482WAT      O94687   3.485   1.729   8.397
31482WAT     H194688   3.526   1.650   8.353
31482WAT     H294689   3.504   1.811   8.343
31483WAT      O94690   7.334   1.039   5.187
31483WAT     H194691   7.331   1.013   5.283
31483WAT     H294692   7.401   0.982   5.139
31484WAT      O94693   2.937   1.739   1.716
31484WAT     H194694   2.924   1.835   1.693
31484WAT     H294695   2.918   1.682   1.636
31485WAT      O94696   7.236   6.083   1.046
31485WAT     H194697   7.149   6.034   1.057
31485WAT     H294698   7.246   6.151   1.118
31486WAT      O94699   0.766   3.397   3.219
31486WAT     H194700   0.803   3.482   3.258
31486WAT     H294701   0.822   3.369   3.140
31487WAT      O94702   9.553   6.804   4.453
31487WAT     H194703   9.493   6.872   4.495
31487WAT     H294704   9.559   6.724   4.512
31488WAT      O94705   4.427   1.517   2.859
31488WAT     H194706   4.327   1.517   2.851
31488WAT     H294707   4.460   1.424   2.872
31489WAT      O94708   8.611   6.953   5.890
31489WAT     H194709   8.659   6.874   5.928
31489WAT     H294710   8.519   6.926   5.863
31490WAT      O94711   9.123   2.912   5.665
31490WAT     H194712   9.114   2.968   5.582
31490WAT     H294713   9.207   2.937   5.712
31491WAT      O94714   9.418   5.014   8.586
31491WAT     H194715   9.383   4.986   8.676
31491WAT     H294716   9.515   4.987   8.579
31492WAT      O94717   3.848   6.002   8.705
31492WAT     H194718   3.910   5.996   8.783
31492WAT     H294719   3.877   6.075   8.643
31493WAT      O94720   9.602   7.406   4.285
31493WAT     H194721   9.583   7.487   4.340
31493WAT     H294722   9.629   7.331   4.344
31494WAT      O94723   5.539   0.878   2.069
31494WAT     H194724   5.478   0.925   2.005
31494WAT     H294725   5.598   0.814   2.019
31495WAT      O94726   8.505   2.435   5.161
31495WAT     H194727   8.485   2.480   5.248
31495WAT     H294728   8.579   2.484   5.115
31496WAT      O94729   2.834   9.412   8.968
31496WAT     H194730   2.829   9.473   8.889
31496WAT     H294731   2.772   9.334   8.955
31497WAT      O94732   2.859   7.954   1.921
31497WAT     H194733   2.866   7.957   1.821
31497WAT     H294734   2.938   8.000   1.961
31498WAT      O94735   0.027   0.307   6.952
31498WAT     H194736   0.027   0.210   6.927
31498WAT     H294737  -0.053   0.328   7.009
31499WAT      O94738   7.369   4.880   0.815
31499WAT     H194739   7.415   4.803   0.771
31499WAT     H294740   7.308   4.925   0.748
31500WAT      O94741   3.144   1.022   2.011
31500WAT     H194742   3.120   0.930   1.980
31500WAT     H294743   3.221   1.056   1.957
31501WAT      O94744   2.707   0.137   2.365
31501WAT     H194745   2.763   0.215   2.336
31501WAT     H294746   2.766   0.057   2.376
31502WAT      O94747   7.641   9.141   7.121
31502WAT     H194748   7.669   9.232   7.152
31502WAT     H294749   7.721   9.089   7.093
31503WAT      O94750   3.431   7.985   4.122
31503WAT     H194751   3.390   7.919   4.184
31503WAT     H294752   3.423   7.952   4.028
31504WAT      O94753   4.983   6.013   8.595
31504WAT     H194754   5.018   5.973   8.680
31504WAT     H294755   4.910   5.956   8.559
31505WAT      O94756   0.201   7.851   5.754
31505WAT     H194757   0.264   7.927   5.769
31505WAT     H294758   0.246   7.782   5.696
31506WAT      O94759   8.539   4.580   2.988
31506WAT     H194760   8.629   4.537   3.001
31506WAT     H294761   8.472   4.535   3.047
31507WAT      O94762   5.399   5.607   9.151
31507WAT     H194763   5.301   5.617   9.139
31507WAT     H294764   5.433   5.535   9.091
31508WAT      O94765   8.922   8.618   5.428
31508WAT     H194766   8.916   8.599   5.526
31508WAT     H294767   8.843   8.578   5.382
31509WAT      O94768   2.673   3.955   8.933
31509WAT     H194769   2.600   3.934   8.868
31509WAT     H294770   2.680   3.881   9.000
31510WAT      O94771   6.075   0.380   0.332
31510WAT     H194772   5.999   0.422   0.282
31510WAT     H294773   6.077   0.416   0.425
31511WAT      O94774   1.399   0.256   7.045
31511WAT     H194775   1.353   0.169   7.061
31511WAT     H294776   1.374   0.320   7.118
31512WAT      O94777   5.637   5.605   4.501
31512WAT     H194778   5.571   5.616   4.427
31512WAT     H294779   5.606   5.655   4.582
31513WAT      O94780   9.751   7.134   8.230
31513WAT     H194781   9.778   7.038   8.226
31513WAT     H294782   9.665   7.143   8.279
31514WAT      O94783   6.913   9.094   7.984
31514WAT     H194784   6.835   9.075   8.043
31514WAT     H294785   6.996   9.100   8.039
31515WAT      O94786   6.780   1.459   4.438
31515WAT     H194787   6.760   1.422   4.528
31515WAT     H294788   6.869   1.506   4.440
31516WAT      O94789   6.322   0.290   5.864
31516WAT     H194790   6.326   0.281   5.964
31516WAT     H294791   6.270   0.373   5.840
31517WAT      O94792   1.529   9.111   8.917
31517WAT     H194793   1.616   9.095   8.872
31517WAT     H294794   1.483   9.188   8.874
31518WAT      O94795   9.014   1.654   8.024
31518WAT     H194796   8.926   1.640   7.979
31518WAT     H294797   9.088   1.635   7.959
31519WAT      O94798   6.893   7.684   1.699
31519WAT     H194799   6.854   7.737   1.624
31519WAT     H294800   6.826   7.678   1.773
31520WAT      O94801   8.092   1.732   2.583
31520WAT     H194802   8.111   1.817   2.634
31520WAT     H294803   8.050   1.666   2.645
31521WAT      O94804   8.799   5.519   0.569
31521WAT     H194805   8.766   5.535   0.476
31521WAT     H294806   8.722   5.513   0.632
31522WAT      O94807   2.106   6.825   9.116
31522WAT     H194808   2.195   6.870   9.109
31522WAT     H294809   2.110   6.735   9.073
31523WAT      O94810   3.044   7.163   0.633
31523WAT     H194811   3.094   7.130   0.713
31523WAT     H294812   3.065   7.105   0.555
31524WAT      O94813   1.704   7.602   5.749
31524WAT     H194814   1.684   7.691   5.790
31524WAT     H294815   1.620   7.548   5.742
31525WAT      O94816   3.855   3.031   6.470
31525WAT     H194817   3.847   2.983   6.557
31525WAT     H294818   3.792   2.991   6.404
31526WAT      O94819   1.403   7.369   4.116
31526WAT     H194820   1.318   7.372   4.169
31526WAT     H294821   1.464   7.442   4.147
31527WAT      O94822   7.624   4.963   9.051
31527WAT     H194823   7.542   5.013   9.080
31527WAT     H294824   7.680   5.022   8.993
31528WAT      O94825   3.474   5.126   6.510
31528WAT     H194826   3.421   5.043   6.493
31528WAT     H294827   3.484   5.140   6.608
31529WAT      O94828   5.095   4.431   8.477
31529WAT     H194829   5.085   4.342   8.522
31529WAT     H294830   5.054   4.427   8.386
31530WAT      O94831   4.611   0.957   4.609
31530WAT     H194832   4.615   0.903   4.525
31530WAT     H294833   4.700   0.999   4.626
31531WAT      O94834   4.279   0.446   9.677
31531WAT     H194835   4.253   0.416   9.585
31531WAT     H294836   4.266   0.545   9.685
31532WAT      O94837   7.913   4.856   3.699
31532WAT     H194838   7.872   4.776   3.744
31532WAT     H294839   7.849   4.932   3.700
31533WAT      O94840   9.300   1.685   3.994
31533WAT     H194841   9.299   1.596   3.948
31533WAT     H294842   9.297   1.758   3.926
31534WAT      O94843   9.796   3.332   3.348
31534WAT     H194844   9.874   3.315   3.408
31534WAT     H294845   9.829   3.354   3.256
31535WAT      O94846   1.034   1.172   2.188
31535WAT     H194847   0.934   1.175   2.198
31535WAT     H294848   1.066   1.258   2.150
31536WAT      O94849   3.141   9.364   7.435
31536WAT     H194850   3.107   9.296   7.499
31536WAT     H294851   3.229   9.399   7.467
31537WAT      O94852   4.542   6.274   0.956
31537WAT     H194853   4.516   6.227   1.040
31537WAT     H294854   4.568   6.368   0.977
31538WAT      O94855   5.978   2.379   0.325
31538WAT     H194856   6.033   2.449   0.278
31538WAT     H294857   5.886   2.415   0.341
31539WAT      O94858   1.055   8.016   8.660
31539WAT     H194859   0.966   8.033   8.703
31539WAT     H294860   1.088   8.100   8.616
31540WAT      O94861   7.696   2.914   4.244
31540WAT     H194862   7.743   2.827   4.257
31540WAT     H294863   7.761   2.989   4.254
31541WAT      O94864   1.790   8.668   4.656
31541WAT     H194865   1.884   8.679   4.688
31541WAT     H294866   1.785   8.698   4.560
31542WAT      O94867   0.587   5.875   2.649
31542WAT     H194868   0.522   5.812   2.692
31542WAT     H294869   0.662   5.823   2.607
31543WAT      O94870   6.761   2.143   3.282
31543WAT     H194871   6.745   2.117   3.187
31543WAT     H294872   6.858   2.165   3.295
31544WAT      O94873   5.875   2.042   6.941
31544WAT     H194874   5.784   2.066   6.975
31544WAT     H294875   5.875   2.049   6.841
31545WAT      O94876   3.570   4.307   1.199
31545WAT     H194877   3.476   4.283   1.221
31545WAT     H294878   3.598   4.260   1.116
31546WAT      O94879   4.748   3.084   7.005
31546WAT     H194880   4.818   3.014   7.022
31546WAT     H294881   4.676   3.076   7.074
31547WAT      O94882   2.463   2.654   3.685
31547WAT     H194883   2.558   2.624   3.677
31547WAT     H294884   2.411   2.620   3.606
31548WAT      O94885   6.636   3.679   0.629
31548WAT     H194886   6.692   3.614   0.579
31548WAT     H294887   6.676   3.771   0.620
31549WAT      O94888   6.625   8.051   6.008
31549WAT     H194889   6.574   8.135   6.024
31549WAT     H294890   6.627   8.031   5.910
31550WAT      O94891   7.757   6.511   4.455
31550WAT     H194892   7.767   6.491   4.357
31550WAT     H294893   7.703   6.439   4.498
31551WAT      O94894   3.546   6.661   5.124
31551WAT     H194895   3.627   6.695   5.076
31551WAT     H294896   3.574   6.626   5.214
31552WAT      O94897   6.798   8.716   4.981
31552WAT     H194898   6.723   8.650   4.984
31552WAT     H294899   6.760   8.809   4.991
31553WAT      O94900   5.851   6.477   4.059
31553WAT     H194901   5.812   6.504   3.971
31553WAT     H294902   5.945   6.512   4.065
31554WAT      O94903   4.927   7.611   9.121
31554WAT     H194904   4.959   7.560   9.041
31554WAT     H294905   4.931   7.709   9.103
31555WAT      O94906   1.475   7.359   6.414
31555WAT     H194907   1.438   7.375   6.323
31555WAT     H294908   1.565   7.401   6.422
31556WAT      O94909   4.829   4.318   3.369
31556WAT     H194910   4.894   4.381   3.412
31556WAT     H294911   4.743   4.366   3.350
31557WAT      O94912   7.104   0.025   5.732
31557WAT     H194913   7.076  -0.048   5.669
31557WAT     H294914   7.114  -0.013   5.824
31558WAT      O94915   0.010   6.312   7.287
31558WAT     H194916  -0.046   6.242   7.331
31558WAT     H294917   0.008   6.396   7.343
31559WAT      O94918   1.055   1.236   2.810
31559WAT     H194919   1.064   1.145   2.850
31559WAT     H294920   1.122   1.247   2.736
31560WAT      O94921   6.902   8.308   6.058
31560WAT     H194922   6.928   8.211   6.067
31560WAT     H294923   6.831   8.317   5.989
31561WAT      O94924   8.643   9.139   6.862
31561WAT     H194925   8.594   9.062   6.902
31561WAT     H294926   8.737   9.112   6.841
31562WAT      O94927   1.312   4.248   0.998
31562WAT     H194928   1.342   4.344   0.993
31562WAT     H294929   1.230   4.236   0.942
31563WAT      O94930   5.980   3.282   3.965
31563WAT     H194931   5.911   3.238   4.023
31563WAT     H294932   5.952   3.376   3.945
31564WAT      O94933   2.454   6.118   9.786
31564WAT     H194934   2.391   6.093   9.859
31564WAT     H294935   2.484   6.036   9.738
31565WAT      O94936   7.740   6.015   3.481
31565WAT     H194937   7.661   6.076   3.484
31565WAT     H294938   7.783   6.020   3.391
31566WAT      O94939   7.403   4.564   5.121
31566WAT     H194940   7.341   4.489   5.100
31566WAT     H294941   7.354   4.651   5.114
31567WAT      O94942   0.494   7.824   6.553
31567WAT     H194943   0.403   7.782   6.558
31567WAT     H294944   0.558   7.771   6.609
31568WAT      O94945   1.373   1.081   1.581
31568WAT     H194946   1.340   1.174   1.593
31568WAT     H294947   1.439   1.078   1.506
31569WAT      O94948   2.034   2.805   8.794
31569WAT     H194949   1.984   2.763   8.870
31569WAT     H294950   2.094   2.738   8.752
31570WAT      O94951   3.382   7.433   4.558
31570WAT     H194952   3.380   7.346   4.510
31570WAT     H294953   3.350   7.420   4.652
31571WAT      O94954   7.776   8.763   3.303
31571WAT     H194955   7.709   8.833   3.275
31571WAT     H294956   7.755   8.677   3.257
31572WAT      O94957   7.812   2.141   1.767
31572WAT     H194958   7.891   2.138   1.706
31572WAT     H294959   7.842   2.166   1.859
31573WAT      O94960   2.300   7.734   3.573
31573WAT     H194961   2.380   7.770   3.524
31573WAT     H294962   2.236   7.695   3.507
31574WAT      O94963   5.486   1.632   6.212
31574WAT     H194964   5.568   1.676   6.178
31574WAT     H294965   5.489   1.534   6.189
31575WAT      O94966   4.135   5.958   6.783
31575WAT     H194967   4.070   6.013   6.730
31575WAT     H294968   4.111   5.962   6.879
31576WAT      O94969   2.035   7.966   1.757
31576WAT     H194970   1.987   7.988   1.673
31576WAT     H294971   1.984   8.002   1.835
31577WAT      O94972   3.089   9.772   3.363
31577WAT     H194973   3.097   9.863   3.323
31577WAT     H294974   3.155   9.711   3.320
31578WAT      O94975   0.417   5.291   4.615
31578WAT     H194976   0.423   5.345   4.699
31578WAT     H294977   0.468   5.337   4.542
31579WAT      O94978   1.694   0.872   7.546
31579WAT     H194979   1.710   0.967   7.571
31579WAT     H294980   1.783   0.827   7.532
31580WAT      O94981   1.730   4.460   6.238
31580WAT     H194982   1.782   4.424   6.161
31580WAT     H294983   1.692   4.384   6.291
31581WAT      O94984   4.698   8.378   5.811
31581WAT     H194985   4.664   8.322   5.886
31581WAT     H294986   4.768   8.441   5.844
31582WAT      O94987   1.997   2.439   2.096
31582WAT     H194988   1.943   2.483   2.024
31582WAT     H294989   2.039   2.356   2.060
31583WAT      O94990   6.209   6.568   0.590
31583WAT     H194991   6.233   6.653   0.543
31583WAT     H294992   6.255   6.564   0.678
31584WAT      O94993   1.692   1.608   3.662
31584WAT     H194994   1.705   1.681   3.729
31584WAT     H294995   1.707   1.519   3.705
31585WAT      O94996   0.384   0.683   5.895
31585WAT     H194997   0.294   0.638   5.891
31585WAT     H294998   0.377   0.775   5.857
31586WAT      O94999   0.598   7.445   8.780
31586WAT     H195000   0.525   7.463   8.714
31586WAT     H295001   0.660   7.376   8.743
31587WAT      O95002   8.275   4.742   3.239
31587WAT     H195003   8.195   4.684   3.226
31587WAT     H295004   8.265   4.825   3.183
31588WAT      O95005   5.737   1.283   2.020
31588WAT     H195006   5.649   1.279   1.974
31588WAT     H295007   5.808   1.309   1.955
31589WAT      O95008   6.431   6.998   8.415
31589WAT     H195009   6.521   6.996   8.372
31589WAT     H295010   6.403   6.904   8.438
31590WAT      O95011   6.002   6.007   3.234
31590WAT     H195012   6.029   6.095   3.193
31590WAT     H295013   5.938   6.024   3.309
31591WAT      O95014   0.599   2.622   7.142
31591WAT     H195015   0.678   2.684   7.145
31591WAT     H295016   0.628   2.530   7.166
31592WAT      O95017   3.051   4.470   2.045
31592WAT     H195018   3.134   4.494   1.993
31592WAT     H295019   3.007   4.553   2.078
31593WAT      O95020   0.186   0.896   2.276
31593WAT     H195021   0.230   0.986   2.268
31593WAT     H295022   0.137   0.891   2.363
31594WAT      O95023   6.202   6.844   5.265
31594WAT     H195024   6.178   6.885   5.352
31594WAT     H295025   6.227   6.748   5.279
31595WAT      O95026   9.824   8.257   5.100
31595WAT     H195027   9.795   8.333   5.042
31595WAT     H295028   9.923   8.245   5.092
31596WAT      O95029   7.529   2.471   2.543
31596WAT     H195030   7.589   2.503   2.616
31596WAT     H295031   7.435   2.500   2.562
31597WAT      O95032   7.306   2.356   4.973
31597WAT     H195033   7.369   2.309   4.912
31597WAT     H295034   7.256   2.290   5.028
31598WAT      O95035   0.367   0.877   8.649
31598WAT     H195036   0.433   0.842   8.716
31598WAT     H295037   0.393   0.970   8.624
31599WAT      O95038   4.540   8.117   1.790
31599WAT     H195039   4.530   8.067   1.877
31599WAT     H295040   4.451   8.127   1.747
31600WAT      O95041   8.527   0.900   2.518
31600WAT     H195042   8.465   0.855   2.582
31600WAT     H295043   8.498   0.994   2.505
31601WAT      O95044   4.597   5.573   4.708
31601WAT     H195045   4.657   5.538   4.780
31601WAT     H295046   4.562   5.497   4.654
31602WAT      O95047   8.194   9.617   1.847
31602WAT     H195048   8.236   9.536   1.889
31602WAT     H295049   8.221   9.623   1.751
31603WAT      O95050   4.392   1.119   2.134
31603WAT     H195051   4.354   1.029   2.113
31603WAT     H295052   4.455   1.147   2.061
31604WAT      O95053   1.802   0.306   6.317
31604WAT     H195054   1.866   0.381   6.297
31604WAT     H295055   1.852   0.219   6.316
31605WAT      O95056   8.806   1.260   9.189
31605WAT     H195057   8.822   1.283   9.286
31605WAT     H295058   8.874   1.194   9.159
31606WAT      O95059   0.766   0.596   7.779
31606WAT     H195060   0.755   0.497   7.793
31606WAT     H295061   0.864   0.618   7.776
31607WAT      O95062   7.131   5.439   9.704
31607WAT     H195063   7.197   5.403   9.637
31607WAT     H295064   7.080   5.514   9.663
31608WAT      O95065   7.943   7.320   8.183
31608WAT     H195066   7.967   7.376   8.103
31608WAT     H295067   7.894   7.239   8.152
31609WAT      O95068   5.283   2.846   2.711
31609WAT     H195069   5.209   2.913   2.717
31609WAT     H295070   5.248   2.756   2.734
31610WAT      O95071   3.610   5.913   8.254
31610WAT     H195072   3.693   5.857   8.252
31610WAT     H295073   3.636   6.009   8.262
31611WAT      O95074   3.660   5.247   0.066
31611WAT     H195075   3.734   5.200   0.017
31611WAT     H295076   3.625   5.188   0.138
31612WAT      O95077   4.200   8.575   2.863
31612WAT     H195078   4.100   8.578   2.862
31612WAT     H295079   4.236   8.636   2.793
31613WAT      O95080   3.565   3.435   7.978
31613WAT     H195081   3.602   3.356   7.928
31613WAT     H295082   3.466   3.423   7.990
31614WAT      O95083   2.787   6.592   6.013
31614WAT     H195084   2.874   6.566   5.971
31614WAT     H295085   2.729   6.638   5.946
31615WAT      O95086   7.862   8.319   2.686
31615WAT     H195087   7.863   8.226   2.722
31615WAT     H295088   7.804   8.377   2.744
31616WAT      O95089   1.029   1.855   7.646
31616WAT     H195090   0.937   1.817   7.635
31616WAT     H295091   1.048   1.916   7.568
31617WAT      O95092   5.932   2.619   7.554
31617WAT     H195093   5.980   2.660   7.632
31617WAT     H295094   5.899   2.692   7.494
31618WAT      O95095   9.785   3.846   2.609
31618WAT     H195096   9.726   3.910   2.560
31618WAT     H295097   9.802   3.765   2.553
31619WAT      O95098   0.501   8.839   0.443
31619WAT     H195099   0.526   8.827   0.539
31619WAT     H295100   0.403   8.853   0.436
31620WAT      O95101   1.532   3.295   1.267
31620WAT     H195102   1.574   3.373   1.313
31620WAT     H295103   1.432   3.301   1.276
31621WAT      O95104   7.593   2.339   3.810
31621WAT     H195105   7.640   2.305   3.728
31621WAT     H295106   7.630   2.292   3.891
31622WAT      O95107   3.303   2.940   2.713
31622WAT     H195108   3.305   2.996   2.630
31622WAT     H295109   3.396   2.934   2.750
31623WAT      O95110   2.753   3.640   7.502
31623WAT     H195111   2.737   3.704   7.426
31623WAT     H295112   2.793   3.556   7.467
31624WAT      O95113   4.471   2.632   2.075
31624WAT     H195114   4.561   2.635   2.119
31624WAT     H295115   4.481   2.604   1.980
31625WAT      O95116   5.930   3.635   6.677
31625WAT     H195117   5.933   3.557   6.614
31625WAT     H295118   5.911   3.719   6.625
31626WAT      O95119   4.136   0.792   4.774
31626WAT     H195120   4.212   0.806   4.711
31626WAT     H295121   4.050   0.794   4.724
31627WAT      O95122   5.594   5.615   4.131
31627WAT     H195123   5.538   5.532   4.123
31627WAT     H295124   5.549   5.679   4.195
31628WAT      O95125   6.316   6.946   0.192
31628WAT     H195126   6.263   7.023   0.228
31628WAT     H295127   6.255   6.869   0.173
31629WAT      O95128   2.596   2.681   7.776
31629WAT     H195129   2.680   2.718   7.738
31629WAT     H295130   2.524   2.683   7.706
31630WAT      O95131   2.739   0.926   0.716
31630WAT     H195132   2.756   0.827   0.713
31630WAT     H295133   2.826   0.975   0.708
31631WAT      O95134   4.540   5.594   5.145
31631WAT     H195135   4.600   5.654   5.092
31631WAT     H295136   4.589   5.559   5.224
31632WAT      O95137   6.803   8.240   2.183
31632WAT     H195138   6.751   8.326   2.188
31632WAT     H295139   6.818   8.215   2.088
31633WAT      O95140   2.286   2.255   6.646
31633WAT     H195141   2.323   2.169   6.682
31633WAT     H295142   2.320   2.270   6.554
31634WAT      O95143   7.741   5.972   4.167
31634WAT     H195144   7.792   6.058   4.165
31634WAT     H295145   7.789   5.903   4.114
31635WAT      O95146   1.995   5.653   1.753
31635WAT     H195147   2.082   5.644   1.802
31635WAT     H295148   1.993   5.739   1.704
31636WAT      O95149   4.832   6.940   7.322
31636WAT     H195150   4.736   6.929   7.348
31636WAT     H295151   4.849   6.894   7.235
31637WAT      O95152   9.527   5.475   0.550
31637WAT     H195153   9.533   5.376   0.537
31637WAT     H295154   9.435   5.499   0.582
31638WAT      O95155   0.727   2.401   6.290
31638WAT     H195156   0.760   2.310   6.265
31638WAT     H295157   0.698   2.450   6.207
31639WAT      O95158   5.767   3.588   5.064
31639WAT     H195159   5.802   3.665   5.117
31639WAT     H295160   5.667   3.583   5.075
31640WAT      O95161   2.831   2.836   0.860
31640WAT     H195162   2.893   2.760   0.879
31640WAT     H295163   2.832   2.900   0.936
31641WAT      O95164   6.055   6.148   9.550
31641WAT     H195165   6.003   6.108   9.627
31641WAT     H295166   5.999   6.217   9.505
31642WAT      O95167   5.663   9.656   3.122
31642WAT     H195168   5.636   9.666   3.217
31642WAT     H295169   5.606   9.587   3.078
31643WAT      O95170   0.360   9.141   4.735
31643WAT     H195171   0.366   9.230   4.689
31643WAT     H295172   0.453   9.108   4.754
31644WAT      O95173   8.401   9.633   3.355
31644WAT     H195174   8.456   9.679   3.425
31644WAT     H295175   8.398   9.690   3.272
31645WAT      O95176   8.124   3.396   4.504
31645WAT     H195177   8.046   3.413   4.444
31645WAT     H295178   8.207   3.388   4.449
31646WAT      O95179   9.041   8.022   3.712
31646WAT     H195180   9.032   8.121   3.702
31646WAT     H295181   9.052   7.998   3.808
31647WAT      O95182   9.473   0.013   1.620
31647WAT     H195183   9.503   0.091   1.675
31647WAT     H295184   9.394  -0.030   1.665
31648WAT      O95185   4.067   6.213   4.901
31648WAT     H195186   4.128   6.137   4.875
31648WAT     H295187   4.036   6.260   4.819
31649WAT      O95188   0.300   7.928   1.342
31649WAT     H195189   0.291   7.858   1.414
31649WAT     H295190   0.209   7.952   1.308
31650WAT      O95191   7.495   2.762   6.069
31650WAT     H195192   7.476   2.849   6.114
31650WAT     H295193   7.583   2.767   6.022
31651WAT      O95194   0.562   8.850   5.362
31651WAT     H195195   0.513   8.829   5.447
31651WAT     H295196   0.567   8.767   5.305
31652WAT      O95197   8.103   1.870   0.375
31652WAT     H195198   8.178   1.934   0.391
31652WAT     H295199   8.134   1.797   0.314
31653WAT      O95200   1.386   7.799   3.257
31653WAT     H195201   1.397   7.794   3.158
31653WAT     H295202   1.375   7.894   3.284
31654WAT      O95203   4.397   3.024   2.781
31654WAT     H195204   4.463   2.979   2.842
31654WAT     H295205   4.345   3.091   2.833
31655WAT      O95206   2.178   2.978   7.539
31655WAT     H195207   2.225   3.050   7.488
31655WAT     H295208   2.180   2.893   7.487
31656WAT      O95209   0.842   4.455   0.240
31656WAT     H195210   0.854   4.545   0.280
31656WAT     H295211   0.745   4.437   0.225
31657WAT      O95212   9.550   4.518   9.456
31657WAT     H195213   9.499   4.450   9.509
31657WAT     H295214   9.498   4.541   9.373
31658WAT      O95215   8.464   2.145   7.885
31658WAT     H195216   8.519   2.185   7.812
31658WAT     H295217   8.370   2.181   7.880
31659WAT      O95218   8.112   4.556   0.235
31659WAT     H195219   8.012   4.553   0.238
31659WAT     H295220   8.142   4.571   0.140
31660WAT      O95221   4.140   7.242   0.196
31660WAT     H195222   4.093   7.235   0.108
31660WAT     H295223   4.235   7.269   0.181
31661WAT      O95224   9.216   6.393   2.155
31661WAT     H195225   9.129   6.351   2.180
31661WAT     H295226   9.291   6.339   2.195
31662WAT      O95227   3.431   8.343   2.278
31662WAT     H195228   3.409   8.426   2.329
31662WAT     H295229   3.493   8.286   2.332
31663WAT      O95230   9.869   6.501   1.872
31663WAT     H195231   9.789   6.450   1.839
31663WAT     H295232   9.917   6.542   1.795
31664WAT      O95233   7.797   4.413   1.944
31664WAT     H195234   7.761   4.386   2.033
31664WAT     H295235   7.720   4.434   1.882
31665WAT      O95236   5.079   9.065   3.246
31665WAT     H195237   5.001   9.109   3.202
31665WAT     H295238   5.138   9.135   3.287
31666WAT      O95239   8.674   1.091   1.820
31666WAT     H195240   8.581   1.077   1.787
31666WAT     H295241   8.672   1.148   1.903
31667WAT      O95242   3.470   1.099   1.723
31667WAT     H195243   3.525   1.052   1.654
31667WAT     H295244   3.494   1.065   1.814
31668WAT      O95245   8.213   1.031   7.267
31668WAT     H195246   8.291   1.093   7.252
31668WAT     H295247   8.227   0.980   7.352
31669WAT      O95248   8.822   0.802   5.840
31669WAT     H195249   8.793   0.885   5.792
31669WAT     H295250   8.811   0.816   5.939
31670WAT      O95251   7.525   5.217   6.414
31670WAT     H195252   7.510   5.143   6.480
31670WAT     H295253   7.481   5.194   6.328
31671WAT      O95254   6.669   7.110   1.900
31671WAT     H195255   6.713   7.082   1.986
31671WAT     H295256   6.692   7.044   1.828
31672WAT      O95257   3.234   6.563   7.930
31672WAT     H195258   3.216   6.465   7.925
31672WAT     H295259   3.170   6.612   7.871
31673WAT      O95260   4.654   7.134   6.630
31673WAT     H195261   4.746   7.157   6.663
31673WAT     H295262   4.619   7.056   6.682
31674WAT      O95263   0.090   7.401   0.851
31674WAT     H195264   0.136   7.313   0.839
31674WAT     H295265  -0.004   7.395   0.818
31675WAT      O95266   6.465   4.338   5.240
31675WAT     H195267   6.491   4.351   5.144
31675WAT     H295268   6.544   4.358   5.298
31676WAT      O95269   3.203   2.969   6.510
31676WAT     H195270   3.292   2.924   6.505
31676WAT     H295271   3.179   2.987   6.605
31677WAT      O95272   4.029   6.502   6.733
31677WAT     H195273   4.022   6.404   6.747
31677WAT     H295274   4.118   6.525   6.694
31678WAT      O95275   0.202   2.095   4.327
31678WAT     H195276   0.200   2.043   4.412
31678WAT     H295277   0.223   2.034   4.251
31679WAT      O95278   7.356   2.759   0.232
31679WAT     H195279   7.379   2.671   0.191
31679WAT     H295280   7.277   2.748   0.292
31680WAT      O95281   3.405   9.167   8.543
31680WAT     H195282   3.457   9.208   8.618
31680WAT     H295283   3.465   9.152   8.465
31681WAT      O95284   3.819   8.235   3.213
31681WAT     H195285   3.757   8.242   3.291
31681WAT     H295286   3.911   8.262   3.241
31682WAT      O95287   1.393   7.184   3.120
31682WAT     H195288   1.317   7.243   3.150
31682WAT     H295289   1.356   7.106   3.071
31683WAT      O95290   5.268   2.651   9.880
31683WAT     H195291   5.331   2.720   9.914
31683WAT     H295292   5.320   2.575   9.841
31684WAT      O95293   3.087   6.767   7.760
31684WAT     H195294   3.002   6.819   7.755
31684WAT     H295295   3.156   6.820   7.808
31685WAT      O95296   0.305   7.962   4.938
31685WAT     H195297   0.398   7.940   4.968
31685WAT     H295298   0.240   7.933   5.009
31686WAT      O95299   9.759   5.015   9.458
31686WAT     H195300   9.842   4.981   9.413
31686WAT     H295301   9.712   5.078   9.397
31687WAT      O95302   1.155   9.530   6.130
31687WAT     H195303   1.061   9.541   6.098
31687WAT     H295304   1.218   9.534   6.052
31688WAT      O95305   3.254   8.338   2.563
31688WAT     H195306   3.298   8.280   2.633
31688WAT     H295307   3.211   8.416   2.607
31689WAT      O95308   7.997   4.710   5.079
31689WAT     H195309   8.070   4.705   5.010
31689WAT     H295310   8.034   4.752   5.162
31690WAT      O95311   6.890   8.984   3.781
31690WAT     H195312   6.922   8.948   3.868
31690WAT     H295313   6.797   8.950   3.764
31691WAT      O95314   9.220   7.946   1.155
31691WAT     H195315   9.242   7.873   1.091
31691WAT     H295316   9.134   7.924   1.202
31692WAT      O95317   0.169   4.364   2.976
31692WAT     H195318   0.077   4.346   2.943
31692WAT     H295319   0.189   4.305   3.054
31693WAT      O95320   8.910   7.769   4.572
31693WAT     H195321   8.996   7.721   4.591
31693WAT     H295322   8.910   7.858   4.618
31694WAT      O95323   8.467   1.960   9.872
31694WAT     H195324   8.438   2.046   9.915
31694WAT     H295325   8.567   1.956   9.871
31695WAT      O95326   2.082   9.762   5.414
31695WAT     H195327   2.083   9.801   5.506
31695WAT     H295328   2.128   9.824   5.350
31696WAT      O95329   4.393   7.716   6.450
31696WAT     H195330   4.322   7.738   6.382
31696WAT     H295331   4.477   7.690   6.403
31697WAT      O95332   6.686   5.705   9.074
31697WAT     H195333   6.611   5.690   9.138
31697WAT     H295334   6.715   5.617   9.036
31698WAT      O95335   6.120   4.753   4.817
31698WAT     H195336   6.143   4.740   4.720
31698WAT     H295337   6.202   4.778   4.868
31699WAT      O95338   2.511   1.397   0.068
31699WAT     H195339   2.563   1.366  -0.012
31699WAT     H295340   2.467   1.484   0.047
31700WAT      O95341   1.479   0.893   7.783
31700WAT     H195342   1.469   0.826   7.857
31700WAT     H295343   1.555   0.866   7.724
31701WAT      O95344   9.795   8.069   9.337
31701WAT     H195345   9.867   8.035   9.276
31701WAT     H295346   9.779   8.166   9.319
31702WAT      O95347   4.181   1.087   0.499
31702WAT     H195348   4.139   1.101   0.409
31702WAT     H295349   4.132   1.015   0.548
31703WAT      O95350   8.991   4.742   6.996
31703WAT     H195351   8.931   4.748   6.916
31703WAT     H295352   9.070   4.685   6.974
31704WAT      O95353   6.964   8.956   2.695
31704WAT     H195354   6.880   8.978   2.646
31704WAT     H295355   6.977   8.856   2.696
31705WAT      O95356   6.812   5.915   0.922
31705WAT     H195357   6.864   5.963   0.851
31705WAT     H295358   6.721   5.892   0.887
31706WAT      O95359   4.109   5.238   9.205
31706WAT     H195360   4.125   5.185   9.122
31706WAT     H295361   4.015   5.226   9.235
31707WAT      O95362   7.928   1.509   0.242
31707WAT     H195363   7.885   1.559   0.167
31707WAT     H295364   8.028   1.520   0.237
31708WAT      O95365   1.564   0.942   5.469
31708WAT     H195366   1.613   1.024   5.439
31708WAT     H295367   1.626   0.863   5.468
31709WAT      O95368   3.802   4.650   5.336
31709WAT     H195369   3.749   4.734   5.349
31709WAT     H295370   3.843   4.651   5.245
31710WAT      O95371   1.550   1.977   7.182
31710WAT     H195372   1.610   1.977   7.102
31710WAT     H295373   1.541   2.071   7.217
31711WAT      O95374   5.384   5.384   6.099
31711WAT     H195375   5.307   5.370   6.036
31711WAT     H295376   5.386   5.310   6.165
31712WAT      O95377   9.024   2.950   1.830
31712WAT     H195378   8.980   2.890   1.896
31712WAT     H295379   9.077   2.895   1.765
31713WAT      O95380   7.765   4.038   5.046
31713WAT     H195381   7.776   3.943   5.075
31713WAT     H295382   7.685   4.046   4.987
31714WAT      O95383   2.436   7.751   9.841
31714WAT     H195384   2.341   7.724   9.829
31714WAT     H295385   2.496   7.685   9.796
31715WAT      O95386   7.117   3.987   7.916
31715WAT     H195387   7.068   3.907   7.950
31715WAT     H295388   7.174   3.961   7.838
31716WAT      O95389   7.744   7.741   0.455
31716WAT     H195390   7.651   7.717   0.484
31716WAT     H295391   7.801   7.756   0.535
31717WAT      O95392   3.471   7.446   5.593
31717WAT     H195393   3.393   7.507   5.606
31717WAT     H295394   3.537   7.489   5.531
31718WAT      O95395   3.289   3.714   1.531
31718WAT     H195396   3.306   3.721   1.432
31718WAT     H295397   3.348   3.643   1.570
31719WAT      O95398   2.892   3.313   8.992
31719WAT     H195399   2.939   3.232   9.028
31719WAT     H295400   2.953   3.361   8.929
31720WAT      O95401   5.547   6.094   6.397
31720WAT     H195402   5.568   6.076   6.493
31720WAT     H295403   5.540   6.192   6.382
31721WAT      O95404   8.041   8.498   7.386
31721WAT     H195405   8.019   8.490   7.483
31721WAT     H295406   8.006   8.585   7.351
31722WAT      O95407   5.085   2.108   1.249
31722WAT     H195408   5.124   2.033   1.302
31722WAT     H295409   5.116   2.101   1.154
31723WAT      O95410   6.902   7.006   0.087
31723WAT     H195411   6.919   7.104   0.093
31723WAT     H295412   6.893   6.968   0.179
31724WAT      O95413   8.693   0.835   8.321
31724WAT     H195414   8.704   0.804   8.415
31724WAT     H295415   8.699   0.935   8.318
31725WAT      O95416   1.436   5.028   2.105
31725WAT     H195417   1.371   5.091   2.062
31725WAT     H295418   1.520   5.078   2.127
31726WAT      O95419   4.670   0.814   1.085
31726WAT     H195420   4.743   0.882   1.080
31726WAT     H295421   4.702   0.736   1.140
31727WAT      O95422   8.193   8.932   7.585
31727WAT     H195423   8.238   8.979   7.661
31727WAT     H295424   8.213   8.979   7.499
31728WAT      O95425   5.570   2.849   5.665
31728WAT     H195426   5.653   2.898   5.638
31728WAT     H295427   5.529   2.806   5.585
31729WAT      O95428   0.464   7.903   8.168
31729WAT     H195429   0.455   7.830   8.100
31729WAT     H295430   0.553   7.896   8.213
31730WAT      O95431   6.562   2.635   7.303
31730WAT     H195432   6.587   2.597   7.392
31730WAT     H295433   6.638   2.690   7.267
31731WAT      O95434   5.082   8.295   3.884
31731WAT     H195435   5.017   8.367   3.863
31731WAT     H295436   5.062   8.214   3.828
31732WAT      O95437   1.212   0.850   0.657
31732WAT     H195438   1.163   0.781   0.709
31732WAT     H295439   1.149   0.923   0.630
31733WAT      O95440   5.792   4.541   9.561
31733WAT     H195441   5.728   4.555   9.636
31733WAT     H295442   5.814   4.444   9.553
31734WAT      O95443   0.068   5.663   5.906
31734WAT     H195444   0.014   5.676   5.823
31734WAT     H295445   0.107   5.751   5.934
31735WAT      O95446   3.914   8.592   2.868
31735WAT     H195447   3.875   8.500   2.873
31735WAT     H295448   3.874   8.650   2.939
31736WAT      O95449   3.202   0.619   7.503
31736WAT     H195450   3.179   0.522   7.506
31736WAT     H295451   3.119   0.673   7.518
31737WAT      O95452   4.745   8.028   2.406
31737WAT     H195453   4.773   8.033   2.502
31737WAT     H295454   4.710   8.118   2.378
31738WAT      O95455   1.574   2.843   9.893
31738WAT     H195456   1.562   2.855   9.795
31738WAT     H295457   1.660   2.796   9.912
31739WAT      O95458   9.816   4.845   8.423
31739WAT     H195459   9.905   4.800   8.425
31739WAT     H295460   9.762   4.809   8.347
31740WAT      O95461   7.676   0.011   2.828
31740WAT     H195462   7.659   0.070   2.906
31740WAT     H295463   7.768  -0.027   2.834
31741WAT      O95464   5.685   9.492   0.577
31741WAT     H195465   5.730   9.505   0.489
31741WAT     H295466   5.720   9.559   0.643
31742WAT      O95467   8.116   9.199   0.421
31742WAT     H195468   8.130   9.104   0.449
31742WAT     H295469   8.055   9.245   0.485
31743WAT      O95470   8.798   4.208   1.516
31743WAT     H195471   8.704   4.177   1.499
31743WAT     H295472   8.807   4.304   1.488
31744WAT      O95473   6.287   9.591   6.697
31744WAT     H195474   6.306   9.658   6.768
31744WAT     H295475   6.264   9.503   6.739
31745WAT      O95476   3.023   7.496   3.694
31745WAT     H195477   3.026   7.396   3.688
31745WAT     H295478   3.113   7.532   3.672
31746WAT      O95479   3.159   8.326   8.191
31746WAT     H195480   3.220   8.329   8.113
31746WAT     H295481   3.205   8.364   8.271
31747WAT      O95482   5.629   3.340   9.303
31747WAT     H195483   5.606   3.397   9.224
31747WAT     H295484   5.554   3.277   9.323
31748WAT      O95485   3.293   7.696   6.765
31748WAT     H195486   3.365   7.752   6.806
31748WAT     H295487   3.334   7.624   6.709
31749WAT      O95488   7.413   2.583   3.048
31749WAT     H195489   7.431   2.652   2.979
31749WAT     H295490   7.496   2.567   3.102
31750WAT      O95491   7.382   7.934   8.289
31750WAT     H195492   7.313   7.897   8.227
31750WAT     H295493   7.399   7.870   8.363
31751WAT      O95494   3.167   1.512   0.834
31751WAT     H195495   3.099   1.575   0.873
31751WAT     H295496   3.240   1.565   0.791
31752WAT      O95497   0.333   9.601   8.073
31752WAT     H195498   0.433   9.614   8.076
31752WAT     H295499   0.288   9.679   8.116
31753WAT      O95500   1.359   1.791   9.594
31753WAT     H195501   1.379   1.810   9.498
31753WAT     H295502   1.264   1.814   9.614
31754WAT      O95503   0.621   6.402   8.473
31754WAT     H195504   0.569   6.351   8.404
31754WAT     H295505   0.576   6.395   8.561
31755WAT      O95506   6.941   3.793   3.471
31755WAT     H195507   7.036   3.777   3.496
31755WAT     H295508   6.889   3.708   3.477
31756WAT      O95509   8.738   0.729   5.141
31756WAT     H195510   8.826   0.698   5.105
31756WAT     H295511   8.678   0.650   5.154
31757WAT      O95512   8.849   6.572   3.917
31757WAT     H195513   8.867   6.559   4.015
31757WAT     H295514   8.912   6.516   3.864
31758WAT      O95515   1.215   9.522   2.132
31758WAT     H195516   1.308   9.487   2.135
31758WAT     H295517   1.217   9.621   2.121
31759WAT      O95518   2.959   1.830   4.258
31759WAT     H195519   3.036   1.772   4.229
31759WAT     H295520   2.928   1.884   4.180
31760WAT      O95521   9.277   5.115   1.624
31760WAT     H195522   9.272   5.145   1.529
31760WAT     H295523   9.373   5.103   1.650
31761WAT      O95524   8.646   6.928   3.348
31761WAT     H195525   8.603   6.850   3.392
31761WAT     H295526   8.741   6.935   3.378
31762WAT      O95527   4.926   7.577   7.781
31762WAT     H195528   4.928   7.635   7.700
31762WAT     H295529   5.020   7.563   7.813
31763WAT      O95530   5.067   2.942   4.282
31763WAT     H195531   5.112   3.023   4.321
31763WAT     H295532   5.003   2.905   4.349
31764WAT      O95533   0.822   6.264   2.525
31764WAT     H195534   0.734   6.220   2.542
31764WAT     H295535   0.855   6.306   2.609
31765WAT      O95536   8.698   0.070   7.293
31765WAT     H195537   8.598   0.070   7.288
31765WAT     H295538   8.730   0.165   7.301
31766WAT      O95539   7.915   7.444   4.925
31766WAT     H195540   7.828   7.407   4.892
31766WAT     H295541   7.910   7.544   4.928
31767WAT      O95542   1.774   6.094   7.526
31767WAT     H195543   1.736   6.056   7.442
31767WAT     H295544   1.776   6.194   7.520
31768WAT      O95545   4.410   1.886   6.865
31768WAT     H195546   4.376   1.975   6.897
31768WAT     H295547   4.506   1.876   6.892
31769WAT      O95548   0.340   8.266   9.202
31769WAT     H195549   0.292   8.265   9.290
31769WAT     H295550   0.286   8.218   9.134
31770WAT      O95551   4.461   8.433   2.958
31770WAT     H195552   4.427   8.435   3.052
31770WAT     H295553   4.396   8.480   2.898
31771WAT      O95554   4.575   6.108   2.093
31771WAT     H195555   4.477   6.115   2.076
31771WAT     H295556   4.623   6.095   2.006
31772WAT      O95557   7.434   1.146   0.542
31772WAT     H195558   7.375   1.083   0.492
31772WAT     H295559   7.426   1.238   0.503
31773WAT      O95560   4.144   1.438   9.627
31773WAT     H195561   4.110   1.405   9.539
31773WAT     H295562   4.227   1.389   9.652
31774WAT      O95563   0.568   3.548   0.542
31774WAT     H195564   0.646   3.598   0.504
31774WAT     H295565   0.595   3.455   0.563
31775WAT      O95566   5.446   2.460   3.356
31775WAT     H195567   5.500   2.382   3.326
31775WAT     H295568   5.365   2.428   3.406
31776WAT      O95569   1.605   0.122   0.007
31776WAT     H195570   1.541   0.155  -0.062
31776WAT     H295571   1.564   0.044   0.054
31777WAT      O95572   2.962   6.211   5.503
31777WAT     H195573   2.938   6.278   5.573
31777WAT     H295574   3.002   6.130   5.546
31778WAT      O95575   3.811   0.800   1.365
31778WAT     H195576   3.899   0.801   1.318
31778WAT     H295577   3.758   0.881   1.338
31779WAT      O95578   9.066   6.860   7.520
31779WAT     H195579   9.045   6.928   7.591
31779WAT     H295580   9.032   6.891   7.432
31780WAT      O95581   5.574   0.829   1.650
31780WAT     H195582   5.645   0.762   1.630
31780WAT     H295583   5.615   0.913   1.684
31781WAT      O95584   3.191   1.627   5.866
31781WAT     H195585   3.173   1.712   5.916
31781WAT     H295586   3.136   1.626   5.783
31782WAT      O95587   8.318   0.770   7.260
31782WAT     H195588   8.301   0.850   7.202
31782WAT     H295589   8.290   0.687   7.211
31783WAT      O95590   0.006   3.032   3.447
31783WAT     H195591  -0.060   3.006   3.376
31783WAT     H295592   0.045   3.121   3.424
31784WAT      O95593   6.207   6.891   6.798
31784WAT     H195594   6.180   6.828   6.725
31784WAT     H295595   6.183   6.852   6.887
31785WAT      O95596   2.546   6.503   9.406
31785WAT     H195597   2.562   6.405   9.403
31785WAT     H295598   2.459   6.522   9.452
31786WAT      O95599   2.110   3.105   1.656
31786WAT     H195600   2.029   3.137   1.606
31786WAT     H295601   2.095   3.011   1.686
31787WAT      O95602   5.435   5.661   4.354
31787WAT     H195603   5.344   5.620   4.347
31787WAT     H295604   5.429   5.759   4.337
31788WAT      O95605   3.542   0.847   5.628
31788WAT     H195606   3.636   0.855   5.661
31788WAT     H295607   3.503   0.761   5.658
31789WAT      O95608   3.560   6.240   1.268
31789WAT     H195609   3.468   6.202   1.266
31789WAT     H295610   3.556   6.340   1.257
31790WAT      O95611   5.521   3.446   8.452
31790WAT     H195612   5.443   3.501   8.423
31790WAT     H295613   5.501   3.349   8.438
31791WAT      O95614   4.869   2.078   4.442
31791WAT     H195615   4.808   2.146   4.399
31791WAT     H295616   4.891   2.108   4.534
31792WAT      O95617   6.631   0.119   5.937
31792WAT     H195618   6.607   0.072   6.022
31792WAT     H295619   6.577   0.082   5.861
31793WAT      O95620   1.130   7.158   6.023
31793WAT     H195621   1.089   7.082   6.074
31793WAT     H295622   1.212   7.190   6.071
31794WAT      O95623   9.882   8.166   7.234
31794WAT     H195624   9.952   8.096   7.221
31794WAT     H295625   9.833   8.180   7.148
31795WAT      O95626   6.226   7.583   0.685
31795WAT     H195627   6.224   7.565   0.783
31795WAT     H295628   6.142   7.629   0.658
31796WAT      O95629   6.051   7.072   0.541
31796WAT     H195630   6.018   7.143   0.603
31796WAT     H295631   6.140   7.098   0.505
31797WAT      O95632   7.395   0.022   5.048
31797WAT     H195633   7.357  -0.017   4.964
31797WAT     H295634   7.407   0.121   5.035
31798WAT      O95635   8.771   8.615   5.713
31798WAT     H195636   8.675   8.627   5.737
31798WAT     H295637   8.795   8.518   5.716
31799WAT      O95638   9.551   3.100   5.137
31799WAT     H195639   9.643   3.072   5.109
31799WAT     H295640   9.533   3.067   5.230
31800WAT      O95641   1.877   0.067   1.773
31800WAT     H195642   1.941   0.063   1.850
31800WAT     H295643   1.886   0.155   1.726
31801WAT      O95644   9.875   9.786   8.379
31801WAT     H195645   9.923   9.825   8.457
31801WAT     H295646   9.777   9.802   8.388
31802WAT      O95647   2.458   6.438   2.501
31802WAT     H195648   2.408   6.473   2.580
31802WAT     H295649   2.440   6.496   2.422
31803WAT      O95650   6.903   6.910   2.714
31803WAT     H195651   6.860   6.820   2.704
31803WAT     H295652   7.000   6.898   2.734
31804WAT      O95653   0.837   0.872   7.017
31804WAT     H195654   0.843   0.959   6.969
31804WAT     H295655   0.822   0.889   7.115
31805WAT      O95656   7.029   4.147   4.226
31805WAT     H195657   6.936   4.110   4.214
31805WAT     H295658   7.096   4.077   4.201
31806WAT      O95659   3.767   5.757   3.317
31806WAT     H195660   3.701   5.808   3.261
31806WAT     H295661   3.853   5.807   3.321
31807WAT      O95662   0.144   6.899   7.904
31807WAT     H195663   0.073   6.848   7.952
31807WAT     H295664   0.168   6.852   7.819
31808WAT      O95665   3.155   4.047   7.970
31808WAT     H195666   3.174   4.023   8.065
31808WAT     H295667   3.057   4.041   7.953
31809WAT      O95668   4.945   2.406   1.609
31809WAT     H195669   5.029   2.374   1.565
31809WAT     H295670   4.877   2.332   1.607
31810WAT      O95671   7.389   6.464   2.863
31810WAT     H195672   7.412   6.368   2.873
31810WAT     H295673   7.311   6.486   2.922
31811WAT      O95674   5.783   8.581   3.113
31811WAT     H195675   5.694   8.537   3.107
31811WAT     H295676   5.813   8.584   3.208
31812WAT      O95677   3.059   2.012   2.704
31812WAT     H195678   3.114   1.931   2.686
31812WAT     H295679   2.991   1.992   2.775
31813WAT      O95680   6.518   4.023   7.370
31813WAT     H195681   6.617   4.039   7.363
31813WAT     H295682   6.492   3.949   7.307
31814WAT      O95683   1.231   5.645   6.914
31814WAT     H195684   1.141   5.608   6.939
31814WAT     H295685   1.245   5.635   6.815
31815WAT      O95686   2.497   7.478   0.319
31815WAT     H195687   2.562   7.456   0.392
31815WAT     H295688   2.482   7.396   0.263
31816WAT      O95689   3.251   5.432   6.696
31816WAT     H195690   3.215   5.428   6.603
31816WAT     H295691   3.176   5.422   6.761
31817WAT      O95692   3.311   9.009   5.101
31817WAT     H195693   3.211   9.012   5.106
31817WAT     H295694   3.346   8.944   5.168
31818WAT      O95695   3.249   5.792   8.396
31818WAT     H195696   3.228   5.794   8.298
31818WAT     H295697   3.238   5.699   8.430
31819WAT      O95698   0.506   3.648   5.911
31819WAT     H195699   0.587   3.602   5.874
31819WAT     H295700   0.525   3.680   6.004
31820WAT      O95701   3.050   0.033   5.539
31820WAT     H195702   3.131   0.090   5.549
31820WAT     H295703   3.046  -0.004   5.447
31821WAT      O95704   2.882   7.436   7.655
31821WAT     H195705   2.826   7.512   7.623
31821WAT     H295706   2.892   7.368   7.582
31822WAT      O95707   0.022   6.586   0.092
31822WAT     H195708   0.075   6.645   0.153
31822WAT     H295709   0.038   6.490   0.117
31823WAT      O95710   0.786   1.219   0.489
31823WAT     H195711   0.774   1.121   0.507
31823WAT     H295712   0.881   1.244   0.508
31824WAT      O95713   3.382   1.205   4.735
31824WAT     H195714   3.306   1.187   4.798
31824WAT     H295715   3.359   1.283   4.676
31825WAT      O95716   4.297   8.159   1.657
31825WAT     H195717   4.295   8.253   1.622
31825WAT     H295718   4.213   8.140   1.707
31826WAT      O95719   1.096   9.685   6.393
31826WAT     H195720   1.135   9.658   6.481
31826WAT     H295721   1.145   9.639   6.320
31827WAT      O95722   9.771   8.306   0.365
31827WAT     H195723   9.694   8.348   0.414
31827WAT     H295724   9.748   8.300   0.267
31828WAT      O95725   0.125   1.177   8.974
31828WAT     H195726   0.195   1.107   8.963
31828WAT     H295727   0.151   1.238   9.048
31829WAT      O95728   6.747   8.071   6.801
31829WAT     H195729   6.711   7.983   6.833
31829WAT     H295730   6.826   8.097   6.856
31830WAT      O95731   8.137   4.311   6.120
31830WAT     H195732   8.188   4.297   6.035
31830WAT     H295733   8.164   4.242   6.187
31831WAT      O95734   6.882   6.877   3.807
31831WAT     H195735   6.981   6.881   3.816
31831WAT     H295736   6.848   6.962   3.768
31832WAT      O95737   2.762   3.396   9.725
31832WAT     H195738   2.828   3.344   9.670
31832WAT     H295739   2.670   3.367   9.701
31833WAT      O95740   9.328   5.165   1.127
31833WAT     H195741   9.301   5.217   1.208
31833WAT     H295742   9.328   5.067   1.149
31834WAT      O95743   8.731   3.433   3.274
31834WAT     H195744   8.726   3.351   3.331
31834WAT     H295745   8.789   3.414   3.194
31835WAT      O95746   0.416   1.284   4.633
31835WAT     H195747   0.391   1.256   4.541
31835WAT     H295748   0.512   1.264   4.650
31836WAT      O95749   0.172   6.043   5.011
31836WAT     H195750   0.244   6.112   5.001
31836WAT     H295751   0.207   5.967   5.066
31837WAT      O95752   1.465   5.860   7.191
31837WAT     H195753   1.431   5.799   7.263
31837WAT     H295754   1.390   5.915   7.155
31838WAT      O95755   2.501   3.382   4.727
31838WAT     H195756   2.555   3.306   4.690
31838WAT     H295757   2.404   3.366   4.710
31839WAT      O95758   1.442   6.483   2.743
31839WAT     H195759   1.449   6.384   2.729
31839WAT     H295760   1.450   6.530   2.655
31840WAT      O95761   4.522   1.031   6.932
31840WAT     H195762   4.575   1.050   6.849
31840WAT     H295763   4.528   0.934   6.953
31841WAT      O95764   8.406   9.409   2.227
31841WAT     H195765   8.472   9.333   2.223
31841WAT     H295766   8.319   9.375   2.264
31842WAT      O95767   1.422   7.144   0.894
31842WAT     H195768   1.495   7.208   0.875
31842WAT     H295769   1.360   7.139   0.815
31843WAT      O95770   4.324   7.930   3.392
31843WAT     H195771   4.323   7.960   3.296
31843WAT     H295772   4.312   7.831   3.396
31844WAT      O95773   3.382   3.381   6.642
31844WAT     H195774   3.322   3.302   6.656
31844WAT     H295775   3.476   3.355   6.661
31845WAT      O95776   2.002   5.990   4.021
31845WAT     H195777   1.925   5.931   3.998
31845WAT     H295778   2.058   5.946   4.092
31846WAT      O95779   9.647   5.377   4.678
31846WAT     H195780   9.667   5.473   4.698
31846WAT     H295781   9.685   5.353   4.589
31847WAT      O95782   4.594   5.986   6.879
31847WAT     H195783   4.514   6.041   6.855
31847WAT     H295784   4.632   5.944   6.796
31848WAT      O95785   1.148   7.642   9.388
31848WAT     H195786   1.094   7.661   9.305
31848WAT     H295787   1.245   7.655   9.368
31849WAT      O95788   2.670   4.184   7.062
31849WAT     H195789   2.760   4.141   7.078
31849WAT     H295790   2.644   4.235   7.144
31850WAT      O95791   1.879   2.727   4.082
31850WAT     H195792   1.893   2.648   4.141
31850WAT     H295793   1.930   2.806   4.118
31851WAT      O95794   4.746   7.547   0.489
31851WAT     H195795   4.747   7.455   0.451
31851WAT     H295796   4.744   7.542   0.589
31852WAT      O95797   8.808   4.513   9.643
31852WAT     H195798   8.722   4.512   9.695
31852WAT     H295799   8.867   4.439   9.675
31853WAT      O95800   2.622   6.064   3.435
31853WAT     H195801   2.551   6.129   3.407
31853WAT     H295802   2.598   6.025   3.524
31854WAT      O95803   5.076   1.140   8.875
31854WAT     H195804   5.147   1.192   8.923
31854WAT     H295805   5.046   1.063   8.932
31855WAT      O95806   0.736   0.851   7.549
31855WAT     H195807   0.818   0.823   7.598
31855WAT     H295808   0.684   0.770   7.523
31856WAT      O95809   8.366   4.011   5.170
31856WAT     H195810   8.454   4.005   5.216
31856WAT     H295811   8.377   4.056   5.081
31857WAT      O95812   0.654   4.688   8.272
31857WAT     H195813   0.647   4.775   8.320
31857WAT     H295814   0.708   4.624   8.326
31858WAT      O95815   6.249   5.769   7.558
31858WAT     H195816   6.167   5.712   7.554
31858WAT     H295817   6.276   5.795   7.465
31859WAT      O95818   3.118   3.912   8.933
31859WAT     H195819   3.166   3.986   8.981
31859WAT     H295820   3.045   3.951   8.877
31860WAT      O95821   5.711   5.261   4.110
31860WAT     H195822   5.679   5.296   4.198
31860WAT     H295823   5.780   5.190   4.125
31861WAT      O95824   0.328   3.897   6.185
31861WAT     H195825   0.372   3.986   6.196
31861WAT     H295826   0.252   3.889   6.249
31862WAT      O95827   0.026   4.864   7.390
31862WAT     H195828  -0.009   4.891   7.300
31862WAT     H295829  -0.022   4.782   7.420
31863WAT      O95830   0.205   6.952   2.296
31863WAT     H195831   0.157   7.030   2.336
31863WAT     H295832   0.286   6.930   2.352
31864WAT      O95833   3.284   8.543   9.336
31864WAT     H195834   3.346   8.540   9.414
31864WAT     H295835   3.189   8.540   9.368
31865WAT      O95836   0.022   0.203   6.041
31865WAT     H195837   0.038   0.147   5.960
31865WAT     H295838  -0.026   0.286   6.015
31866WAT      O95839   5.943   8.566   8.653
31866WAT     H195840   5.882   8.591   8.578
31866WAT     H295841   5.944   8.466   8.663
31867WAT      O95842   2.851   3.012   6.116
31867WAT     H195843   2.780   3.076   6.145
31867WAT     H295844   2.902   2.980   6.196
31868WAT      O95845   0.676   5.360   6.557
31868WAT     H195846   0.683   5.458   6.540
31868WAT     H295847   0.629   5.344   6.644
31869WAT      O95848   6.070   1.407   0.029
31869WAT     H195849   6.129   1.381   0.106
31869WAT     H295850   5.989   1.454   0.063
31870WAT      O95851   1.729   3.629   5.144
31870WAT     H195852   1.702   3.547   5.194
31870WAT     H295853   1.798   3.605   5.076
31871WAT      O95854   6.508   2.708   7.021
31871WAT     H195855   6.570   2.754   7.085
31871WAT     H295856   6.486   2.617   7.055
31872WAT      O95857   3.185   8.092   6.548
31872WAT     H195858   3.132   8.139   6.619
31872WAT     H295859   3.177   7.993   6.560
31873WAT      O95860   8.168   5.121   3.473
31873WAT     H195861   8.200   5.206   3.430
31873WAT     H295862   8.095   5.081   3.418
31874WAT      O95863   4.131   1.813   3.684
31874WAT     H195864   4.111   1.722   3.720
31874WAT     H295865   4.051   1.872   3.695
31875WAT      O95866   7.030   4.764   6.006
31875WAT     H195867   7.002   4.704   6.081
31875WAT     H295868   7.130   4.766   6.000
31876WAT      O95869   2.598   4.344   6.821
31876WAT     H195870   2.651   4.306   6.897
31876WAT     H295871   2.581   4.272   6.754
31877WAT      O95872   3.220   9.376   2.014
31877WAT     H195873   3.172   9.289   2.026
31877WAT     H295874   3.292   9.383   2.083
31878WAT      O95875   0.390   5.115   1.490
31878WAT     H195876   0.354   5.028   1.456
31878WAT     H295877   0.365   5.126   1.586
31879WAT      O95878   3.511   0.355   1.457
31879WAT     H195879   3.582   0.426   1.457
31879WAT     H295880   3.446   0.372   1.383
31880WAT      O95881   5.426   6.410   1.189
31880WAT     H195882   5.356   6.460   1.241
31880WAT     H295883   5.517   6.439   1.220
31881WAT      O95884   8.460   5.082   8.925
31881WAT     H195885   8.482   4.993   8.966
31881WAT     H295886   8.428   5.068   8.831
31882WAT      O95887   3.003   0.528   4.334
31882WAT     H195888   2.905   0.510   4.324
31882WAT     H295889   3.051   0.444   4.359
31883WAT      O95890   8.595   1.801   1.699
31883WAT     H195891   8.514   1.786   1.756
31883WAT     H295892   8.573   1.867   1.628
31884WAT      O95893   6.936   6.025   2.771
31884WAT     H195894   6.950   6.114   2.815
31884WAT     H295895   6.850   5.986   2.802
31885WAT      O95896   7.703   3.602   7.687
31885WAT     H195897   7.673   3.626   7.780
31885WAT     H295898   7.746   3.511   7.689
31886WAT      O95899   8.856   3.883   2.504
31886WAT     H195900   8.827   3.899   2.599
31886WAT     H295901   8.914   3.801   2.501
31887WAT      O95902   8.772   2.742   1.040
31887WAT     H195903   8.806   2.705   0.954
31887WAT     H295904   8.845   2.739   1.108
31888WAT      O95905   5.419   9.748   7.036
31888WAT     H195906   5.510   9.788   7.044
31888WAT     H295907   5.395   9.735   6.940
31889WAT      O95908   6.444   6.641   7.912
31889WAT     H195909   6.483   6.555   7.879
31889WAT     H295910   6.514   6.712   7.912
31890WAT      O95911   4.163   3.823   1.759
31890WAT     H195912   4.071   3.856   1.738
31890WAT     H295913   4.230   3.896   1.744
31891WAT      O95914   6.068   3.093   4.862
31891WAT     H195915   6.058   3.002   4.822
31891WAT     H295916   6.066   3.162   4.790
31892WAT      O95917   9.235   9.717   0.981
31892WAT     H195918   9.212   9.620   0.975
31892WAT     H295919   9.167   9.771   0.931
31893WAT      O95920   3.519   7.626   2.388
31893WAT     H195921   3.594   7.670   2.338
31893WAT     H295922   3.536   7.635   2.486
31894WAT      O95923   5.818   2.605   7.145
31894WAT     H195924   5.782   2.598   7.239
31894WAT     H295925   5.897   2.666   7.144
31895WAT      O95926   3.513   4.494   2.757
31895WAT     H195927   3.592   4.506   2.696
31895WAT     H295928   3.450   4.428   2.716
31896WAT      O95929   8.638   9.091   8.578
31896WAT     H195930   8.715   9.106   8.515
31896WAT     H295931   8.612   9.178   8.619
31897WAT      O95932   6.662   3.605   4.877
31897WAT     H195933   6.729   3.679   4.870
31897WAT     H295934   6.595   3.613   4.803
31898WAT      O95935   5.487   7.533   8.786
31898WAT     H195936   5.510   7.599   8.857
31898WAT     H295937   5.446   7.453   8.827
31899WAT      O95938   0.122   2.354   3.031
31899WAT     H195939   0.075   2.442   3.034
31899WAT     H295940   0.197   2.355   3.097
   9.88928    9.84380    9.89279 
