GROningen MAchine for Chemical Simulation
95940
    1G5    HO5'    1   6.692   5.215   3.324
    1G5     O5'    2   6.704   5.158   3.401
    1G5     C5'    3   6.754   5.030   3.345
    1G5     H5'    4   6.818   5.037   3.257
    1G5    H5''    5   6.666   4.971   3.318
    1G5     C4'    6   6.828   4.945   3.460
    1G5     H4'    7   6.850   4.845   3.421
    1G5     O4'    8   6.952   4.999   3.497
    1G5     C1'    9   6.970   4.995   3.632
    1G5     H1'   10   7.071   4.958   3.651
    1G5      N9   11   6.949   5.127   3.693
    1G5      C8   12   6.912   5.242   3.626
    1G5      H8   13   6.890   5.251   3.521
    1G5      N7   14   6.924   5.351   3.697
    1G5      C5   15   6.953   5.302   3.828
    1G5      C6   16   6.983   5.376   3.958
    1G5      O6   17   6.982   5.497   3.980
    1G5      N1   18   7.037   5.291   4.053
    1G5      H1   19   7.065   5.333   4.140
    1G5      C2   20   7.044   5.160   4.039
    1G5      N2   21   7.082   5.083   4.138
    1G5     H21   22   7.108   5.119   4.228
    1G5     H22   23   7.099   4.984   4.128
    1G5      N3   24   7.015   5.091   3.938
    1G5      C4   25   6.977   5.170   3.826
    1G5     C3'   26   6.756   4.925   3.597
    1G5     H3'   27   6.717   5.025   3.615
    1G5     C2'   28   6.870   4.891   3.689
    1G5     H2'   29   6.852   4.908   3.795
    1G5     O2'   30   6.919   4.764   3.666
    1G5    HO2'   31   6.845   4.703   3.671
    1G5     O3'   32   6.645   4.830   3.577
    2G        P   33   6.523   4.833   3.677
    2G      OP1   34   6.464   4.696   3.675
    2G      OP2   35   6.437   4.942   3.640
    2G      O5'   36   6.579   4.865   3.811
    2G      C5'   37   6.626   4.769   3.896
    2G      H5'   38   6.722   4.735   3.857
    2G     H5''   39   6.555   4.687   3.904
    2G      C4'   40   6.661   4.827   4.037
    2G      H4'   41   6.692   4.740   4.095
    2G      O4'   42   6.759   4.917   4.052
    2G      C1'   43   6.730   5.013   4.153
    2G      H1'   44   6.801   5.027   4.234
    2G       N9   45   6.713   5.145   4.091
    2G       C8   46   6.682   5.176   3.962
    2G       H8   47   6.686   5.105   3.880
    2G       N7   48   6.645   5.296   3.941
    2G       C5   49   6.665   5.357   4.070
    2G       C6   50   6.648   5.492   4.112
    2G       O6   51   6.618   5.594   4.045
    2G       N1   52   6.681   5.514   4.242
    2G       H1   53   6.656   5.605   4.278
    2G       C2   54   6.709   5.413   4.328
    2G       N2   55   6.696   5.435   4.458
    2G      H21   56   6.660   5.524   4.490
    2G      H22   57   6.706   5.356   4.520
    2G       N3   58   6.735   5.284   4.290
    2G       C4   59   6.706   5.263   4.160
    2G      C3'   60   6.538   4.889   4.108
    2G      H3'   61   6.490   4.955   4.036
    2G      C2'   62   6.603   4.970   4.218
    2G      H2'   63   6.546   5.054   4.259
    2G      O2'   64   6.630   4.884   4.331
    2G     HO2'   65   6.657   4.795   4.305
    2G      O3'   66   6.445   4.790   4.153
    3G        P   67   6.297   4.816   4.174
    3G      OP1   68   6.249   4.685   4.230
    3G      OP2   69   6.245   4.863   4.040
    3G      O5'   70   6.279   4.923   4.280
    3G      C5'   71   6.301   4.902   4.420
    3G      H5'   72   6.404   4.867   4.433
    3G     H5''   73   6.237   4.829   4.470
    3G      C4'   74   6.301   5.041   4.496
    3G      H4'   75   6.327   5.033   4.602
    3G      O4'   76   6.394   5.130   4.436
    3G      C1'   77   6.336   5.264   4.443
    3G      H1'   78   6.385   5.340   4.503
    3G       N9   79   6.327   5.313   4.303
    3G       C8   80   6.328   5.239   4.188
    3G       H8   81   6.329   5.131   4.188
    3G       N7   82   6.337   5.313   4.082
    3G       C5   83   6.327   5.445   4.121
    3G       C6   84   6.313   5.566   4.047
    3G       O6   85   6.303   5.579   3.929
    3G       N1   86   6.300   5.678   4.133
    3G       H1   87   6.290   5.773   4.103
    3G       C2   88   6.296   5.663   4.270
    3G       N2   89   6.285   5.774   4.336
    3G      H21   90   6.283   5.861   4.285
    3G      H22   91   6.272   5.768   4.436
    3G       N3   92   6.301   5.551   4.340
    3G       C4   93   6.324   5.445   4.261
    3G      C3'   94   6.164   5.111   4.480
    3G      H3'   95   6.126   5.096   4.379
    3G      C2'   96   6.198   5.255   4.505
    3G      H2'   97   6.121   5.313   4.455
    3G      O2'   98   6.203   5.284   4.646
    3G     HO2'   99   6.157   5.210   4.686
    3G      O3'  100   6.069   5.067   4.576
    4U        P  101   5.916   5.052   4.537
    4U      OP1  102   5.843   5.016   4.661
    4U      OP2  103   5.911   4.970   4.419
    4U      O5'  104   5.866   5.195   4.491
    4U      C5'  105   5.856   5.312   4.571
    4U      H5'  106   5.937   5.330   4.642
    4U     H5''  107   5.775   5.294   4.642
    4U      C4'  108   5.849   5.448   4.500
    4U      H4'  109   5.842   5.525   4.577
    4U      O4'  110   5.968   5.488   4.435
    4U      C1'  111   5.936   5.567   4.320
    4U      H1'  112   5.988   5.663   4.313
    4U       N1  113   5.963   5.492   4.192
    4U       C6  114   5.986   5.357   4.193
    4U       H6  115   5.985   5.308   4.290
    4U       C5  116   6.022   5.295   4.078
    4U       H5  117   6.060   5.194   4.087
    4U       C4  118   6.024   5.360   3.953
    4U       O4  119   6.068   5.317   3.845
    4U       N3  120   5.980   5.487   3.958
    4U       H3  121   5.980   5.540   3.873
    4U       C2  122   5.967   5.562   4.072
    4U       O2  123   5.943   5.679   4.056
    4U      C3'  124   5.737   5.469   4.399
    4U      H3'  125   5.745   5.392   4.322
    4U      C2'  126   5.785   5.599   4.331
    4U      H2'  127   5.741   5.612   4.232
    4U      O2'  128   5.784   5.715   4.401
    4U     HO2'  129   5.693   5.744   4.387
    4U      O3'  130   5.606   5.481   4.450
    5U        P  131   5.488   5.531   4.367
    5U      OP1  132   5.366   5.486   4.440
    5U      OP2  133   5.507   5.502   4.222
    5U      O5'  134   5.510   5.686   4.383
    5U      C5'  135   5.458   5.756   4.491
    5U      H5'  136   5.515   5.727   4.579
    5U     H5''  137   5.351   5.736   4.503
    5U      C4'  138   5.469   5.909   4.469
    5U      H4'  139   5.403   5.942   4.549
    5U      O4'  140   5.600   5.971   4.485
    5U      C1'  141   5.613   6.081   4.410
    5U      H1'  142   5.616   6.164   4.481
    5U       N1  143   5.747   6.056   4.353
    5U       C6  144   5.852   6.107   4.413
    5U       H6  145   5.832   6.185   4.485
    5U       C5  146   5.978   6.073   4.368
    5U       H5  147   6.059   6.116   4.424
    5U       C4  148   6.005   5.984   4.260
    5U       O4  149   6.116   5.960   4.206
    5U       N3  150   5.892   5.918   4.218
    5U       H3  151   5.898   5.849   4.145
    5U       C2  152   5.764   5.951   4.255
    5U       O2  153   5.673   5.876   4.221
    5U      C3'  154   5.409   5.965   4.339
    5U      H3'  155   5.428   5.892   4.260
    5U      C2'  156   5.490   6.092   4.321
    5U      H2'  157   5.533   6.093   4.221
    5U      O2'  158   5.421   6.208   4.367
    5U     HO2'  159   5.327   6.187   4.363
    5U      O3'  160   5.270   6.002   4.336
    6A        P  161   5.157   5.891   4.306
    6A      OP1  162   5.052   5.909   4.413
    6A      OP2  163   5.223   5.760   4.284
    6A      O5'  164   5.109   5.953   4.168
    6A      C5'  165   5.027   6.070   4.168
    6A      H5'  166   5.082   6.157   4.205
    6A     H5''  167   4.935   6.048   4.221
    6A      C4'  168   4.988   6.117   4.031
    6A      H4'  169   4.899   6.175   4.056
    6A      O4'  170   5.091   6.192   3.969
    6A      C1'  171   5.127   6.113   3.850
    6A      H1'  172   5.148   6.184   3.770
    6A       N9  173   5.233   6.011   3.873
    6A       C8  174   5.305   5.989   3.991
    6A       H8  175   5.296   6.045   4.083
    6A       N7  176   5.408   5.904   3.975
    6A       C5  177   5.387   5.859   3.843
    6A       C6  178   5.456   5.773   3.761
    6A       N6  179   5.569   5.720   3.791
    6A      H61  180   5.622   5.666   3.724
    6A      H62  181   5.607   5.728   3.884
    6A       N1  182   5.420   5.745   3.629
    6A       C2  183   5.323   5.819   3.578
    6A       H2  184   5.301   5.795   3.475
    6A       N3  185   5.251   5.909   3.645
    6A       C4  186   5.287   5.924   3.777
    6A      C3'  187   4.942   6.003   3.943
    6A      H3'  188   4.976   5.905   3.977
    6A      C2'  189   4.998   6.050   3.809
    6A      H2'  190   5.009   5.963   3.744
    6A      O2'  191   4.916   6.154   3.748
    6A     HO2'  192   4.825   6.130   3.768
    6A      O3'  193   4.797   6.000   3.940
    7G        P  194   4.714   5.859   3.952
    7G      OP1  195   4.568   5.884   3.959
    7G      OP2  196   4.780   5.777   4.050
    7G      O5'  197   4.750   5.791   3.812
    7G      C5'  198   4.692   5.830   3.685
    7G      H5'  199   4.715   5.935   3.670
    7G     H5''  200   4.584   5.818   3.695
    7G      C4'  201   4.743   5.740   3.570
    7G      H4'  202   4.686   5.774   3.484
    7G      O4'  203   4.880   5.758   3.555
    7G      C1'  204   4.933   5.630   3.520
    7G      H1'  205   4.996   5.632   3.431
    7G       N9  206   5.025   5.607   3.632
    7G       C8  207   5.040   5.679   3.753
    7G       H8  208   4.979   5.760   3.789
    7G       N7  209   5.139   5.645   3.830
    7G       C5  210   5.188   5.534   3.760
    7G       C6  211   5.302   5.446   3.783
    7G       O6  212   5.385   5.457   3.878
    7G       N1  213   5.320   5.350   3.693
    7G       H1  214   5.407   5.298   3.694
    7G       C2  215   5.227   5.326   3.592
    7G       N2  216   5.267   5.231   3.515
    7G      H21  217   5.338   5.165   3.544
    7G      H22  218   5.208   5.215   3.435
    7G       N3  219   5.129   5.410   3.551
    7G       C4  220   5.115   5.505   3.648
    7G      C3'  221   4.722   5.591   3.594
    7G      H3'  222   4.742   5.575   3.700
    7G      C2'  223   4.822   5.522   3.503
    7G      H2'  224   4.856   5.426   3.540
    7G      O2'  225   4.774   5.522   3.371
    7G     HO2'  226   4.679   5.510   3.378
    7G      O3'  227   4.582   5.551   3.581
    8G        P  228   4.523   5.444   3.678
    8G      OP1  229   4.386   5.417   3.633
    8G      OP2  230   4.538   5.492   3.813
    8G      O5'  231   4.623   5.318   3.666
    8G      C5'  232   4.643   5.241   3.547
    8G      H5'  233   4.677   5.298   3.461
    8G     H5''  234   4.550   5.190   3.522
    8G      C4'  235   4.755   5.136   3.573
    8G      H4'  236   4.763   5.063   3.493
    8G      O4'  237   4.881   5.191   3.598
    8G      C1'  238   4.960   5.109   3.676
    8G      H1'  239   5.056   5.087   3.629
    8G       N9  240   4.977   5.181   3.807
    8G       C8  241   4.909   5.289   3.851
    8G       H8  242   4.811   5.316   3.815
    8G       N7  243   4.967   5.351   3.954
    8G       C5  244   5.083   5.273   3.982
    8G       C6  245   5.190   5.285   4.089
    8G       O6  246   5.220   5.377   4.166
    8G       N1  247   5.262   5.177   4.095
    8G       H1  248   5.338   5.174   4.161
    8G       C2  249   5.262   5.073   4.008
    8G       N2  250   5.344   4.975   4.037
    8G      H21  251   5.414   4.998   4.107
    8G      H22  252   5.330   4.886   3.993
    8G       N3  253   5.171   5.054   3.911
    8G       C4  254   5.086   5.161   3.902
    8G      C3'  255   4.734   5.044   3.690
    8G      H3'  256   4.723   5.103   3.781
    8G      C2'  257   4.872   4.984   3.707
    8G      H2'  258   4.885   4.956   3.811
    8G      O2'  259   4.908   4.874   3.616
    8G     HO2'  260   4.836   4.860   3.555
    8G      O3'  261   4.628   4.952   3.683
    9G        P  262   4.552   4.902   3.814
    9G      OP1  263   4.461   4.794   3.772
    9G      OP2  264   4.503   5.016   3.894
    9G      O5'  265   4.662   4.836   3.903
    9G      C5'  266   4.713   4.710   3.874
    9G      H5'  267   4.758   4.719   3.775
    9G     H5''  268   4.631   4.638   3.878
    9G      C4'  269   4.822   4.686   3.980
    9G      H4'  270   4.867   4.588   3.965
    9G      O4'  271   4.928   4.794   3.976
    9G      C1'  272   4.999   4.794   4.096
    9G      H1'  273   5.106   4.784   4.076
    9G       N9  274   4.977   4.927   4.160
    9G       C8  275   4.876   5.018   4.143
    9G       H8  276   4.800   4.997   4.069
    9G       N7  277   4.878   5.119   4.229
    9G       C5  278   5.000   5.101   4.300
    9G       C6  279   5.072   5.180   4.396
    9G       O6  280   5.053   5.290   4.450
    9G       N1  281   5.185   5.117   4.443
    9G       H1  282   5.250   5.171   4.498
    9G       C2  283   5.235   5.000   4.405
    9G       N2  284   5.358   4.965   4.449
    9G      H21  285   5.408   5.029   4.508
    9G      H22  286   5.411   4.902   4.390
    9G       N3  287   5.180   4.926   4.305
    9G       C4  288   5.060   4.980   4.259
    9G      C3'  289   4.798   4.671   4.132
    9G      H3'  290   4.731   4.749   4.169
    9G      C2'  291   4.936   4.685   4.194
    9G      H2'  292   4.929   4.717   4.297
    9G      O2'  293   5.013   4.564   4.181
    9G     HO2'  294   4.969   4.499   4.236
    9G      O3'  295   4.735   4.546   4.164
   10U        P  296   4.677   4.520   4.317
   10U      OP1  297   4.564   4.432   4.316
   10U      OP2  298   4.669   4.641   4.388
   10U      O5'  299   4.800   4.439   4.389
   10U      C5'  300   4.798   4.296   4.399
   10U      H5'  301   4.758   4.252   4.307
   10U     H5''  302   4.730   4.254   4.473
   10U      C4'  303   4.932   4.235   4.429
   10U      H4'  304   4.934   4.127   4.415
   10U      O4'  305   5.028   4.287   4.343
   10U      C1'  306   5.160   4.279   4.402
   10U      H1'  307   5.218   4.196   4.361
   10U       N1  308   5.238   4.405   4.372
   10U       C6  309   5.234   4.513   4.456
   10U       H6  310   5.171   4.513   4.543
   10U       C5  311   5.313   4.626   4.434
   10U       H5  312   5.312   4.713   4.498
   10U       C4  313   5.414   4.627   4.332
   10U       O4  314   5.492   4.719   4.314
   10U       N3  315   5.415   4.512   4.255
   10U       H3  316   5.491   4.500   4.190
   10U       C2  317   5.337   4.402   4.272
   10U       O2  318   5.334   4.319   4.178
   10U      C3'  319   4.986   4.267   4.569
   10U      H3'  320   4.959   4.369   4.598
   10U      C2'  321   5.139   4.255   4.556
   10U      H2'  322   5.181   4.326   4.627
   10U      O2'  323   5.196   4.129   4.593
   10U     HO2'  324   5.127   4.063   4.586
   10U      O3'  325   4.944   4.184   4.669
   11U        P  326   4.859   4.233   4.802
   11U      OP1  327   4.825   4.127   4.900
   11U      OP2  328   4.743   4.308   4.742
   11U      O5'  329   4.954   4.336   4.862
   11U      C5'  330   5.070   4.290   4.922
   11U      H5'  331   5.123   4.217   4.862
   11U     H5''  332   5.047   4.245   5.019
   11U      C4'  333   5.154   4.417   4.946
   11U      H4'  334   5.259   4.392   4.966
   11U      O4'  335   5.170   4.490   4.829
   11U      C1'  336   5.193   4.631   4.863
   11U      H1'  337   5.300   4.640   4.846
   11U       N1  338   5.108   4.728   4.788
   11U       C6  339   4.999   4.688   4.721
   11U       H6  340   4.977   4.583   4.722
   11U       C5  341   4.920   4.773   4.665
   11U       H5  342   4.828   4.737   4.620
   11U       C4  343   4.954   4.912   4.654
   11U       O4  344   4.899   4.986   4.578
   11U       N3  345   5.066   4.955   4.724
   11U       H3  346   5.094   5.051   4.711
   11U       C2  347   5.142   4.867   4.798
   11U       O2  348   5.236   4.914   4.855
   11U      C3'  349   5.107   4.520   5.051
   11U      H3'  350   5.000   4.534   5.042
   11U      C2'  351   5.182   4.647   5.009
   11U      H2'  352   5.120   4.727   5.050
   11U      O2'  353   5.301   4.659   5.089
   11U     HO2'  354   5.281   4.603   5.164
   11U      O3'  355   5.149   4.489   5.181
   12A        P  356   5.045   4.474   5.296
   12A      OP1  357   5.118   4.454   5.425
   12A      OP2  358   4.928   4.386   5.258
   12A      O5'  359   4.988   4.623   5.304
   12A      C5'  360   5.068   4.735   5.348
   12A      H5'  361   5.170   4.736   5.311
   12A     H5''  362   5.069   4.734   5.457
   12A      C4'  363   5.012   4.876   5.319
   12A      H4'  364   5.067   4.945   5.384
   12A      O4'  365   5.023   4.921   5.183
   12A      C1'  366   4.904   4.997   5.157
   12A      H1'  367   4.927   5.099   5.129
   12A       N9  368   4.829   4.910   5.062
   12A       C8  369   4.822   4.776   5.052
   12A       H8  370   4.881   4.713   5.117
   12A       N7  371   4.754   4.733   4.950
   12A       C5  372   4.699   4.849   4.892
   12A       C6  373   4.613   4.884   4.783
   12A       N6  374   4.561   4.802   4.701
   12A      H61  375   4.489   4.833   4.637
   12A      H62  376   4.596   4.707   4.695
   12A       N1  377   4.590   5.018   4.753
   12A       C2  378   4.635   5.110   4.841
   12A       H2  379   4.612   5.213   4.816
   12A       N3  380   4.706   5.091   4.948
   12A       C4  381   4.747   4.957   4.963
   12A      C3'  382   4.869   4.876   5.364
   12A      H3'  383   4.802   4.800   5.324
   12A      C2'  384   4.832   5.008   5.299
   12A      H2'  385   4.725   5.025   5.287
   12A      O2'  386   4.879   5.127   5.368
   12A     HO2'  387   4.837   5.212   5.354
   12A      O3'  388   4.844   4.886   5.503
   13G        P  389   4.721   4.807   5.566
   13G      OP1  390   4.717   4.827   5.711
   13G      OP2  391   4.723   4.668   5.515
   13G      O5'  392   4.592   4.879   5.498
   13G      C5'  393   4.568   5.017   5.527
   13G      H5'  394   4.655   5.073   5.495
   13G     H5''  395   4.548   5.041   5.632
   13G      C4'  396   4.450   5.073   5.440
   13G      H4'  397   4.425   5.176   5.465
   13G      O4'  398   4.489   5.072   5.303
   13G      C1'  399   4.368   5.052   5.225
   13G      H1'  400   4.349   5.117   5.140
   13G       N9  401   4.384   4.911   5.167
   13G       C8  402   4.472   4.812   5.193
   13G       H8  403   4.545   4.823   5.272
   13G       N7  404   4.471   4.702   5.120
   13G       C5  405   4.366   4.739   5.034
   13G       C6  406   4.313   4.670   4.926
   13G       O6  407   4.347   4.555   4.884
   13G       N1  408   4.205   4.733   4.857
   13G       H1  409   4.166   4.691   4.774
   13G       C2  410   4.153   4.846   4.905
   13G       N2  411   4.055   4.905   4.844
   13G      H21  412   4.006   4.847   4.777
   13G      H22  413   4.023   4.993   4.882
   13G       N3  414   4.207   4.922   5.004
   13G       C4  415   4.312   4.860   5.059
   13G      C3'  416   4.324   4.989   5.450
   13G      H3'  417   4.343   4.882   5.436
   13G      C2'  418   4.251   5.041   5.325
   13G      H2'  419   4.187   4.959   5.291
   13G      O2'  420   4.182   5.167   5.325
   13G     HO2'  421   4.095   5.150   5.360
   13G      O3'  422   4.251   5.001   5.574
   14G        P  423   4.162   4.883   5.630
   14G      OP1  424   4.077   4.940   5.729
   14G      OP2  425   4.249   4.770   5.666
   14G      O5'  426   4.078   4.851   5.510
   14G      C5'  427   3.970   4.940   5.472
   14G      H5'  428   4.007   5.038   5.443
   14G     H5''  429   3.902   4.951   5.557
   14G      C4'  430   3.883   4.887   5.358
   14G      H4'  431   3.803   4.959   5.345
   14G      O4'  432   3.948   4.873   5.236
   14G      C1'  433   3.906   4.753   5.180
   14G      H1'  434   3.870   4.779   5.081
   14G       N9  435   4.004   4.643   5.180
   14G       C8  436   4.122   4.632   5.255
   14G       H8  437   4.158   4.700   5.330
   14G       N7  438   4.207   4.544   5.211
   14G       C5  439   4.126   4.483   5.106
   14G       C6  440   4.152   4.366   5.026
   14G       O6  441   4.246   4.290   5.022
   14G       N1  442   4.049   4.337   4.941
   14G       H1  443   4.065   4.272   4.865
   14G       C2  444   3.928   4.406   4.938
   14G       N2  445   3.845   4.368   4.854
   14G      H21  446   3.875   4.291   4.796
   14G      H22  447   3.751   4.404   4.855
   14G       N3  448   3.903   4.511   5.009
   14G       C4  449   4.004   4.543   5.090
   14G      C3'  450   3.822   4.755   5.390
   14G      H3'  451   3.884   4.685   5.445
   14G      C2'  452   3.784   4.707   5.252
   14G      H2'  453   3.779   4.598   5.250
   14G      O2'  454   3.663   4.762   5.195
   14G     HO2'  455   3.618   4.798   5.272
   14G      O3'  456   3.703   4.784   5.455
   15G        P  457   3.633   4.684   5.551
   15G      OP1  458   3.499   4.731   5.569
   15G      OP2  459   3.734   4.678   5.662
   15G      O5'  460   3.630   4.537   5.486
   15G      C5'  461   3.509   4.488   5.425
   15G      H5'  462   3.490   4.550   5.337
   15G     H5''  463   3.425   4.496   5.495
   15G      C4'  464   3.525   4.349   5.377
   15G      H4'  465   3.430   4.307   5.344
   15G      O4'  466   3.616   4.337   5.269
   15G      C1'  467   3.680   4.210   5.269
   15G      H1'  468   3.659   4.161   5.174
   15G       N9  469   3.824   4.231   5.293
   15G       C8  470   3.887   4.329   5.365
   15G       H8  471   3.824   4.394   5.424
   15G       N7  472   4.009   4.323   5.373
   15G       C5  473   4.043   4.209   5.298
   15G       C6  474   4.168   4.143   5.272
   15G       O6  475   4.282   4.178   5.301
   15G       N1  476   4.159   4.028   5.193
   15G       H1  477   4.243   3.973   5.194
   15G       C2  478   4.037   3.981   5.149
   15G       N2  479   4.021   3.880   5.068
   15G      H21  480   4.100   3.818   5.052
   15G      H22  481   3.930   3.845   5.044
   15G       N3  482   3.917   4.048   5.169
   15G       C4  483   3.931   4.162   5.241
   15G      C3'  484   3.576   4.243   5.479
   15G      H3'  485   3.670   4.280   5.519
   15G      C2'  486   3.618   4.134   5.388
   15G      H2'  487   3.691   4.071   5.440
   15G      O2'  488   3.509   4.069   5.337
   15G     HO2'  489   3.433   4.087   5.391
   15G      O3'  490   3.478   4.201   5.568
   16U        P  491   3.521   4.165   5.714
   16U      OP1  492   3.399   4.103   5.771
   16U      OP2  493   3.585   4.281   5.780
   16U      O5'  494   3.632   4.049   5.702
   16U      C5'  495   3.602   3.906   5.701
   16U      H5'  496   3.568   3.887   5.599
   16U     H5''  497   3.530   3.892   5.782
   16U      C4'  498   3.724   3.814   5.738
   16U      H4'  499   3.695   3.710   5.758
   16U      O4'  500   3.816   3.820   5.635
   16U      C1'  501   3.949   3.809   5.688
   16U      H1'  502   3.997   3.722   5.643
   16U       N1  503   4.040   3.920   5.646
   16U       C6  504   3.995   4.051   5.659
   16U       H6  505   3.891   4.072   5.680
   16U       C5  506   4.084   4.152   5.637
   16U       H5  507   4.051   4.254   5.648
   16U       C4  508   4.230   4.126   5.621
   16U       O4  509   4.317   4.209   5.624
   16U       N3  510   4.257   3.997   5.594
   16U       H3  511   4.357   3.986   5.592
   16U       C2  512   4.171   3.890   5.612
   16U       O2  513   4.208   3.780   5.583
   16U      C3'  514   3.790   3.860   5.870
   16U      H3'  515   3.787   3.969   5.880
   16U      C2'  516   3.930   3.806   5.839
   16U      H2'  517   4.012   3.861   5.885
   16U      O2'  518   3.938   3.672   5.886
   16U     HO2'  519   3.915   3.687   5.978
   16U      O3'  520   3.729   3.797   5.981
   17U        P  521   3.753   3.856   6.128
   17U      OP1  522   3.645   3.815   6.222
   17U      OP2  523   3.788   4.001   6.122
   17U      O5'  524   3.890   3.784   6.154
   17U      C5'  525   3.892   3.670   6.237
   17U      H5'  526   3.854   3.580   6.187
   17U     H5''  527   3.845   3.691   6.333
   17U      C4'  528   4.043   3.626   6.268
   17U      H4'  529   4.038   3.537   6.332
   17U      O4'  530   4.129   3.607   6.159
   17U      C1'  531   4.264   3.642   6.194
   17U      H1'  532   4.321   3.550   6.178
   17U       N1  533   4.316   3.753   6.111
   17U       C6  534   4.237   3.853   6.054
   17U       H6  535   4.130   3.848   6.068
   17U       C5  536   4.287   3.944   5.967
   17U       H5  537   4.220   4.010   5.912
   17U       C4  538   4.429   3.937   5.929
   17U       O4  539   4.486   3.999   5.845
   17U       N3  540   4.510   3.852   6.007
   17U       H3  541   4.610   3.856   5.990
   17U       C2  542   4.458   3.752   6.094
   17U       O2  543   4.530   3.671   6.148
   17U      C3'  544   4.120   3.728   6.346
   17U      H3'  545   4.097   3.827   6.307
   17U      C2'  546   4.266   3.681   6.340
   17U      H2'  547   4.336   3.763   6.357
   17U      O2'  548   4.296   3.576   6.433
   17U     HO2'  549   4.241   3.589   6.511
   17U      O3'  550   4.074   3.724   6.481
   18A        P  551   4.071   3.857   6.569
   18A      OP1  552   4.079   3.807   6.708
   18A      OP2  553   3.961   3.942   6.527
   18A      O5'  554   4.208   3.929   6.534
   18A      C5'  555   4.326   3.899   6.599
   18A      H5'  556   4.341   3.791   6.601
   18A     H5''  557   4.322   3.921   6.706
   18A      C4'  558   4.440   3.980   6.533
   18A      H4'  559   4.540   3.948   6.562
   18A      O4'  560   4.437   3.981   6.393
   18A      C1'  561   4.486   4.099   6.339
   18A      H1'  562   4.571   4.078   6.273
   18A       N9  563   4.384   4.152   6.247
   18A       C8  564   4.244   4.148   6.252
   18A       H8  565   4.192   4.108   6.338
   18A       N7  566   4.186   4.205   6.152
   18A       C5  567   4.290   4.249   6.074
   18A       C6  568   4.302   4.321   5.950
   18A       N6  569   4.198   4.357   5.875
   18A      H61  570   4.218   4.408   5.790
   18A      H62  571   4.106   4.338   5.912
   18A       N1  572   4.417   4.369   5.895
   18A       C2  573   4.523   4.335   5.967
   18A       H2  574   4.615   4.385   5.941
   18A       N3  575   4.530   4.267   6.086
   18A       C4  576   4.411   4.225   6.133
   18A      C3'  577   4.424   4.129   6.561
   18A      H3'  578   4.320   4.158   6.549
   18A      C2'  579   4.512   4.190   6.453
   18A      H2'  580   4.492   4.295   6.434
   18A      O2'  581   4.652   4.176   6.491
   18A     HO2'  582   4.651   4.196   6.585
   18A      O3'  583   4.456   4.163   6.698
   19G        P  584   4.410   4.300   6.758
   19G      OP1  585   4.462   4.323   6.896
   19G      OP2  586   4.262   4.320   6.734
   19G      O5'  587   4.474   4.413   6.663
   19G      C5'  588   4.607   4.462   6.673
   19G      H5'  589   4.673   4.378   6.651
   19G     H5''  590   4.624   4.498   6.774
   19G      C4'  591   4.642   4.569   6.570
   19G      H4'  592   4.746   4.593   6.591
   19G      O4'  593   4.633   4.523   6.441
   19G      C1'  594   4.593   4.637   6.356
   19G      H1'  595   4.666   4.650   6.275
   19G       N9  596   4.461   4.595   6.297
   19G       C8  597   4.353   4.527   6.349
   19G       H8  598   4.362   4.480   6.446
   19G       N7  599   4.249   4.520   6.273
   19G       C5  600   4.290   4.583   6.156
   19G       C6  601   4.213   4.608   6.036
   19G       O6  602   4.097   4.578   6.024
   19G       N1  603   4.282   4.682   5.938
   19G       H1  604   4.234   4.691   5.850
   19G       C2  605   4.412   4.721   5.960
   19G       N2  606   4.472   4.772   5.859
   19G      H21  607   4.412   4.786   5.779
   19G      H22  608   4.572   4.789   5.862
   19G       N3  609   4.479   4.704   6.072
   19G       C4  610   4.419   4.629   6.168
   19G      C3'  611   4.550   4.698   6.582
   19G      H3'  612   4.447   4.669   6.599
   19G      C2'  613   4.575   4.762   6.443
   19G      H2'  614   4.494   4.824   6.405
   19G      O2'  615   4.694   4.833   6.432
   19G     HO2'  616   4.683   4.900   6.500
   19G      O3'  617   4.594   4.769   6.700
   20G        P  618   4.501   4.866   6.777
   20G      OP1  619   4.568   4.901   6.904
   20G      OP2  620   4.369   4.799   6.787
   20G      O5'  621   4.499   4.991   6.685
   20G      C5'  622   4.604   5.084   6.686
   20G      H5'  623   4.697   5.028   6.675
   20G     H5''  624   4.595   5.146   6.775
   20G      C4'  625   4.585   5.175   6.566
   20G      H4'  626   4.674   5.237   6.556
   20G      O4'  627   4.580   5.105   6.438
   20G      C1'  628   4.490   5.180   6.361
   20G      H1'  629   4.547   5.222   6.278
   20G       N9  630   4.378   5.098   6.315
   20G       C8  631   4.285   5.041   6.397
   20G       H8  632   4.303   5.042   6.504
   20G       N7  633   4.186   4.979   6.346
   20G       C5  634   4.211   4.998   6.209
   20G       C6  635   4.144   4.946   6.094
   20G       O6  636   4.038   4.887   6.089
   20G       N1  637   4.193   4.988   5.974
   20G       H1  638   4.140   4.970   5.890
   20G       C2  639   4.308   5.059   5.969
   20G       N2  640   4.345   5.093   5.852
   20G      H21  641   4.280   5.079   5.776
   20G      H22  642   4.430   5.147   5.842
   20G       N3  643   4.387   5.097   6.070
   20G       C4  644   4.330   5.065   6.190
   20G      C3'  645   4.465   5.260   6.589
   20G      H3'  646   4.383   5.205   6.636
   20G      C2'  647   4.442   5.299   6.443
   20G      H2'  648   4.334   5.310   6.432
   20G      O2'  649   4.501   5.417   6.395
   20G     HO2'  650   4.454   5.485   6.444
   20G      O3'  651   4.487   5.376   6.659
   21G3       P  652   4.361   5.471   6.716
   21G3     OP1  653   4.410   5.543   6.833
   21G3     OP2  654   4.236   5.392   6.729
   21G3     O5'  655   4.342   5.572   6.593
   21G3     C5'  656   4.422   5.686   6.592
   21G3     H5'  657   4.530   5.671   6.601
   21G3    H5''  658   4.383   5.739   6.678
   21G3     C4'  659   4.389   5.771   6.472
   21G3     H4'  660   4.459   5.854   6.473
   21G3     O4'  661   4.407   5.690   6.356
   21G3     C1'  662   4.321   5.740   6.252
   21G3     H1'  663   4.369   5.775   6.160
   21G3      N9  664   4.244   5.617   6.221
   21G3      C8  665   4.157   5.556   6.304
   21G3      H8  666   4.124   5.591   6.401
   21G3      N7  667   4.104   5.445   6.258
   21G3      C5  668   4.156   5.445   6.128
   21G3      C6  669   4.126   5.350   6.020
   21G3      O6  670   4.045   5.257   6.026
   21G3      N1  671   4.196   5.376   5.903
   21G3      H1  672   4.183   5.313   5.825
   21G3      C2  673   4.286   5.474   5.891
   21G3      N2  674   4.345   5.493   5.780
   21G3     H21  675   4.324   5.429   5.704
   21G3     H22  676   4.407   5.571   5.768
   21G3      N3  677   4.321   5.563   5.988
   21G3      C4  678   4.250   5.538   6.105
   21G3     C3'  679   4.248   5.838   6.455
   21G3     H3'  680   4.181   5.764   6.497
   21G3     C2'  681   4.233   5.853   6.299
   21G3     H2'  682   4.131   5.839   6.262
   21G3     O2'  683   4.294   5.973   6.265
   21G3    HO2'  684   4.257   6.035   6.329
   21G3     O3'  685   4.237   5.955   6.537
   21G3    HO3'  686   4.142   5.964   6.552
   22Cl-    Cl-  687   9.662   6.330   2.217
   23Cl-    Cl-  688   9.753   1.356   2.968
   24Cl-    Cl-  689   0.384   9.337   3.254
   25Cl-    Cl-  690   3.971   8.651   3.711
   26Cl-    Cl-  691   1.826   8.363   9.869
   27Cl-    Cl-  692   6.602   2.688   3.941
   28Cl-    Cl-  693   5.446   9.084   8.552
   29Cl-    Cl-  694   2.228   3.536   4.943
   30Cl-    Cl-  695   5.184   8.687   1.100
   31Cl-    Cl-  696   4.245   0.030   3.527
   32Cl-    Cl-  697   6.191   6.317   7.226
   33Cl-    Cl-  698   5.358   1.959   9.576
   34Cl-    Cl-  699   6.704   4.664   2.826
   35Cl-    Cl-  700   8.939   1.276   0.134
   36Cl-    Cl-  701   6.169   7.520   6.606
   37Cl-    Cl-  702   8.571   5.615   0.501
   38Cl-    Cl-  703   9.526   5.361   4.506
   39Cl-    Cl-  704   4.170   2.863   9.349
   40Cl-    Cl-  705   0.067   8.157   8.164
   41Cl-    Cl-  706   2.578   2.751   9.651
   42Cl-    Cl-  707   1.523   1.140   3.490
   43Cl-    Cl-  708   8.985   6.961   8.069
   44Cl-    Cl-  709   2.732   1.191   3.693
   45Cl-    Cl-  710   2.991   5.783   7.539
   46Cl-    Cl-  711   2.876   5.390   6.151
   47Cl-    Cl-  712   2.466   4.685   4.441
   48Cl-    Cl-  713   9.403   4.867   3.534
   49Cl-    Cl-  714   0.594   4.727   6.520
   50Cl-    Cl-  715   8.223   6.629   6.379
   51Cl-    Cl-  716   0.049   4.212   1.406
   52Cl-    Cl-  717   6.596   2.169   7.937
   53Cl-    Cl-  718   1.471   1.643   3.869
   54Cl-    Cl-  719   0.378   7.230   4.994
   55Cl-    Cl-  720   3.219   9.285   0.645
   56Cl-    Cl-  721   0.087   4.964   7.331
   57Cl-    Cl-  722   3.510   8.351   1.589
   58Cl-    Cl-  723   0.307   9.086   7.398
   59Cl-    Cl-  724   9.649   3.574   7.341
   60Cl-    Cl-  725   3.449   2.788   2.571
   61Cl-    Cl-  726   0.350   1.576   3.230
   62Cl-    Cl-  727   8.219   9.812   3.422
   63Cl-    Cl-  728   9.837   2.150   9.083
   64Cl-    Cl-  729   6.305   4.946   2.537
   65Cl-    Cl-  730   3.158   1.781   1.003
   66Cl-    Cl-  731   9.555   0.793   5.119
   67Cl-    Cl-  732   9.499   3.617   8.646
   68Cl-    Cl-  733   3.631   1.141   5.159
   69Cl-    Cl-  734   5.349   6.904   3.145
   70Cl-    Cl-  735   3.543   3.446   8.484
   71Cl-    Cl-  736   0.096   2.224   5.681
   72Cl-    Cl-  737   6.638   1.302   5.252
   73Cl-    Cl-  738   2.229   0.288   4.706
   74Cl-    Cl-  739   7.730   5.434   4.265
   75Cl-    Cl-  740   8.643   7.953   1.393
   76Cl-    Cl-  741   4.395   8.178   7.363
   77Cl-    Cl-  742   5.438   8.091   9.038
   78Cl-    Cl-  743   6.122   7.387   1.151
   79Cl-    Cl-  744   6.902   6.570   4.692
   80Cl-    Cl-  745   5.615   0.237   4.581
   81Cl-    Cl-  746   0.462   4.435   9.139
   82Cl-    Cl-  747   2.138   4.915   5.572
   83Cl-    Cl-  748   8.861   3.084   7.895
   84Cl-    Cl-  749   0.211   1.516   8.714
   85Cl-    Cl-  750   0.650   3.880   7.013
   86Cl-    Cl-  751   9.456   7.644   3.220
   87Cl-    Cl-  752   6.592   1.268   4.731
   88Cl-    Cl-  753   4.814   6.057   8.884
   89Cl-    Cl-  754   0.584   3.337   6.660
   90Cl-    Cl-  755   1.311   7.542   2.811
   91Cl-    Cl-  756   7.084   5.202   6.175
   92Cl-    Cl-  757   0.630   2.388   0.874
   93Cl-    Cl-  758   1.954   2.962   1.893
   94Cl-    Cl-  759   7.717   8.420   5.030
   95Cl-    Cl-  760   9.337   5.367   7.455
   96Cl-    Cl-  761   3.218   7.747   7.417
   97Cl-    Cl-  762   2.428   7.889   8.628
   98Cl-    Cl-  763   9.730   2.842   7.905
   99Cl-    Cl-  764   7.306   2.396   6.447
  100Cl-    Cl-  765   2.481   8.483   5.394
  101Cl-    Cl-  766   4.338   9.011   8.375
  102Cl-    Cl-  767   5.121   1.750   0.941
  103Cl-    Cl-  768   8.844   4.255   6.892
  104Cl-    Cl-  769   0.861   8.485   5.085
  105Cl-    Cl-  770   3.381   8.014   9.074
  106Cl-    Cl-  771   0.704   8.628   1.357
  107K+      K+  772   0.150   1.916   6.670
  108K+      K+  773   3.079   4.259   6.264
  109K+      K+  774   8.712   6.655   8.975
  110K+      K+  775   9.423   3.203   7.752
  111K+      K+  776   4.329   4.397   5.441
  112K+      K+  777   4.251   7.440   8.428
  113K+      K+  778   0.823   5.939   1.201
  114K+      K+  779   6.836   1.527   4.340
  115K+      K+  780   4.535   0.227   9.891
  116K+      K+  781   0.471   7.792   5.188
  117K+      K+  782   7.170   4.684   3.872
  118K+      K+  783   0.143   1.865   0.884
  119K+      K+  784   9.589   2.823   9.105
  120K+      K+  785   3.771   0.553   0.250
  121K+      K+  786   4.600   5.133   4.291
  122K+      K+  787   7.604   2.436   7.019
  123K+      K+  788   2.777   0.227   4.583
  124K+      K+  789   3.538   5.120   7.114
  125K+      K+  790   4.568   4.179   5.672
  126K+      K+  791   9.357   2.521   3.499
  127K+      K+  792   4.632   7.294   2.770
  128K+      K+  793   7.838   1.513   0.542
  129K+      K+  794   8.118   3.413   9.458
  130K+      K+  795   7.883   7.231   8.234
  131K+      K+  796   9.605   5.396   7.294
  132K+      K+  797   6.432   6.585   0.499
  133K+      K+  798   4.176   1.877   2.719
  134K+      K+  799   4.978   9.325   4.113
  135K+      K+  800   3.280   7.842   3.047
  136K+      K+  801   1.467   2.924   5.452
  137K+      K+  802   6.752   5.541   2.656
  138K+      K+  803   4.033   5.115   2.901
  139K+      K+  804   4.569   3.740   3.247
  140K+      K+  805   2.405   7.720   5.312
  141K+      K+  806   8.243   2.998   4.883
  142K+      K+  807   0.864   4.314   6.795
  143K+      K+  808   6.436   1.795   4.083
  144K+      K+  809   6.801   8.707   0.886
  145K+      K+  810   5.106   5.529   4.359
  146K+      K+  811   7.940   9.827   0.627
  147K+      K+  812   8.603   3.310   6.753
  148K+      K+  813   0.454   3.510   8.662
  149K+      K+  814   5.313   5.634   4.065
  150K+      K+  815   5.315   6.119   1.957
  151K+      K+  816   8.888   2.761   3.402
  152K+      K+  817   9.715   2.484   8.136
  153K+      K+  818   8.605   0.597   7.994
  154K+      K+  819   5.527   4.528   8.414
  155K+      K+  820   8.168   7.555   2.195
  156K+      K+  821   6.197   8.424   1.845
  157K+      K+  822   9.059   9.787   3.769
  158K+      K+  823   9.099   6.466   4.911
  159K+      K+  824   5.385   4.287   3.630
  160K+      K+  825   2.255   4.688   6.072
  161K+      K+  826   2.621   8.700   0.463
  162K+      K+  827   5.022   3.891   0.521
  163K+      K+  828   4.613   4.488   4.946
  164K+      K+  829   4.623   9.129   1.671
  165K+      K+  830   4.802   7.053   7.808
  166K+      K+  831   5.243   3.116   4.964
  167K+      K+  832   9.580   0.896   3.932
  168K+      K+  833   1.593   3.944   4.979
  169K+      K+  834   3.508   6.984   2.252
  170K+      K+  835   7.156   4.778   6.468
  171K+      K+  836   8.464   2.693   7.895
  172K+      K+  837   5.500   6.689   4.096
  173K+      K+  838   2.298   9.621   4.841
  174K+      K+  839   0.282   5.787   7.658
  175K+      K+  840   9.628   6.572   8.643
  176K+      K+  841   3.241   2.060   2.021
  177K+      K+  842   4.016   4.407   6.266
  178K+      K+  843   1.501   6.039   2.053
  179K+      K+  844   6.981   6.979   3.782
  180K+      K+  845   4.641   2.775   7.694
  181K+      K+  846   0.148   4.077   6.931
  182K+      K+  847   0.055   7.370   0.313
  183K+      K+  848   4.517   7.970   6.443
  184K+      K+  849   4.019   4.884   3.844
  185K+      K+  850   2.993   4.537   8.498
  186K+      K+  851   3.429   7.426   1.729
  187K+      K+  852   3.839   4.134   0.184
  188K+      K+  853   1.298   1.205   3.938
  189K+      K+  854   1.034   1.386   3.302
  190K+      K+  855   1.525   5.136   7.427
  191K+      K+  856   3.824   4.657   5.995
  192K+      K+  857   9.053   7.748   2.792
  193K+      K+  858   9.404   7.563   3.848
  194K+      K+  859   3.832   5.109   6.180
  195K+      K+  860   6.385   5.308   3.788
  196K+      K+  861   2.788   9.440   5.614
  197K+      K+  862   4.063   4.303   6.917
  198K+      K+  863   7.872   3.163   1.197
  199K+      K+  864   7.233   4.377   3.307
  200K+      K+  865   0.706   1.287   9.589
  201K+      K+  866   3.378   8.672   7.419
  202K+      K+  867   2.179   2.485   0.757
  203K+      K+  868   3.757   4.255   8.054
  204K+      K+  869   5.395   1.585   7.713
  205K+      K+  870   4.489   4.173   5.114
  206K+      K+  871   2.291   7.252   7.496
  207K+      K+  872   7.787   7.531   9.707
  208K+      K+  873   4.745   5.486   4.631
  209K+      K+  874   3.315   0.169   5.450
  210K+      K+  875   7.201   8.092   5.018
  211K+      K+  876   4.636   5.175   9.870
  212WAT      O  877   6.916   3.538   6.624
  212WAT     H1  878   6.899   3.622   6.674
  212WAT     H2  879   6.829   3.501   6.591
  213WAT      O  880   2.848   7.109   4.876
  213WAT     H1  881   2.824   7.047   4.950
  213WAT     H2  882   2.941   7.143   4.890
  214WAT      O  883   1.535   5.405   0.546
  214WAT     H1  884   1.497   5.320   0.508
  214WAT     H2  885   1.560   5.466   0.472
  215WAT      O  886   4.892   6.956   4.894
  215WAT     H1  887   4.887   6.880   4.830
  215WAT     H2  888   4.849   6.930   4.981
  216WAT      O  889   3.211   4.299   4.593
  216WAT     H1  890   3.127   4.339   4.557
  216WAT     H2  891   3.285   4.312   4.526
  217WAT      O  892   7.169   3.147   5.422
  217WAT     H1  893   7.106   3.175   5.494
  217WAT     H2  894   7.182   3.221   5.357
  218WAT      O  895   0.776   1.351   3.255
  218WAT     H1  896   0.736   1.441   3.243
  218WAT     H2  897   0.713   1.281   3.221
  219WAT      O  898   5.342   5.494   4.711
  219WAT     H1  899   5.360   5.505   4.613
  219WAT     H2  900   5.416   5.442   4.753
  220WAT      O  901   3.925   3.044   5.067
  220WAT     H1  902   3.855   3.070   5.134
  220WAT     H2  903   3.946   2.947   5.076
  221WAT      O  904   0.490   3.902   0.149
  221WAT     H1  905   0.499   3.989   0.101
  221WAT     H2  906   0.543   3.905   0.234
  222WAT      O  907   5.843   4.147   2.670
  222WAT     H1  908   5.880   4.159   2.578
  222WAT     H2  909   5.890   4.072   2.715
  223WAT      O  910   7.317   7.856   8.920
  223WAT     H1  911   7.252   7.862   8.996
  223WAT     H2  912   7.321   7.762   8.886
  224WAT      O  913   4.645   9.398   7.162
  224WAT     H1  914   4.551   9.366   7.160
  224WAT     H2  915   4.703   9.334   7.112
  225WAT      O  916   3.957   3.092   1.291
  225WAT     H1  917   3.945   3.166   1.357
  225WAT     H2  918   4.005   3.016   1.335
  226WAT      O  919   9.349   6.431   0.925
  226WAT     H1  920   9.366   6.386   0.838
  226WAT     H2  921   9.259   6.404   0.959
  227WAT      O  922   5.279   8.520   1.619
  227WAT     H1  923   5.365   8.514   1.671
  227WAT     H2  924   5.266   8.614   1.589
  228WAT      O  925   2.534   5.956   6.613
  228WAT     H1  926   2.539   6.024   6.540
  228WAT     H2  927   2.581   5.872   6.584
  229WAT      O  928   7.033   4.581   4.498
  229WAT     H1  929   6.951   4.528   4.519
  229WAT     H2  930   7.009   4.656   4.436
  230WAT      O  931   3.093   5.826   2.904
  230WAT     H1  932   3.129   5.919   2.913
  230WAT     H2  933   3.004   5.828   2.859
  231WAT      O  934   1.715   2.705   4.894
  231WAT     H1  935   1.616   2.713   4.884
  231WAT     H2  936   1.748   2.778   4.954
  232WAT      O  937   9.356   2.374   5.775
  232WAT     H1  938   9.266   2.329   5.781
  232WAT     H2  939   9.413   2.344   5.851
  233WAT      O  940   4.453   1.428   4.676
  233WAT     H1  941   4.402   1.344   4.657
  233WAT     H2  942   4.521   1.442   4.605
  234WAT      O  943   2.729   8.970   5.893
  234WAT     H1  944   2.818   9.010   5.916
  234WAT     H2  945   2.667   8.979   5.972
  235WAT      O  946   0.612   9.754   4.778
  235WAT     H1  947   0.567   9.675   4.822
  235WAT     H2  948   0.574   9.838   4.817
  236WAT      O  949   4.343   1.414   3.230
  236WAT     H1  950   4.296   1.490   3.274
  236WAT     H2  951   4.336   1.423   3.130
  237WAT      O  952   6.754   9.118   1.472
  237WAT     H1  953   6.782   9.026   1.447
  237WAT     H2  954   6.655   9.126   1.465
  238WAT      O  955   0.241   8.316   2.251
  238WAT     H1  956   0.340   8.316   2.270
  238WAT     H2  957   0.225   8.350   2.159
  239WAT      O  958   5.186   0.323   6.234
  239WAT     H1  959   5.160   0.361   6.323
  239WAT     H2  960   5.271   0.365   6.203
  240WAT      O  961   5.194   3.854   1.262
  240WAT     H1  962   5.267   3.788   1.243
  240WAT     H2  963   5.109   3.806   1.281
  241WAT      O  964   1.493   1.983   6.990
  241WAT     H1  965   1.579   2.006   7.037
  241WAT     H2  966   1.492   1.887   6.965
  242WAT      O  967   6.381   4.145   0.959
  242WAT     H1  968   6.299   4.124   1.012
  242WAT     H2  969   6.416   4.061   0.917
  243WAT      O  970   7.026   1.290   5.461
  243WAT     H1  971   6.957   1.361   5.444
  243WAT     H2  972   6.982   1.201   5.464
  244WAT      O  973   8.840   5.359   1.853
  244WAT     H1  974   8.838   5.458   1.858
  244WAT     H2  975   8.896   5.322   1.927
  245WAT      O  976   1.328   3.332   4.922
  245WAT     H1  977   1.313   3.318   4.824
  245WAT     H2  978   1.426   3.350   4.937
  246WAT      O  979   0.008   0.522   8.131
  246WAT     H1  980   0.050   0.447   8.080
  246WAT     H2  981   0.078   0.590   8.152
  247WAT      O  982   7.440   6.276   8.676
  247WAT     H1  983   7.510   6.278   8.604
  247WAT     H2  984   7.393   6.187   8.674
  248WAT      O  985   1.720   5.134   1.501
  248WAT     H1  986   1.789   5.063   1.505
  248WAT     H2  987   1.764   5.224   1.494
  249WAT      O  988   7.863   8.249   4.501
  249WAT     H1  989   7.799   8.197   4.445
  249WAT     H2  990   7.883   8.198   4.585
  250WAT      O  991   3.681   7.546   9.363
  250WAT     H1  992   3.716   7.459   9.398
  250WAT     H2  993   3.628   7.529   9.280
  251WAT      O  994   5.720   3.156   6.013
  251WAT     H1  995   5.642   3.094   6.002
  251WAT     H2  996   5.738   3.203   5.927
  252WAT      O  997   4.741   3.918   4.520
  252WAT     H1  998   4.645   3.930   4.496
  252WAT     H2  999   4.763   3.820   4.522
  253WAT      O 1000   8.801   1.369   9.548
  253WAT     H1 1001   8.755   1.348   9.635
  253WAT     H2 1002   8.859   1.292   9.521
  254WAT      O 1003   4.528   2.502   3.327
  254WAT     H1 1004   4.566   2.526   3.416
  254WAT     H2 1005   4.597   2.519   3.256
  255WAT      O 1006   4.610   6.744   4.834
  255WAT     H1 1007   4.703   6.714   4.814
  255WAT     H2 1008   4.612   6.822   4.897
  256WAT      O 1009   8.533   8.301   5.128
  256WAT     H1 1010   8.608   8.367   5.132
  256WAT     H2 1011   8.569   8.211   5.103
  257WAT      O 1012   8.380   5.817   3.765
  257WAT     H1 1013   8.445   5.791   3.694
  257WAT     H2 1014   8.425   5.814   3.855
  258WAT      O 1015   3.847   4.046   2.175
  258WAT     H1 1016   3.753   4.076   2.189
  258WAT     H2 1017   3.893   4.109   2.113
  259WAT      O 1018   1.299   6.977   8.757
  259WAT     H1 1019   1.327   7.035   8.834
  259WAT     H2 1020   1.278   7.035   8.678
  260WAT      O 1021   7.128   4.839   5.859
  260WAT     H1 1022   7.066   4.773   5.817
  260WAT     H2 1023   7.217   4.795   5.877
  261WAT      O 1024   5.931   7.151   8.245
  261WAT     H1 1025   5.886   7.233   8.210
  261WAT     H2 1026   5.959   7.093   8.168
  262WAT      O 1027   3.539   7.532   4.996
  262WAT     H1 1028   3.613   7.556   4.934
  262WAT     H2 1029   3.559   7.566   5.088
  263WAT      O 1030   7.206   9.142   0.724
  263WAT     H1 1031   7.252   9.112   0.640
  263WAT     H2 1032   7.274   9.153   0.796
  264WAT      O 1033   7.698   7.491   9.463
  264WAT     H1 1034   7.599   7.484   9.460
  264WAT     H2 1035   7.731   7.525   9.375
  265WAT      O 1036   4.202   1.985   4.474
  265WAT     H1 1037   4.221   2.035   4.390
  265WAT     H2 1038   4.266   1.908   4.482
  266WAT      O 1039   2.147   7.656   1.658
  266WAT     H1 1040   2.094   7.672   1.741
  266WAT     H2 1041   2.085   7.630   1.583
  267WAT      O 1042   6.667   2.365   4.805
  267WAT     H1 1043   6.592   2.300   4.806
  267WAT     H2 1044   6.669   2.415   4.892
  268WAT      O 1045   7.919   1.700   6.620
  268WAT     H1 1046   7.877   1.637   6.685
  268WAT     H2 1047   8.018   1.684   6.616
  269WAT      O 1048   1.776   7.227   4.967
  269WAT     H1 1049   1.790   7.287   5.046
  269WAT     H2 1050   1.678   7.219   4.948
  270WAT      O 1051   5.304   7.618   2.596
  270WAT     H1 1052   5.346   7.708   2.590
  270WAT     H2 1053   5.236   7.607   2.523
  271WAT      O 1054   8.193   6.679   9.127
  271WAT     H1 1055   8.174   6.696   9.224
  271WAT     H2 1056   8.184   6.581   9.109
  272WAT      O 1057   3.713   5.855   9.165
  272WAT     H1 1058   3.789   5.846   9.229
  272WAT     H2 1059   3.734   5.927   9.098
  273WAT      O 1060   7.776   6.402   3.774
  273WAT     H1 1061   7.738   6.415   3.683
  273WAT     H2 1062   7.738   6.470   3.836
  274WAT      O 1063   8.876   8.423   4.330
  274WAT     H1 1064   8.926   8.507   4.309
  274WAT     H2 1065   8.778   8.441   4.325
  275WAT      O 1066   1.914   0.731   7.254
  275WAT     H1 1067   1.935   0.802   7.322
  275WAT     H2 1068   1.818   0.739   7.226
  276WAT      O 1069   3.919   2.816   7.013
  276WAT     H1 1070   3.957   2.732   6.975
  276WAT     H2 1071   3.993   2.882   7.028
  277WAT      O 1072   1.043   3.413   9.401
  277WAT     H1 1073   1.032   3.501   9.446
  277WAT     H2 1074   1.051   3.426   9.302
  278WAT      O 1075   3.216   6.413   7.271
  278WAT     H1 1076   3.138   6.406   7.333
  278WAT     H2 1077   3.186   6.452   7.184
  279WAT      O 1078   9.337   9.203   2.335
  279WAT     H1 1079   9.425   9.206   2.383
  279WAT     H2 1080   9.297   9.294   2.333
  280WAT      O 1081   1.003   3.720   0.189
  280WAT     H1 1082   1.064   3.692   0.263
  280WAT     H2 1083   1.000   3.820   0.184
  281WAT      O 1084   1.491   0.833   1.309
  281WAT     H1 1085   1.577   0.836   1.257
  281WAT     H2 1086   1.436   0.913   1.287
  282WAT      O 1087   3.461   4.968   7.822
  282WAT     H1 1088   3.470   5.060   7.858
  282WAT     H2 1089   3.433   4.972   7.726
  283WAT      O 1090   7.938   3.507   3.837
  283WAT     H1 1091   7.988   3.488   3.921
  283WAT     H2 1092   7.893   3.596   3.844
  284WAT      O 1093   3.665   2.481   5.833
  284WAT     H1 1094   3.587   2.433   5.873
  284WAT     H2 1095   3.690   2.559   5.891
  285WAT      O 1096   4.986   9.544   5.962
  285WAT     H1 1097   5.034   9.528   6.048
  285WAT     H2 1098   4.977   9.643   5.948
  286WAT      O 1099   5.046   8.293   8.820
  286WAT     H1 1100   4.984   8.280   8.897
  286WAT     H2 1101   5.123   8.351   8.849
  287WAT      O 1102   1.356   9.376   1.398
  287WAT     H1 1103   1.409   9.309   1.345
  287WAT     H2 1104   1.395   9.467   1.385
  288WAT      O 1105   6.069   8.570   9.190
  288WAT     H1 1106   5.969   8.574   9.182
  288WAT     H2 1107   6.107   8.661   9.177
  289WAT      O 1108   3.604   1.185   8.710
  289WAT     H1 1109   3.571   1.278   8.720
  289WAT     H2 1110   3.568   1.145   8.625
  290WAT      O 1111   3.874   1.136   2.640
  290WAT     H1 1112   3.960   1.180   2.613
  290WAT     H2 1113   3.831   1.095   2.560
  291WAT      O 1114   6.636   7.038   3.510
  291WAT     H1 1115   6.568   7.018   3.580
  291WAT     H2 1116   6.649   6.957   3.452
  292WAT      O 1117   1.815   2.348   9.859
  292WAT     H1 1118   1.850   2.381   9.771
  292WAT     H2 1119   1.889   2.306   9.911
  293WAT      O 1120   9.828   3.908   0.938
  293WAT     H1 1121   9.904   3.879   0.996
  293WAT     H2 1122   9.784   3.988   0.980
  294WAT      O 1123   0.331   1.140   7.985
  294WAT     H1 1124   0.344   1.057   8.039
  294WAT     H2 1125   0.242   1.181   8.007
  295WAT      O 1126   5.761   4.806   8.572
  295WAT     H1 1127   5.852   4.794   8.534
  295WAT     H2 1128   5.762   4.881   8.638
  296WAT      O 1129   3.395   4.296   2.627
  296WAT     H1 1130   3.311   4.348   2.643
  296WAT     H2 1131   3.371   4.204   2.595
  297WAT      O 1132   6.265   1.685   2.590
  297WAT     H1 1133   6.351   1.735   2.596
  297WAT     H2 1134   6.227   1.695   2.497
  298WAT      O 1135   7.918   6.226   6.834
  298WAT     H1 1136   7.891   6.323   6.829
  298WAT     H2 1137   7.842   6.169   6.802
  299WAT      O 1138   9.069   4.169   8.691
  299WAT     H1 1139   9.027   4.092   8.642
  299WAT     H2 1140   9.006   4.247   8.690
  300WAT      O 1141   5.125   4.983   1.126
  300WAT     H1 1142   5.174   4.930   1.057
  300WAT     H2 1143   5.030   4.953   1.129
  301WAT      O 1144   3.840   6.449   1.188
  301WAT     H1 1145   3.860   6.361   1.230
  301WAT     H2 1146   3.831   6.438   1.089
  302WAT      O 1147   3.932   3.491   7.776
  302WAT     H1 1148   3.867   3.535   7.838
  302WAT     H2 1149   3.882   3.436   7.709
  303WAT      O 1150   6.076   7.582   8.987
  303WAT     H1 1151   6.054   7.606   9.082
  303WAT     H2 1152   6.041   7.491   8.966
  304WAT      O 1153   0.161   1.765   3.511
  304WAT     H1 1154   0.212   1.750   3.426
  304WAT     H2 1155   0.102   1.687   3.529
  305WAT      O 1156   5.847   1.341   3.446
  305WAT     H1 1157   5.773   1.395   3.486
  305WAT     H2 1158   5.931   1.356   3.499
  306WAT      O 1159   3.094   3.519   4.783
  306WAT     H1 1160   3.104   3.618   4.799
  306WAT     H2 1161   3.182   3.481   4.756
  307WAT      O 1162   8.095   5.969   4.649
  307WAT     H1 1163   8.022   6.024   4.609
  307WAT     H2 1164   8.150   5.929   4.575
  308WAT      O 1165   4.328   3.801   7.258
  308WAT     H1 1166   4.397   3.848   7.313
  308WAT     H2 1167   4.330   3.703   7.280
  309WAT      O 1168   4.084   6.144   6.385
  309WAT     H1 1169   4.050   6.092   6.463
  309WAT     H2 1170   4.009   6.164   6.323
  310WAT      O 1171   2.168   0.737   7.038
  310WAT     H1 1172   2.083   0.728   7.090
  310WAT     H2 1173   2.161   0.683   6.954
  311WAT      O 1174   6.702   8.156   0.887
  311WAT     H1 1175   6.788   8.186   0.929
  311WAT     H2 1176   6.713   8.063   0.853
  312WAT      O 1177   2.105   4.057   9.588
  312WAT     H1 1178   2.011   4.074   9.618
  312WAT     H2 1179   2.105   4.034   9.490
  313WAT      O 1180   7.905   2.021   7.021
  313WAT     H1 1181   7.914   1.943   7.083
  313WAT     H2 1182   7.948   2.101   7.063
  314WAT      O 1183   1.522   2.710   9.029
  314WAT     H1 1184   1.447   2.715   8.964
  314WAT     H2 1185   1.608   2.697   8.980
  315WAT      O 1186   8.016   8.839   1.605
  315WAT     H1 1187   8.069   8.919   1.633
  315WAT     H2 1188   7.984   8.851   1.512
  316WAT      O 1189   2.344   0.463   4.942
  316WAT     H1 1190   2.307   0.405   4.870
  316WAT     H2 1191   2.441   0.481   4.924
  317WAT      O 1192   2.392   9.226   2.677
  317WAT     H1 1193   2.397   9.162   2.754
  317WAT     H2 1194   2.413   9.177   2.592
  318WAT      O 1195   9.846   6.355   4.929
  318WAT     H1 1196   9.912   6.421   4.895
  318WAT     H2 1197   9.872   6.324   5.020
  319WAT      O 1198   0.650   9.317   1.393
  319WAT     H1 1199   0.730   9.376   1.396
  319WAT     H2 1200   0.679   9.221   1.395
  320WAT      O 1201   4.504   4.056   8.415
  320WAT     H1 1202   4.443   4.108   8.475
  320WAT     H2 1203   4.513   3.963   8.450
  321WAT      O 1204   1.820   9.481   5.530
  321WAT     H1 1205   1.764   9.431   5.464
  321WAT     H2 1206   1.767   9.557   5.568
  322WAT      O 1207   0.703   3.338   7.302
  322WAT     H1 1208   0.620   3.285   7.319
  322WAT     H2 1209   0.709   3.412   7.370
  323WAT      O 1210   1.014   7.986   2.540
  323WAT     H1 1211   0.960   7.904   2.555
  323WAT     H2 1212   0.970   8.044   2.471
  324WAT      O 1213   7.884   9.251   7.527
  324WAT     H1 1214   7.807   9.197   7.561
  324WAT     H2 1215   7.963   9.192   7.514
  325WAT      O 1216   5.889   7.657   2.575
  325WAT     H1 1217   5.796   7.618   2.578
  325WAT     H2 1218   5.883   7.756   2.565
  326WAT      O 1219   8.562   0.316   0.455
  326WAT     H1 1220   8.550   0.275   0.546
  326WAT     H2 1221   8.505   0.398   0.448
  327WAT      O 1222   6.017   5.367   1.820
  327WAT     H1 1223   6.077   5.289   1.838
  327WAT     H2 1224   6.064   5.431   1.759
  328WAT      O 1225   2.009   0.198   4.902
  328WAT     H1 1226   2.013   0.099   4.911
  328WAT     H2 1227   2.071   0.228   4.829
  329WAT      O 1228   5.352   0.097   2.440
  329WAT     H1 1229   5.397   0.019   2.396
  329WAT     H2 1230   5.330   0.074   2.535
  330WAT      O 1231   8.005   3.262   5.704
  330WAT     H1 1232   7.955   3.234   5.786
  330WAT     H2 1233   8.091   3.211   5.698
  331WAT      O 1234   6.071   6.330   5.449
  331WAT     H1 1235   5.990   6.375   5.488
  331WAT     H2 1236   6.112   6.389   5.379
  332WAT      O 1237   5.807   3.874   5.066
  332WAT     H1 1238   5.725   3.908   5.020
  332WAT     H2 1239   5.780   3.825   5.150
  333WAT      O 1240   2.272   6.368   6.330
  333WAT     H1 1241   2.334   6.399   6.258
  333WAT     H2 1242   2.244   6.446   6.385
  334WAT      O 1243   9.782   7.001   0.711
  334WAT     H1 1244   9.816   7.025   0.802
  334WAT     H2 1245   9.683   7.012   0.708
  335WAT      O 1246   8.360   6.464   2.020
  335WAT     H1 1247   8.314   6.467   2.109
  335WAT     H2 1248   8.411   6.378   2.012
  336WAT      O 1249   1.776   9.473   1.714
  336WAT     H1 1250   1.819   9.564   1.717
  336WAT     H2 1251   1.793   9.432   1.624
  337WAT      O 1252   7.205   2.341   6.725
  337WAT     H1 1253   7.112   2.378   6.713
  337WAT     H2 1254   7.258   2.355   6.642
  338WAT      O 1255   8.900   7.680   8.600
  338WAT     H1 1256   8.831   7.674   8.528
  338WAT     H2 1257   8.982   7.629   8.572
  339WAT      O 1258   1.540   8.896   1.552
  339WAT     H1 1259   1.458   8.852   1.516
  339WAT     H2 1260   1.519   8.992   1.574
  340WAT      O 1261   0.215   4.988   8.678
  340WAT     H1 1262   0.282   4.954   8.744
  340WAT     H2 1263   0.217   5.088   8.676
  341WAT      O 1264   8.229   0.022   4.414
  341WAT     H1 1265   8.253  -0.074   4.426
  341WAT     H2 1266   8.135   0.037   4.446
  342WAT      O 1267   5.921   0.211   1.993
  342WAT     H1 1268   5.970   0.126   2.014
  342WAT     H2 1269   5.822   0.194   2.001
  343WAT      O 1270   9.845   1.735   4.894
  343WAT     H1 1271   9.801   1.649   4.919
  343WAT     H2 1272   9.807   1.809   4.950
  344WAT      O 1273   2.836   7.063   6.887
  344WAT     H1 1274   2.880   7.074   6.976
  344WAT     H2 1275   2.803   7.151   6.854
  345WAT      O 1276   3.076   6.551   9.308
  345WAT     H1 1277   3.088   6.577   9.404
  345WAT     H2 1278   3.093   6.630   9.249
  346WAT      O 1279   6.887   7.132   3.566
  346WAT     H1 1280   6.792   7.105   3.550
  346WAT     H2 1281   6.892   7.231   3.576
  347WAT      O 1282   5.707   8.847   7.361
  347WAT     H1 1283   5.777   8.881   7.424
  347WAT     H2 1284   5.634   8.803   7.413
  348WAT      O 1285   1.982   7.118   1.793
  348WAT     H1 1286   1.890   7.078   1.797
  348WAT     H2 1287   2.034   7.089   1.874
  349WAT      O 1288   4.579   5.352   5.544
  349WAT     H1 1289   4.570   5.325   5.640
  349WAT     H2 1290   4.671   5.330   5.511
  350WAT      O 1291   9.763   0.587   1.040
  350WAT     H1 1292   9.719   0.591   1.130
  350WAT     H2 1293   9.805   0.675   1.020
  351WAT      O 1294   4.365   0.528   4.949
  351WAT     H1 1295   4.340   0.444   4.996
  351WAT     H2 1296   4.432   0.508   4.877
  352WAT      O 1297   4.068   3.330   6.566
  352WAT     H1 1298   4.034   3.408   6.619
  352WAT     H2 1299   3.992   3.287   6.518
  353WAT      O 1300   8.996   1.109   1.484
  353WAT     H1 1301   8.964   1.047   1.556
  353WAT     H2 1302   8.918   1.141   1.431
  354WAT      O 1303   6.893   7.475   4.868
  354WAT     H1 1304   6.993   7.482   4.872
  354WAT     H2 1305   6.861   7.503   4.778
  355WAT      O 1306   5.038   1.125   4.014
  355WAT     H1 1307   5.081   1.039   4.041
  355WAT     H2 1308   5.000   1.170   4.095
  356WAT      O 1309   1.993   2.076   6.959
  356WAT     H1 1310   2.081   2.089   6.914
  356WAT     H2 1311   2.006   2.077   7.058
  357WAT      O 1312   0.034   6.217   5.153
  357WAT     H1 1313   0.121   6.228   5.201
  357WAT     H2 1314   0.024   6.122   5.123
  358WAT      O 1315   6.508   3.501   3.594
  358WAT     H1 1316   6.536   3.514   3.499
  358WAT     H2 1317   6.548   3.417   3.631
  359WAT      O 1318   8.468   3.668   1.828
  359WAT     H1 1319   8.520   3.734   1.774
  359WAT     H2 1320   8.385   3.713   1.863
  360WAT      O 1321   3.356   0.538   6.112
  360WAT     H1 1322   3.439   0.513   6.161
  360WAT     H2 1323   3.374   0.543   6.014
  361WAT      O 1324   2.120   9.213   0.356
  361WAT     H1 1325   2.213   9.210   0.320
  361WAT     H2 1326   2.055   9.192   0.284
  362WAT      O 1327   5.000   6.470   9.554
  362WAT     H1 1328   4.916   6.520   9.535
  362WAT     H2 1329   5.075   6.534   9.566
  363WAT      O 1330   9.776   6.514   4.652
  363WAT     H1 1331   9.757   6.423   4.690
  363WAT     H2 1332   9.858   6.552   4.696
  364WAT      O 1333   4.408   3.519   8.488
  364WAT     H1 1334   4.485   3.560   8.538
  364WAT     H2 1335   4.440   3.485   8.399
  365WAT      O 1336   6.636   4.610   4.369
  365WAT     H1 1337   6.562   4.653   4.421
  365WAT     H2 1338   6.683   4.544   4.428
  366WAT      O 1339   5.871   6.888   8.973
  366WAT     H1 1340   5.945   6.833   8.935
  366WAT     H2 1341   5.835   6.949   8.903
  367WAT      O 1342   9.469   7.694   4.348
  367WAT     H1 1343   9.374   7.701   4.317
  367WAT     H2 1344   9.471   7.673   4.446
  368WAT      O 1345   5.175   3.070   0.460
  368WAT     H1 1346   5.125   3.054   0.545
  368WAT     H2 1347   5.137   3.149   0.412
  369WAT      O 1348   0.365   8.727   2.989
  369WAT     H1 1349   0.453   8.684   2.971
  369WAT     H2 1350   0.373   8.826   2.979
  370WAT      O 1351   4.220   9.190   4.859
  370WAT     H1 1352   4.205   9.100   4.820
  370WAT     H2 1353   4.310   9.194   4.902
  371WAT      O 1354   7.960   5.728   9.151
  371WAT     H1 1355   7.941   5.649   9.209
  371WAT     H2 1356   7.892   5.800   9.169
  372WAT      O 1357   6.989   6.745   8.067
  372WAT     H1 1358   6.952   6.746   8.160
  372WAT     H2 1359   7.012   6.651   8.041
  373WAT      O 1360   3.671   6.999   3.814
  373WAT     H1 1361   3.620   6.962   3.892
  373WAT     H2 1362   3.729   6.928   3.776
  374WAT      O 1363   8.839   3.967   0.330
  374WAT     H1 1364   8.823   3.869   0.323
  374WAT     H2 1365   8.935   3.984   0.352
  375WAT      O 1366   7.324   1.902   3.512
  375WAT     H1 1367   7.393   1.938   3.450
  375WAT     H2 1368   7.251   1.969   3.525
  376WAT      O 1369   2.079   1.271   1.926
  376WAT     H1 1370   2.031   1.184   1.912
  376WAT     H2 1371   2.174   1.260   1.897
  377WAT      O 1372   8.302   2.304   7.654
  377WAT     H1 1373   8.332   2.278   7.746
  377WAT     H2 1374   8.365   2.371   7.616
  378WAT      O 1375   3.284   7.415   3.140
  378WAT     H1 1376   3.276   7.323   3.102
  378WAT     H2 1377   3.216   7.475   3.098
  379WAT      O 1378   2.213   9.093   9.173
  379WAT     H1 1379   2.146   9.043   9.118
  379WAT     H2 1380   2.281   9.028   9.209
  380WAT      O 1381   3.779   5.073   6.998
  380WAT     H1 1382   3.870   5.081   7.039
  380WAT     H2 1383   3.788   5.068   6.898
  381WAT      O 1384   6.422   7.916   5.228
  381WAT     H1 1385   6.335   7.873   5.252
  381WAT     H2 1386   6.474   7.854   5.170
  382WAT      O 1387   3.807   1.961   9.016
  382WAT     H1 1388   3.902   1.986   8.997
  382WAT     H2 1389   3.760   2.038   9.059
  383WAT      O 1390   0.935   9.560   1.696
  383WAT     H1 1391   1.025   9.600   1.676
  383WAT     H2 1392   0.910   9.498   1.622
  384WAT      O 1393   3.798   3.768   3.643
  384WAT     H1 1394   3.765   3.863   3.637
  384WAT     H2 1395   3.817   3.746   3.739
  385WAT      O 1396   8.934   4.049   4.939
  385WAT     H1 1397   8.980   3.993   5.008
  385WAT     H2 1398   8.852   4.002   4.907
  386WAT      O 1399   6.967   9.128   3.373
  386WAT     H1 1400   6.988   9.225   3.385
  386WAT     H2 1401   6.927   9.114   3.282
  387WAT      O 1402   1.310   1.162   6.051
  387WAT     H1 1403   1.324   1.148   5.953
  387WAT     H2 1404   1.399   1.172   6.096
  388WAT      O 1405   7.141   5.177   1.921
  388WAT     H1 1406   7.053   5.156   1.965
  388WAT     H2 1407   7.155   5.114   1.844
  389WAT      O 1408   3.467   3.402   9.498
  389WAT     H1 1409   3.492   3.377   9.404
  389WAT     H2 1410   3.470   3.321   9.556
  390WAT      O 1411   5.412   5.062   7.856
  390WAT     H1 1412   5.406   5.105   7.766
  390WAT     H2 1413   5.445   5.129   7.923
  391WAT      O 1414   5.741   3.958   8.392
  391WAT     H1 1415   5.697   3.957   8.303
  391WAT     H2 1416   5.837   3.982   8.382
  392WAT      O 1417   2.953   6.734   1.296
  392WAT     H1 1418   2.950   6.677   1.213
  392WAT     H2 1419   2.991   6.824   1.274
  393WAT      O 1420   8.015   1.510   4.075
  393WAT     H1 1421   8.042   1.495   3.980
  393WAT     H2 1422   7.997   1.422   4.119
  394WAT      O 1423   1.437   7.920   7.025
  394WAT     H1 1424   1.447   8.019   7.021
  394WAT     H2 1425   1.465   7.887   7.115
  395WAT      O 1426   4.961   1.986   5.174
  395WAT     H1 1427   5.057   2.009   5.163
  395WAT     H2 1428   4.935   1.915   5.108
  396WAT      O 1429   0.326   0.442   7.574
  396WAT     H1 1430   0.327   0.479   7.481
  396WAT     H2 1431   0.382   0.500   7.634
  397WAT      O 1432   7.793   2.593   6.002
  397WAT     H1 1433   7.739   2.674   6.022
  397WAT     H2 1434   7.886   2.621   5.976
  398WAT      O 1435   4.246   3.217   2.670
  398WAT     H1 1436   4.146   3.220   2.662
  398WAT     H2 1437   4.271   3.193   2.764
  399WAT      O 1438   3.436   9.480   3.219
  399WAT     H1 1439   3.469   9.443   3.132
  399WAT     H2 1440   3.457   9.416   3.292
  400WAT      O 1441   4.582   1.087   3.218
  400WAT     H1 1442   4.540   1.132   3.297
  400WAT     H2 1443   4.543   1.125   3.134
  401WAT      O 1444   1.482   7.197   4.035
  401WAT     H1 1445   1.440   7.282   4.068
  401WAT     H2 1446   1.442   7.172   3.947
  402WAT      O 1447   0.543   3.256   4.983
  402WAT     H1 1448   0.596   3.176   5.012
  402WAT     H2 1449   0.535   3.320   5.059
  403WAT      O 1450   5.843   9.059   0.099
  403WAT     H1 1451   5.915   8.994   0.074
  403WAT     H2 1452   5.762   9.043   0.042
  404WAT      O 1453   8.873   6.113   6.858
  404WAT     H1 1454   8.773   6.113   6.863
  404WAT     H2 1455   8.906   6.205   6.840
  405WAT      O 1456   6.915   0.764   3.256
  405WAT     H1 1457   6.839   0.823   3.231
  405WAT     H2 1458   6.975   0.812   3.321
  406WAT      O 1459   6.178   9.627   8.335
  406WAT     H1 1460   6.259   9.623   8.276
  406WAT     H2 1461   6.148   9.533   8.355
  407WAT      O 1462   3.813   3.353   8.137
  407WAT     H1 1463   3.779   3.428   8.080
  407WAT     H2 1464   3.737   3.295   8.165
  408WAT      O 1465   5.672   4.333   9.835
  408WAT     H1 1466   5.636   4.341   9.927
  408WAT     H2 1467   5.741   4.260   9.832
  409WAT      O 1468   5.506   4.401   5.076
  409WAT     H1 1469   5.492   4.421   4.979
  409WAT     H2 1470   5.600   4.425   5.101
  410WAT      O 1471   6.256   7.455   2.193
  410WAT     H1 1472   6.281   7.493   2.282
  410WAT     H2 1473   6.238   7.357   2.202
  411WAT      O 1474   5.250   1.172   3.070
  411WAT     H1 1475   5.172   1.234   3.077
  411WAT     H2 1476   5.266   1.129   3.158
  412WAT      O 1477   3.795   5.622   3.858
  412WAT     H1 1478   3.859   5.545   3.853
  412WAT     H2 1479   3.828   5.696   3.800
  413WAT      O 1480   0.963   2.952   9.622
  413WAT     H1 1481   1.048   3.004   9.626
  413WAT     H2 1482   0.886   3.015   9.626
  414WAT      O 1483   3.825   4.445   3.881
  414WAT     H1 1484   3.745   4.502   3.862
  414WAT     H2 1485   3.908   4.501   3.876
  415WAT      O 1486   6.158   7.003   7.347
  415WAT     H1 1487   6.193   6.922   7.394
  415WAT     H2 1488   6.123   6.976   7.257
  416WAT      O 1489   2.200   9.259   4.293
  416WAT     H1 1490   2.192   9.357   4.312
  416WAT     H2 1491   2.122   9.211   4.333
  417WAT      O 1492   4.200   2.820   2.612
  417WAT     H1 1493   4.145   2.876   2.673
  417WAT     H2 1494   4.191   2.724   2.637
  418WAT      O 1495   3.190   0.445   0.013
  418WAT     H1 1496   3.115   0.511   0.014
  418WAT     H2 1497   3.237   0.448   0.102
  419WAT      O 1498   8.045   5.193   7.990
  419WAT     H1 1499   8.077   5.286   7.974
  419WAT     H2 1500   8.004   5.187   8.081
  420WAT      O 1501   4.222   9.164   0.817
  420WAT     H1 1502   4.227   9.232   0.743
  420WAT     H2 1503   4.169   9.202   0.893
  421WAT      O 1504   3.038   9.326   7.511
  421WAT     H1 1505   3.007   9.419   7.527
  421WAT     H2 1506   2.975   9.279   7.450
  422WAT      O 1507   6.680   0.254   9.413
  422WAT     H1 1508   6.623   0.268   9.494
  422WAT     H2 1509   6.627   0.277   9.331
  423WAT      O 1510   2.721   1.479   0.244
  423WAT     H1 1511   2.656   1.418   0.200
  423WAT     H2 1512   2.748   1.551   0.181
  424WAT      O 1513   7.172   1.194   9.367
  424WAT     H1 1514   7.252   1.180   9.425
  424WAT     H2 1515   7.168   1.122   9.298
  425WAT      O 1516   8.235   4.281   4.189
  425WAT     H1 1517   8.308   4.317   4.130
  425WAT     H2 1518   8.199   4.197   4.148
  426WAT      O 1519   3.359   9.817   9.452
  426WAT     H1 1520   3.309   9.903   9.461
  426WAT     H2 1521   3.457   9.835   9.462
  427WAT      O 1522   1.279   2.992   9.333
  427WAT     H1 1523   1.248   3.074   9.286
  427WAT     H2 1524   1.371   2.968   9.302
  428WAT      O 1525   4.011   1.432   3.431
  428WAT     H1 1526   4.086   1.370   3.410
  428WAT     H2 1527   4.045   1.526   3.439
  429WAT      O 1528   2.664   6.659   4.101
  429WAT     H1 1529   2.623   6.568   4.093
  429WAT     H2 1530   2.618   6.710   4.174
  430WAT      O 1531   5.851   0.129   7.234
  430WAT     H1 1532   5.789   0.171   7.167
  430WAT     H2 1533   5.945   0.149   7.208
  431WAT      O 1534   9.029   3.561   4.067
  431WAT     H1 1535   8.994   3.468   4.073
  431WAT     H2 1536   8.955   3.624   4.044
  432WAT      O 1537   5.461   1.526   5.386
  432WAT     H1 1538   5.365   1.550   5.405
  432WAT     H2 1539   5.521   1.595   5.427
  433WAT      O 1540   7.508   9.654   4.420
  433WAT     H1 1541   7.465   9.708   4.348
  433WAT     H2 1542   7.437   9.611   4.477
  434WAT      O 1543   0.270   9.334   0.091
  434WAT     H1 1544   0.207   9.383   0.151
  434WAT     H2 1545   0.261   9.369  -0.002
  435WAT      O 1546   4.315   7.540   9.475
  435WAT     H1 1547   4.383   7.587   9.532
  435WAT     H2 1548   4.233   7.597   9.468
  436WAT      O 1549   1.414   2.296   4.359
  436WAT     H1 1550   1.512   2.303   4.376
  436WAT     H2 1551   1.398   2.232   4.284
  437WAT      O 1552   8.403   7.094   5.695
  437WAT     H1 1553   8.374   7.012   5.644
  437WAT     H2 1554   8.358   7.094   5.785
  438WAT      O 1555   6.885   7.166   5.701
  438WAT     H1 1556   6.911   7.077   5.663
  438WAT     H2 1557   6.805   7.155   5.760
  439WAT      O 1558   5.941   5.214   7.734
  439WAT     H1 1559   6.020   5.181   7.682
  439WAT     H2 1560   5.907   5.142   7.793
  440WAT      O 1561   3.593   5.931   7.911
  440WAT     H1 1562   3.625   6.023   7.935
  440WAT     H2 1563   3.614   5.913   7.815
  441WAT      O 1564   6.973   3.821   8.561
  441WAT     H1 1565   6.881   3.782   8.568
  441WAT     H2 1566   7.027   3.793   8.641
  442WAT      O 1567   1.294   9.229   1.791
  442WAT     H1 1568   1.292   9.201   1.887
  442WAT     H2 1569   1.246   9.316   1.781
  443WAT      O 1570   0.792   3.294   8.065
  443WAT     H1 1571   0.811   3.314   8.161
  443WAT     H2 1572   0.694   3.282   8.052
  444WAT      O 1573   6.963   9.802   6.519
  444WAT     H1 1574   6.894   9.827   6.587
  444WAT     H2 1575   6.954   9.704   6.497
  445WAT      O 1576   8.329   3.658   6.950
  445WAT     H1 1577   8.309   3.752   6.976
  445WAT     H2 1578   8.404   3.623   7.006
  446WAT      O 1579   1.512   4.424   4.607
  446WAT     H1 1580   1.565   4.436   4.691
  446WAT     H2 1581   1.567   4.375   4.540
  447WAT      O 1582   0.560   5.217   3.705
  447WAT     H1 1583   0.650   5.172   3.705
  447WAT     H2 1584   0.497   5.164   3.762
  448WAT      O 1585   6.164   1.098   6.148
  448WAT     H1 1586   6.116   1.175   6.108
  448WAT     H2 1587   6.147   1.016   6.093
  449WAT      O 1588   4.417   0.354   0.867
  449WAT     H1 1589   4.361   0.271   0.877
  449WAT     H2 1590   4.470   0.349   0.783
  450WAT      O 1591   2.838   5.858   6.987
  450WAT     H1 1592   2.879   5.812   6.908
  450WAT     H2 1593   2.766   5.920   6.956
  451WAT      O 1594   9.123   6.303   0.999
  451WAT     H1 1595   9.040   6.357   1.011
  451WAT     H2 1596   9.129   6.233   1.070
  452WAT      O 1597   0.075   3.386   4.755
  452WAT     H1 1598   0.061   3.288   4.769
  452WAT     H2 1599   0.172   3.403   4.734
  453WAT      O 1600   3.832   6.666   5.357
  453WAT     H1 1601   3.873   6.667   5.266
  453WAT     H2 1602   3.828   6.572   5.391
  454WAT      O 1603   7.253   0.832   6.063
  454WAT     H1 1604   7.311   0.858   6.140
  454WAT     H2 1605   7.256   0.905   5.994
  455WAT      O 1606   8.195   8.327   1.808
  455WAT     H1 1607   8.196   8.251   1.873
  455WAT     H2 1608   8.103   8.338   1.772
  456WAT      O 1609   9.524   9.300   8.537
  456WAT     H1 1610   9.493   9.225   8.480
  456WAT     H2 1611   9.478   9.385   8.509
  457WAT      O 1612   9.361   4.514   2.834
  457WAT     H1 1613   9.284   4.451   2.845
  457WAT     H2 1614   9.437   4.484   2.892
  458WAT      O 1615   2.903   0.664   6.473
  458WAT     H1 1616   2.976   0.663   6.542
  458WAT     H2 1617   2.851   0.749   6.481
  459WAT      O 1618   6.867   0.004   8.336
  459WAT     H1 1619   6.814  -0.008   8.252
  459WAT     H2 1620   6.804   0.015   8.413
  460WAT      O 1621   2.517   6.426   0.764
  460WAT     H1 1622   2.456   6.457   0.837
  460WAT     H2 1623   2.464   6.408   0.681
  461WAT      O 1624   2.892   4.722   7.977
  461WAT     H1 1625   2.927   4.726   7.884
  461WAT     H2 1626   2.827   4.796   7.992
  462WAT      O 1627   7.266   8.755   9.181
  462WAT     H1 1628   7.232   8.785   9.092
  462WAT     H2 1629   7.261   8.831   9.246
  463WAT      O 1630   4.777   6.430   0.414
  463WAT     H1 1631   4.721   6.408   0.333
  463WAT     H2 1632   4.718   6.462   0.488
  464WAT      O 1633   6.621   3.699   5.853
  464WAT     H1 1634   6.537   3.725   5.804
  464WAT     H2 1635   6.684   3.777   5.854
  465WAT      O 1636   6.251   6.201   9.077
  465WAT     H1 1637   6.196   6.223   8.996
  465WAT     H2 1638   6.191   6.188   9.156
  466WAT      O 1639   1.868   7.812   8.919
  466WAT     H1 1640   1.904   7.822   9.012
  466WAT     H2 1641   1.908   7.732   8.876
  467WAT      O 1642   4.489   0.175   0.398
  467WAT     H1 1643   4.563   0.120   0.360
  467WAT     H2 1644   4.437   0.218   0.325
  468WAT      O 1645   1.810   1.336   5.844
  468WAT     H1 1646   1.788   1.394   5.767
  468WAT     H2 1647   1.890   1.373   5.892
  469WAT      O 1648   0.252   6.577   7.694
  469WAT     H1 1649   0.325   6.535   7.748
  469WAT     H2 1650   0.233   6.669   7.729
  470WAT      O 1651   8.251   3.456   9.039
  470WAT     H1 1652   8.200   3.410   9.112
  470WAT     H2 1653   8.284   3.544   9.072
  471WAT      O 1654   2.754   9.216   5.001
  471WAT     H1 1655   2.776   9.119   5.002
  471WAT     H2 1656   2.655   9.228   4.994
  472WAT      O 1657   4.516   2.165   1.664
  472WAT     H1 1658   4.580   2.146   1.739
  472WAT     H2 1659   4.548   2.122   1.580
  473WAT      O 1660   7.376   5.789   5.626
  473WAT     H1 1661   7.417   5.717   5.682
  473WAT     H2 1662   7.446   5.855   5.599
  474WAT      O 1663   5.374   8.393   9.053
  474WAT     H1 1664   5.403   8.298   9.049
  474WAT     H2 1665   5.287   8.400   9.102
  475WAT      O 1666   5.724   5.078   3.772
  475WAT     H1 1667   5.783   5.153   3.742
  475WAT     H2 1668   5.750   4.994   3.724
  476WAT      O 1669   1.917   2.538   5.567
  476WAT     H1 1670   1.857   2.617   5.580
  476WAT     H2 1671   1.916   2.482   5.650
  477WAT      O 1672   8.352   1.407   0.688
  477WAT     H1 1673   8.428   1.380   0.747
  477WAT     H2 1674   8.361   1.363   0.599
  478WAT      O 1675   3.338   8.494   1.351
  478WAT     H1 1676   3.262   8.550   1.384
  478WAT     H2 1677   3.381   8.447   1.428
  479WAT      O 1678   8.029   6.210   5.958
  479WAT     H1 1679   7.962   6.282   5.939
  479WAT     H2 1680   8.011   6.131   5.900
  480WAT      O 1681   2.994   9.168   5.942
  480WAT     H1 1682   3.023   9.127   6.028
  480WAT     H2 1683   3.072   9.173   5.880
  481WAT      O 1684   9.769   6.514   1.114
  481WAT     H1 1685   9.672   6.508   1.090
  481WAT     H2 1686   9.777   6.528   1.213
  482WAT      O 1687   2.566   7.336   2.115
  482WAT     H1 1688   2.621   7.363   2.036
  482WAT     H2 1689   2.562   7.410   2.181
  483WAT      O 1690   3.062   8.799   4.920
  483WAT     H1 1691   2.986   8.736   4.905
  483WAT     H2 1692   3.136   8.776   4.857
  484WAT      O 1693   6.201   7.978   5.823
  484WAT     H1 1694   6.158   8.017   5.904
  484WAT     H2 1695   6.152   7.894   5.797
  485WAT      O 1696   0.274   2.679   9.483
  485WAT     H1 1697   0.263   2.618   9.562
  485WAT     H2 1698   0.371   2.688   9.460
  486WAT      O 1699   7.354   5.851   4.587
  486WAT     H1 1700   7.409   5.932   4.605
  486WAT     H2 1701   7.397   5.797   4.514
  487WAT      O 1702   2.715   9.147   2.624
  487WAT     H1 1703   2.711   9.247   2.624
  487WAT     H2 1704   2.729   9.115   2.718
  488WAT      O 1705   2.991   0.433   4.620
  488WAT     H1 1706   2.997   0.532   4.611
  488WAT     H2 1707   3.083   0.395   4.633
  489WAT      O 1708   9.821   9.148   9.588
  489WAT     H1 1709   9.882   9.149   9.509
  489WAT     H2 1710   9.868   9.185   9.667
  490WAT      O 1711   2.233   2.029   2.168
  490WAT     H1 1712   2.305   1.981   2.218
  490WAT     H2 1713   2.263   2.123   2.150
  491WAT      O 1714   0.742   0.734   1.322
  491WAT     H1 1715   0.815   0.713   1.257
  491WAT     H2 1716   0.690   0.650   1.341
  492WAT      O 1717   6.671   6.059   2.980
  492WAT     H1 1718   6.768   6.037   2.970
  492WAT     H2 1719   6.626   6.054   2.891
  493WAT      O 1720   2.489   6.832   3.563
  493WAT     H1 1721   2.406   6.880   3.591
  493WAT     H2 1722   2.480   6.805   3.467
  494WAT      O 1723   6.169   0.195   8.841
  494WAT     H1 1724   6.105   0.136   8.890
  494WAT     H2 1725   6.262   0.178   8.874
  495WAT      O 1726   7.610   7.461   6.910
  495WAT     H1 1727   7.685   7.525   6.895
  495WAT     H2 1728   7.561   7.446   6.824
  496WAT      O 1729   3.679   7.198   7.870
  496WAT     H1 1730   3.775   7.193   7.898
  496WAT     H2 1731   3.672   7.251   7.786
  497WAT      O 1732   9.581   0.914   5.482
  497WAT     H1 1733   9.522   0.846   5.439
  497WAT     H2 1734   9.536   1.003   5.480
  498WAT      O 1735   9.134   6.390   4.426
  498WAT     H1 1736   9.184   6.304   4.418
  498WAT     H2 1737   9.115   6.426   4.335
  499WAT      O 1738   8.217   9.041   1.671
  499WAT     H1 1739   8.283   8.984   1.622
  499WAT     H2 1740   8.245   9.050   1.767
  500WAT      O 1741   4.507   6.475   7.683
  500WAT     H1 1742   4.451   6.393   7.668
  500WAT     H2 1743   4.537   6.511   7.595
  501WAT      O 1744   4.317   0.400   4.188
  501WAT     H1 1745   4.328   0.315   4.137
  501WAT     H2 1746   4.324   0.478   4.125
  502WAT      O 1747   5.164   8.540   8.056
  502WAT     H1 1748   5.175   8.613   8.124
  502WAT     H2 1749   5.155   8.580   7.965
  503WAT      O 1750   8.412   5.060   0.972
  503WAT     H1 1751   8.500   5.016   0.955
  503WAT     H2 1752   8.343   4.990   0.987
  504WAT      O 1753   7.397   5.116   9.071
  504WAT     H1 1754   7.409   5.208   9.034
  504WAT     H2 1755   7.334   5.120   9.149
  505WAT      O 1756   0.248   0.391   3.831
  505WAT     H1 1757   0.325   0.369   3.891
  505WAT     H2 1758   0.163   0.361   3.874
  506WAT      O 1759   2.258   0.996   3.047
  506WAT     H1 1760   2.343   1.034   3.081
  506WAT     H2 1761   2.273   0.902   3.017
  507WAT      O 1762   9.674   1.047   8.498
  507WAT     H1 1763   9.612   1.115   8.459
  507WAT     H2 1764   9.723   1.088   8.575
  508WAT      O 1765   3.835   7.607   8.515
  508WAT     H1 1766   3.794   7.603   8.607
  508WAT     H2 1767   3.930   7.635   8.522
  509WAT      O 1768   9.716   6.965   3.216
  509WAT     H1 1769   9.696   6.876   3.258
  509WAT     H2 1770   9.669   7.037   3.266
  510WAT      O 1771   5.111   3.055   2.418
  510WAT     H1 1772   5.186   3.059   2.484
  510WAT     H2 1773   5.033   3.108   2.452
  511WAT      O 1774   5.652   8.299   4.780
  511WAT     H1 1775   5.660   8.290   4.880
  511WAT     H2 1776   5.564   8.261   4.751
  512WAT      O 1777   2.323   3.252   0.012
  512WAT     H1 1778   2.371   3.328   0.054
  512WAT     H2 1779   2.375   3.168   0.025
  513WAT      O 1780   7.791   7.721   8.548
  513WAT     H1 1781   7.779   7.737   8.450
  513WAT     H2 1782   7.724   7.776   8.598
  514WAT      O 1783   0.197   4.325   3.544
  514WAT     H1 1784   0.235   4.232   3.545
  514WAT     H2 1785   0.272   4.391   3.549
  515WAT      O 1786   2.975   5.332   6.886
  515WAT     H1 1787   3.010   5.402   6.824
  515WAT     H2 1788   2.878   5.349   6.904
  516WAT      O 1789   2.649   6.969   1.725
  516WAT     H1 1790   2.597   6.893   1.765
  516WAT     H2 1791   2.714   6.933   1.658
  517WAT      O 1792   7.961   3.467   6.109
  517WAT     H1 1793   7.978   3.493   6.204
  517WAT     H2 1794   7.976   3.546   6.050
  518WAT      O 1795   4.972   0.946   0.067
  518WAT     H1 1796   4.999   0.943  -0.029
  518WAT     H2 1797   4.894   1.007   0.078
  519WAT      O 1798   9.268   9.621   3.917
  519WAT     H1 1799   9.343   9.678   3.885
  519WAT     H2 1800   9.294   9.573   4.000
  520WAT      O 1801   1.813   0.431   3.916
  520WAT     H1 1802   1.755   0.372   3.861
  520WAT     H2 1803   1.759   0.470   3.991
  521WAT      O 1804   0.938   3.723   0.923
  521WAT     H1 1805   0.961   3.682   1.011
  521WAT     H2 1806   0.904   3.653   0.861
  522WAT      O 1807   9.315   9.283   6.756
  522WAT     H1 1808   9.324   9.339   6.837
  522WAT     H2 1809   9.366   9.325   6.680
  523WAT      O 1810   3.142   4.426   2.557
  523WAT     H1 1811   3.137   4.506   2.617
  523WAT     H2 1812   3.131   4.455   2.462
  524WAT      O 1813   7.429   3.837   9.333
  524WAT     H1 1814   7.412   3.935   9.324
  524WAT     H2 1815   7.402   3.791   9.248
  525WAT      O 1816   4.982   5.724   6.466
  525WAT     H1 1817   4.968   5.630   6.434
  525WAT     H2 1818   4.982   5.725   6.566
  526WAT      O 1819   7.812   4.035   6.557
  526WAT     H1 1820   7.715   4.030   6.584
  526WAT     H2 1821   7.821   4.010   6.461
  527WAT      O 1822   7.990   1.052   5.478
  527WAT     H1 1823   7.953   1.139   5.445
  527WAT     H2 1824   8.047   1.069   5.559
  528WAT      O 1825   3.926   6.950   1.465
  528WAT     H1 1826   3.872   6.884   1.517
  528WAT     H2 1827   4.023   6.940   1.488
  529WAT      O 1828   1.043   7.568   9.219
  529WAT     H1 1829   1.061   7.649   9.275
  529WAT     H2 1830   1.051   7.486   9.275
  530WAT      O 1831   4.407   4.407   0.534
  530WAT     H1 1832   4.468   4.389   0.612
  530WAT     H2 1833   4.327   4.347   0.541
  531WAT      O 1834   6.685   0.647   5.097
  531WAT     H1 1835   6.713   0.672   5.189
  531WAT     H2 1836   6.764   0.652   5.035
  532WAT      O 1837   2.292   9.101   3.771
  532WAT     H1 1838   2.229   9.134   3.842
  532WAT     H2 1839   2.384   9.136   3.789
  533WAT      O 1840   2.941   7.894   9.088
  533WAT     H1 1841   2.855   7.896   9.140
  533WAT     H2 1842   2.973   7.987   9.074
  534WAT      O 1843   1.282   5.118   0.552
  534WAT     H1 1844   1.286   5.068   0.639
  534WAT     H2 1845   1.374   5.124   0.513
  535WAT      O 1846   5.917   2.421   2.003
  535WAT     H1 1847   5.955   2.339   2.046
  535WAT     H2 1848   5.883   2.483   2.073
  536WAT      O 1849   9.179   4.226   0.278
  536WAT     H1 1850   9.216   4.195   0.365
  536WAT     H2 1851   9.244   4.207   0.205
  537WAT      O 1852   7.415   2.807   3.354
  537WAT     H1 1853   7.380   2.863   3.429
  537WAT     H2 1854   7.341   2.789   3.289
  538WAT      O 1855   1.241   6.652   4.803
  538WAT     H1 1856   1.302   6.575   4.819
  538WAT     H2 1857   1.291   6.726   4.758
  539WAT      O 1858   4.706   5.511   1.287
  539WAT     H1 1859   4.650   5.519   1.370
  539WAT     H2 1860   4.802   5.502   1.313
  540WAT      O 1861   9.702   1.345   6.861
  540WAT     H1 1862   9.787   1.312   6.820
  540WAT     H2 1863   9.673   1.281   6.932
  541WAT      O 1864   4.650   9.290   3.298
  541WAT     H1 1865   4.646   9.207   3.243
  541WAT     H2 1866   4.590   9.360   3.258
  542WAT      O 1867   2.309   3.015   8.468
  542WAT     H1 1868   2.334   2.919   8.464
  542WAT     H2 1869   2.292   3.042   8.562
  543WAT      O 1870   3.075   8.066   5.991
  543WAT     H1 1871   3.106   8.122   6.068
  543WAT     H2 1872   3.153   8.039   5.935
  544WAT      O 1873   2.549   1.653   6.830
  544WAT     H1 1874   2.607   1.612   6.900
  544WAT     H2 1875   2.516   1.583   6.767
  545WAT      O 1876   8.813   3.598   5.600
  545WAT     H1 1877   8.724   3.565   5.632
  545WAT     H2 1878   8.827   3.570   5.505
  546WAT      O 1879   0.778   1.400   4.222
  546WAT     H1 1880   0.685   1.435   4.229
  546WAT     H2 1881   0.780   1.304   4.251
  547WAT      O 1882   5.403   9.234   8.048
  547WAT     H1 1883   5.466   9.250   8.124
  547WAT     H2 1884   5.448   9.178   7.979
  548WAT      O 1885   3.099   2.886   1.799
  548WAT     H1 1886   3.061   2.827   1.869
  548WAT     H2 1887   3.052   2.974   1.799
  549WAT      O 1888   2.452   2.775   7.061
  549WAT     H1 1889   2.539   2.754   7.107
  549WAT     H2 1890   2.406   2.690   7.037
  550WAT      O 1891   2.297   5.224   4.953
  550WAT     H1 1892   2.377   5.188   5.000
  550WAT     H2 1893   2.320   5.246   4.859
  551WAT      O 1894   1.630   2.381   4.134
  551WAT     H1 1895   1.540   2.348   4.105
  551WAT     H2 1896   1.672   2.313   4.194
  552WAT      O 1897   1.227   3.976   4.392
  552WAT     H1 1898   1.326   3.967   4.382
  552WAT     H2 1899   1.182   3.904   4.340
  553WAT      O 1900   2.715   2.823   8.044
  553WAT     H1 1901   2.616   2.836   8.051
  553WAT     H2 1902   2.737   2.726   8.056
  554WAT      O 1903   0.512   1.956   9.657
  554WAT     H1 1904   0.516   1.957   9.557
  554WAT     H2 1905   0.489   2.047   9.690
  555WAT      O 1906   4.257   4.251   2.669
  555WAT     H1 1907   4.263   4.256   2.769
  555WAT     H2 1908   4.332   4.196   2.634
  556WAT      O 1909   3.025   5.287   3.187
  556WAT     H1 1910   3.000   5.375   3.228
  556WAT     H2 1911   3.006   5.214   3.252
  557WAT      O 1912   8.530   6.437   4.109
  557WAT     H1 1913   8.605   6.390   4.155
  557WAT     H2 1914   8.504   6.519   4.160
  558WAT      O 1915   7.732   0.629   5.438
  558WAT     H1 1916   7.677   0.709   5.460
  558WAT     H2 1917   7.676   0.562   5.389
  559WAT      O 1918   0.247   2.604   2.532
  559WAT     H1 1919   0.257   2.679   2.466
  559WAT     H2 1920   0.150   2.582   2.542
  560WAT      O 1921   2.209   4.690   5.187
  560WAT     H1 1922   2.206   4.715   5.090
  560WAT     H2 1923   2.305   4.684   5.217
  561WAT      O 1924   5.628   2.415   9.584
  561WAT     H1 1925   5.616   2.499   9.638
  561WAT     H2 1926   5.557   2.411   9.514
  562WAT      O 1927   7.677   7.803   2.229
  562WAT     H1 1928   7.692   7.901   2.214
  562WAT     H2 1929   7.764   7.759   2.251
  563WAT      O 1930   5.456   1.090   9.365
  563WAT     H1 1931   5.515   1.065   9.442
  563WAT     H2 1932   5.387   1.155   9.395
  564WAT      O 1933   8.419   9.562   4.922
  564WAT     H1 1934   8.420   9.522   4.830
  564WAT     H2 1935   8.414   9.662   4.915
  565WAT      O 1936   6.767   9.224   7.892
  565WAT     H1 1937   6.695   9.263   7.949
  565WAT     H2 1938   6.785   9.286   7.815
  566WAT      O 1939   9.225   5.787   0.535
  566WAT     H1 1940   9.219   5.761   0.631
  566WAT     H2 1941   9.154   5.738   0.483
  567WAT      O 1942   5.883   1.276   9.456
  567WAT     H1 1943   5.830   1.192   9.444
  567WAT     H2 1944   5.830   1.353   9.420
  568WAT      O 1945   8.491   7.028   8.257
  568WAT     H1 1946   8.569   7.055   8.200
  568WAT     H2 1947   8.470   7.100   8.322
  569WAT      O 1948   8.308   4.649   2.615
  569WAT     H1 1949   8.289   4.604   2.527
  569WAT     H2 1950   8.365   4.730   2.600
  570WAT      O 1951   0.893   2.325   0.634
  570WAT     H1 1952   0.884   2.384   0.713
  570WAT     H2 1953   0.890   2.229   0.663
  571WAT      O 1954   7.643   6.845   8.799
  571WAT     H1 1955   7.634   6.940   8.828
  571WAT     H2 1956   7.552   6.805   8.788
  572WAT      O 1957   0.790   3.915   4.340
  572WAT     H1 1958   0.812   3.926   4.243
  572WAT     H2 1959   0.719   3.846   4.351
  573WAT      O 1960   3.943   8.373   2.661
  573WAT     H1 1961   3.950   8.289   2.715
  573WAT     H2 1962   3.976   8.355   2.568
  574WAT      O 1963   4.603   3.447   5.616
  574WAT     H1 1964   4.701   3.441   5.635
  574WAT     H2 1965   4.552   3.399   5.688
  575WAT      O 1966   2.053   8.648   3.989
  575WAT     H1 1967   2.095   8.565   3.952
  575WAT     H2 1968   2.019   8.630   4.081
  576WAT      O 1969   8.663   0.148   8.419
  576WAT     H1 1970   8.696   0.208   8.346
  576WAT     H2 1971   8.628   0.063   8.379
  577WAT      O 1972   4.267   7.710   7.964
  577WAT     H1 1973   4.277   7.791   8.022
  577WAT     H2 1974   4.294   7.628   8.016
  578WAT      O 1975   4.284   4.801   8.226
  578WAT     H1 1976   4.253   4.808   8.131
  578WAT     H2 1977   4.260   4.711   8.262
  579WAT      O 1978   0.859   1.210   9.377
  579WAT     H1 1979   0.861   1.146   9.300
  579WAT     H2 1980   0.947   1.209   9.424
  580WAT      O 1981   0.143   7.879   3.975
  580WAT     H1 1982   0.120   7.923   3.889
  580WAT     H2 1983   0.071   7.898   4.042
  581WAT      O 1984   9.671   7.685   8.514
  581WAT     H1 1985   9.631   7.721   8.430
  581WAT     H2 1986   9.608   7.621   8.556
  582WAT      O 1987   0.739   8.230   5.831
  582WAT     H1 1988   0.808   8.303   5.831
  582WAT     H2 1989   0.649   8.269   5.811
  583WAT      O 1990   7.168   8.991   6.875
  583WAT     H1 1991   7.085   8.967   6.926
  583WAT     H2 1992   7.181   9.090   6.878
  584WAT      O 1993   9.349   1.094   0.463
  584WAT     H1 1994   9.297   1.088   0.548
  584WAT     H2 1995   9.293   1.136   0.392
  585WAT      O 1996   4.625   3.905   5.283
  585WAT     H1 1997   4.534   3.885   5.246
  585WAT     H2 1998   4.687   3.829   5.262
  586WAT      O 1999   6.592   1.954   8.892
  586WAT     H1 2000   6.675   1.904   8.867
  586WAT     H2 2001   6.614   2.021   8.963
  587WAT      O 2002   4.274   6.289   7.996
  587WAT     H1 2003   4.217   6.226   7.944
  587WAT     H2 2004   4.299   6.367   7.939
  588WAT      O 2005   4.814   9.505   1.385
  588WAT     H1 2006   4.831   9.429   1.448
  588WAT     H2 2007   4.880   9.501   1.309
  589WAT      O 2008   2.398   5.621   9.125
  589WAT     H1 2009   2.453   5.681   9.066
  589WAT     H2 2010   2.327   5.675   9.170
  590WAT      O 2011   0.986   5.317   8.149
  590WAT     H1 2012   0.925   5.248   8.190
  590WAT     H2 2013   1.042   5.273   8.078
  591WAT      O 2014   2.335   0.736   5.008
  591WAT     H1 2015   2.250   0.727   5.062
  591WAT     H2 2016   2.371   0.645   4.988
  592WAT      O 2017   2.074   0.668   9.386
  592WAT     H1 2018   2.124   0.582   9.397
  592WAT     H2 2019   1.977   0.653   9.404
  593WAT      O 2020   6.385   9.295   7.837
  593WAT     H1 2021   6.370   9.248   7.924
  593WAT     H2 2022   6.428   9.384   7.854
  594WAT      O 2023   0.880   1.866   4.697
  594WAT     H1 2024   0.959   1.921   4.669
  594WAT     H2 2025   0.796   1.915   4.674
  595WAT      O 2026   6.045   2.734   7.279
  595WAT     H1 2027   6.027   2.712   7.183
  595WAT     H2 2028   6.052   2.649   7.332
  596WAT      O 2029   4.832   9.526   0.986
  596WAT     H1 2030   4.902   9.516   1.057
  596WAT     H2 2031   4.830   9.445   0.929
  597WAT      O 2032   1.418   3.248   1.468
  597WAT     H1 2033   1.363   3.188   1.525
  597WAT     H2 2034   1.429   3.337   1.513
  598WAT      O 2035   0.444   5.530   5.802
  598WAT     H1 2036   0.363   5.483   5.767
  598WAT     H2 2037   0.458   5.615   5.751
  599WAT      O 2038   4.791   3.639   4.461
  599WAT     H1 2039   4.762   3.575   4.391
  599WAT     H2 2040   4.809   3.590   4.546
  600WAT      O 2041   1.388   8.021   1.477
  600WAT     H1 2042   1.297   7.983   1.494
  600WAT     H2 2043   1.388   8.069   1.389
  601WAT      O 2044   8.542   7.748   4.173
  601WAT     H1 2045   8.581   7.657   4.162
  601WAT     H2 2046   8.569   7.786   4.262
  602WAT      O 2047   0.043   6.275   9.869
  602WAT     H1 2048   0.046   6.176   9.883
  602WAT     H2 2049   0.130   6.315   9.898
  603WAT      O 2050   7.865   3.740   5.552
  603WAT     H1 2051   7.876   3.693   5.465
  603WAT     H2 2052   7.956   3.761   5.590
  604WAT      O 2053   6.865   4.244   4.154
  604WAT     H1 2054   6.813   4.328   4.137
  604WAT     H2 2055   6.959   4.256   4.122
  605WAT      O 2056   0.321   0.942   4.327
  605WAT     H1 2057   0.361   1.012   4.269
  605WAT     H2 2058   0.261   0.985   4.395
  606WAT      O 2059   6.529   6.042   1.628
  606WAT     H1 2060   6.566   5.964   1.578
  606WAT     H2 2061   6.573   6.126   1.595
  607WAT      O 2062   0.055   7.533   5.373
  607WAT     H1 2063  -0.028   7.586   5.388
  607WAT     H2 2064   0.074   7.527   5.275
  608WAT      O 2065   5.516   3.001   6.301
  608WAT     H1 2066   5.491   2.971   6.209
  608WAT     H2 2067   5.435   3.034   6.349
  609WAT      O 2068   4.128   6.120   2.312
  609WAT     H1 2069   4.102   6.070   2.229
  609WAT     H2 2070   4.067   6.199   2.323
  610WAT      O 2071   2.980   2.579   8.454
  610WAT     H1 2072   3.065   2.567   8.402
  610WAT     H2 2073   2.909   2.616   8.393
  611WAT      O 2074   4.324   0.878   8.767
  611WAT     H1 2075   4.229   0.846   8.763
  611WAT     H2 2076   4.325   0.978   8.774
  612WAT      O 2077   9.546   1.656   3.000
  612WAT     H1 2078   9.601   1.573   3.013
  612WAT     H2 2079   9.599   1.735   3.030
  613WAT      O 2080   8.636   3.237   9.580
  613WAT     H1 2081   8.628   3.230   9.481
  613WAT     H2 2082   8.702   3.309   9.603
  614WAT      O 2083   3.110   1.290   7.520
  614WAT     H1 2084   3.059   1.364   7.566
  614WAT     H2 2085   3.207   1.301   7.537
  615WAT      O 2086   9.871   1.999   1.090
  615WAT     H1 2087   9.830   2.064   1.154
  615WAT     H2 2088   9.807   1.983   1.014
  616WAT      O 2089   5.814   4.009   3.186
  616WAT     H1 2090   5.801   4.024   3.284
  616WAT     H2 2091   5.732   4.036   3.136
  617WAT      O 2092   5.351   7.062   0.957
  617WAT     H1 2093   5.268   7.014   0.929
  617WAT     H2 2094   5.431   7.017   0.916
  618WAT      O 2095   0.724   9.677   8.922
  618WAT     H1 2096   0.786   9.746   8.884
  618WAT     H2 2097   0.742   9.588   8.879
  619WAT      O 2098   4.085   7.439   3.568
  619WAT     H1 2099   4.156   7.380   3.605
  619WAT     H2 2100   4.057   7.406   3.478
  620WAT      O 2101   0.324   7.816   1.635
  620WAT     H1 2102   0.241   7.790   1.585
  620WAT     H2 2103   0.347   7.743   1.700
  621WAT      O 2104   7.964   8.629   3.162
  621WAT     H1 2105   7.922   8.650   3.074
  621WAT     H2 2106   7.964   8.712   3.219
  622WAT      O 2107   2.684   6.629   0.076
  622WAT     H1 2108   2.668   6.675   0.164
  622WAT     H2 2109   2.709   6.534   0.093
  623WAT      O 2110   0.754   1.342   1.400
  623WAT     H1 2111   0.728   1.343   1.304
  623WAT     H2 2112   0.678   1.306   1.455
  624WAT      O 2113   0.166   1.271   1.211
  624WAT     H1 2114   0.084   1.303   1.164
  624WAT     H2 2115   0.139   1.221   1.294
  625WAT      O 2116   8.143   1.765   1.026
  625WAT     H1 2117   8.201   1.775   0.945
  625WAT     H2 2118   8.072   1.697   1.007
  626WAT      O 2119   5.626   1.123   1.482
  626WAT     H1 2120   5.670   1.045   1.527
  626WAT     H2 2121   5.668   1.138   1.392
  627WAT      O 2122   2.908   4.881   9.719
  627WAT     H1 2123   2.878   4.865   9.813
  627WAT     H2 2124   2.866   4.964   9.683
  628WAT      O 2125   6.197   7.148   6.964
  628WAT     H1 2126   6.289   7.184   6.954
  628WAT     H2 2127   6.131   7.215   6.932
  629WAT      O 2128   8.792   5.339   8.941
  629WAT     H1 2129   8.705   5.371   8.903
  629WAT     H2 2130   8.776   5.263   9.003
  630WAT      O 2131   9.145   1.321   9.374
  630WAT     H1 2132   9.203   1.270   9.311
  630WAT     H2 2133   9.087   1.258   9.426
  631WAT      O 2134   3.111   9.075   7.637
  631WAT     H1 2135   3.090   9.166   7.600
  631WAT     H2 2136   3.025   9.027   7.657
  632WAT      O 2137   5.723   1.052   1.828
  632WAT     H1 2138   5.707   0.990   1.752
  632WAT     H2 2139   5.821   1.055   1.848
  633WAT      O 2140   3.937   4.551   2.382
  633WAT     H1 2141   3.942   4.478   2.313
  633WAT     H2 2142   3.868   4.618   2.354
  634WAT      O 2143   4.912   5.177   9.785
  634WAT     H1 2144   4.928   5.220   9.696
  634WAT     H2 2145   4.926   5.079   9.778
  635WAT      O 2146   7.491   4.403   4.079
  635WAT     H1 2147   7.543   4.488   4.076
  635WAT     H2 2148   7.530   4.342   4.147
  636WAT      O 2149   2.228   9.244   8.289
  636WAT     H1 2150   2.142   9.289   8.314
  636WAT     H2 2151   2.245   9.257   8.191
  637WAT      O 2152   2.363   9.642   5.269
  637WAT     H1 2153   2.409   9.575   5.212
  637WAT     H2 2154   2.292   9.688   5.216
  638WAT      O 2155   8.336   4.469   1.026
  638WAT     H1 2156   8.302   4.404   0.958
  638WAT     H2 2157   8.389   4.420   1.095
  639WAT      O 2158   2.224   1.456   0.260
  639WAT     H1 2159   2.171   1.398   0.198
  639WAT     H2 2160   2.297   1.402   0.301
  640WAT      O 2161   3.389   6.423   8.323
  640WAT     H1 2162   3.436   6.348   8.276
  640WAT     H2 2163   3.322   6.464   8.262
  641WAT      O 2164   4.785   6.128   6.028
  641WAT     H1 2165   4.805   6.109   6.124
  641WAT     H2 2166   4.838   6.206   5.997
  642WAT      O 2167   2.441   3.020   7.460
  642WAT     H1 2168   2.514   2.965   7.499
  642WAT     H2 2169   2.439   3.009   7.361
  643WAT      O 2170   7.656   7.227   5.116
  643WAT     H1 2171   7.630   7.188   5.204
  643WAT     H2 2172   7.642   7.326   5.118
  644WAT      O 2173   1.810   2.139   8.398
  644WAT     H1 2174   1.791   2.063   8.461
  644WAT     H2 2175   1.724   2.171   8.358
  645WAT      O 2176   2.512   8.218   2.266
  645WAT     H1 2177   2.566   8.135   2.250
  645WAT     H2 2178   2.514   8.275   2.184
  646WAT      O 2179   0.882   7.512   7.778
  646WAT     H1 2180   0.812   7.519   7.849
  646WAT     H2 2181   0.912   7.604   7.752
  647WAT      O 2182   7.371   6.261   2.879
  647WAT     H1 2183   7.417   6.173   2.891
  647WAT     H2 2184   7.341   6.295   2.969
  648WAT      O 2185   0.454   8.197   0.754
  648WAT     H1 2186   0.548   8.165   0.765
  648WAT     H2 2187   0.397   8.161   0.827
  649WAT      O 2188   7.678   0.345   0.489
  649WAT     H1 2189   7.710   0.415   0.426
  649WAT     H2 2190   7.578   0.336   0.482
  650WAT      O 2191   5.702   1.673   5.504
  650WAT     H1 2192   5.770   1.620   5.555
  650WAT     H2 2193   5.739   1.697   5.414
  651WAT      O 2194   2.662   8.414   3.760
  651WAT     H1 2195   2.643   8.375   3.850
  651WAT     H2 2196   2.758   8.443   3.757
  652WAT      O 2197   5.214   7.745   0.919
  652WAT     H1 2198   5.146   7.819   0.926
  652WAT     H2 2199   5.283   7.769   0.851
  653WAT      O 2200   1.030   5.194   8.557
  653WAT     H1 2201   1.058   5.288   8.578
  653WAT     H2 2202   1.002   5.148   8.642
  654WAT      O 2203   9.883   6.236   5.925
  654WAT     H1 2204   9.850   6.182   5.848
  654WAT     H2 2205   9.845   6.199   6.010
  655WAT      O 2206   8.317   7.691   2.472
  655WAT     H1 2207   8.408   7.668   2.437
  655WAT     H2 2208   8.325   7.752   2.550
  656WAT      O 2209   5.045   3.155   5.140
  656WAT     H1 2210   4.978   3.081   5.135
  656WAT     H2 2211   5.001   3.238   5.175
  657WAT      O 2212   3.919   3.759   7.406
  657WAT     H1 2213   3.989   3.729   7.341
  657WAT     H2 2214   3.961   3.813   7.478
  658WAT      O 2215   5.456   0.189   5.394
  658WAT     H1 2216   5.486   0.120   5.327
  658WAT     H2 2217   5.367   0.163   5.431
  659WAT      O 2218   6.241   2.268   9.295
  659WAT     H1 2219   6.193   2.234   9.376
  659WAT     H2 2220   6.174   2.309   9.232
  660WAT      O 2221   8.919   7.119   0.121
  660WAT     H1 2222   8.952   7.075   0.038
  660WAT     H2 2223   8.920   7.053   0.196
  661WAT      O 2224   4.636   4.721   2.491
  661WAT     H1 2225   4.709   4.727   2.423
  661WAT     H2 2226   4.551   4.693   2.446
  662WAT      O 2227   4.457   0.714   3.370
  662WAT     H1 2228   4.386   0.652   3.404
  662WAT     H2 2229   4.450   0.802   3.417
  663WAT      O 2230   0.098   6.828   7.375
  663WAT     H1 2231   0.094   6.907   7.437
  663WAT     H2 2232   0.191   6.793   7.373
  664WAT      O 2233   3.345   4.819   3.358
  664WAT     H1 2234   3.304   4.761   3.288
  664WAT     H2 2235   3.344   4.914   3.326
  665WAT      O 2236   4.522   6.612   9.232
  665WAT     H1 2237   4.547   6.684   9.297
  665WAT     H2 2238   4.423   6.615   9.215
  666WAT      O 2239   7.616   7.970   9.247
  666WAT     H1 2240   7.605   7.877   9.210
  666WAT     H2 2241   7.595   7.969   9.344
  667WAT      O 2242   0.812   2.443   3.583
  667WAT     H1 2243   0.890   2.468   3.525
  667WAT     H2 2244   0.736   2.505   3.566
  668WAT      O 2245   1.530   9.404   5.823
  668WAT     H1 2246   1.439   9.380   5.857
  668WAT     H2 2247   1.521   9.455   5.738
  669WAT      O 2248   3.972   3.632   4.901
  669WAT     H1 2249   3.982   3.534   4.918
  669WAT     H2 2250   3.902   3.669   4.962
  670WAT      O 2251   7.385   2.567   4.317
  670WAT     H1 2252   7.373   2.624   4.398
  670WAT     H2 2253   7.365   2.472   4.340
  671WAT      O 2254   3.918   7.735   0.068
  671WAT     H1 2255   3.914   7.738   0.168
  671WAT     H2 2256   3.844   7.791   0.031
  672WAT      O 2257   0.519   1.514   5.596
  672WAT     H1 2258   0.532   1.603   5.641
  672WAT     H2 2259   0.604   1.489   5.549
  673WAT      O 2260   6.129   1.900   4.214
  673WAT     H1 2261   6.185   1.824   4.247
  673WAT     H2 2262   6.164   1.986   4.251
  674WAT      O 2263   8.031   4.396   5.245
  674WAT     H1 2264   7.942   4.401   5.291
  674WAT     H2 2265   8.019   4.358   5.154
  675WAT      O 2266   6.978   0.774   5.221
  675WAT     H1 2267   6.937   0.810   5.305
  675WAT     H2 2268   6.935   0.817   5.142
  676WAT      O 2269   1.929   2.418   6.935
  676WAT     H1 2270   1.840   2.374   6.922
  676WAT     H2 2271   1.924   2.512   6.903
  677WAT      O 2272   2.817   1.310   7.336
  677WAT     H1 2273   2.796   1.281   7.243
  677WAT     H2 2274   2.866   1.237   7.384
  678WAT      O 2275   7.103   8.262   2.244
  678WAT     H1 2276   7.179   8.222   2.192
  678WAT     H2 2277   7.136   8.295   2.332
  679WAT      O 2278   8.308   0.961   1.924
  679WAT     H1 2279   8.278   0.874   1.962
  679WAT     H2 2280   8.408   0.967   1.930
  680WAT      O 2281   5.707   0.185   3.745
  680WAT     H1 2282   5.720   0.208   3.648
  680WAT     H2 2283   5.633   0.119   3.753
  681WAT      O 2284   2.836   7.217   7.622
  681WAT     H1 2285   2.818   7.258   7.712
  681WAT     H2 2286   2.805   7.122   7.622
  682WAT      O 2287   9.687   7.420   2.489
  682WAT     H1 2288   9.599   7.408   2.444
  682WAT     H2 2289   9.682   7.497   2.552
  683WAT      O 2290   2.761   5.228   4.279
  683WAT     H1 2291   2.673   5.194   4.248
  683WAT     H2 2292   2.787   5.182   4.364
  684WAT      O 2293   3.287   9.230   9.549
  684WAT     H1 2294   3.337   9.160   9.498
  684WAT     H2 2295   3.333   9.318   9.540
  685WAT      O 2296   0.602   0.638   6.208
  685WAT     H1 2297   0.540   0.658   6.132
  685WAT     H2 2298   0.681   0.700   6.205
  686WAT      O 2299   3.382   3.679   2.442
  686WAT     H1 2300   3.388   3.580   2.444
  686WAT     H2 2301   3.345   3.712   2.530
  687WAT      O 2302   9.474   5.975   9.300
  687WAT     H1 2303   9.425   5.895   9.336
  687WAT     H2 2304   9.447   6.056   9.352
  688WAT      O 2305   3.111   6.146   4.562
  688WAT     H1 2306   3.205   6.170   4.583
  688WAT     H2 2307   3.051   6.176   4.637
  689WAT      O 2308   1.286   5.475   0.721
  689WAT     H1 2309   1.271   5.540   0.795
  689WAT     H2 2310   1.305   5.384   0.758
  690WAT      O 2311   6.100   6.236   9.552
  690WAT     H1 2312   6.142   6.298   9.619
  690WAT     H2 2313   6.043   6.169   9.599
  691WAT      O 2314   6.773   1.501   0.915
  691WAT     H1 2315   6.708   1.445   0.863
  691WAT     H2 2316   6.866   1.482   0.884
  692WAT      O 2317   1.235   3.813   9.388
  692WAT     H1 2318   1.163   3.752   9.422
  692WAT     H2 2319   1.224   3.827   9.290
  693WAT      O 2320   3.741   6.312   1.768
  693WAT     H1 2321   3.708   6.404   1.786
  693WAT     H2 2322   3.663   6.250   1.758
  694WAT      O 2323   3.870   2.685   2.239
  694WAT     H1 2324   3.952   2.723   2.282
  694WAT     H2 2325   3.802   2.758   2.227
  695WAT      O 2326   1.885   5.835   7.422
  695WAT     H1 2327   1.914   5.920   7.377
  695WAT     H2 2328   1.844   5.857   7.510
  696WAT      O 2329   9.557   8.133   2.924
  696WAT     H1 2330   9.606   8.220   2.915
  696WAT     H2 2331   9.592   8.069   2.856
  697WAT      O 2332   6.342   3.937   2.014
  697WAT     H1 2333   6.310   3.843   2.027
  697WAT     H2 2334   6.437   3.936   1.984
  698WAT      O 2335   2.958   9.558   3.195
  698WAT     H1 2336   3.025   9.504   3.144
  698WAT     H2 2337   3.005   9.612   3.265
  699WAT      O 2338   0.733   6.347   8.267
  699WAT     H1 2339   0.754   6.284   8.341
  699WAT     H2 2340   0.701   6.296   8.188
  700WAT      O 2341   9.773   2.977   0.280
  700WAT     H1 2342   9.821   2.901   0.234
  700WAT     H2 2343   9.840   3.040   0.319
  701WAT      O 2344   3.760   3.295   5.962
  701WAT     H1 2345   3.789   3.199   5.966
  701WAT     H2 2346   3.841   3.354   5.962
  702WAT      O 2347   8.554   1.649   1.333
  702WAT     H1 2348   8.637   1.593   1.339
  702WAT     H2 2349   8.575   1.733   1.283
  703WAT      O 2350   5.975   6.442   4.220
  703WAT     H1 2351   6.042   6.386   4.269
  703WAT     H2 2352   5.883   6.412   4.244
  704WAT      O 2353   7.540   6.189   5.369
  704WAT     H1 2354   7.564   6.286   5.360
  704WAT     H2 2355   7.454   6.181   5.420
  705WAT      O 2356   4.502   6.216   7.043
  705WAT     H1 2357   4.598   6.208   7.016
  705WAT     H2 2358   4.461   6.295   6.998
  706WAT      O 2359   0.255   0.040   6.790
  706WAT     H1 2360   0.170   0.093   6.800
  706WAT     H2 2361   0.314   0.085   6.723
  707WAT      O 2362   2.865   9.534   0.566
  707WAT     H1 2363   2.888   9.608   0.504
  707WAT     H2 2364   2.887   9.446   0.523
  708WAT      O 2365   2.424   7.877   9.142
  708WAT     H1 2366   2.352   7.939   9.112
  708WAT     H2 2367   2.434   7.884   9.241
  709WAT      O 2368   5.341   6.616   2.456
  709WAT     H1 2369   5.435   6.645   2.474
  709WAT     H2 2370   5.306   6.665   2.376
  710WAT      O 2371   8.487   6.414   2.530
  710WAT     H1 2372   8.555   6.389   2.599
  710WAT     H2 2373   8.401   6.367   2.547
  711WAT      O 2374   2.311   3.625   1.683
  711WAT     H1 2375   2.340   3.720   1.675
  711WAT     H2 2376   2.382   3.565   1.646
  712WAT      O 2377   1.470   3.911   0.290
  712WAT     H1 2378   1.408   3.911   0.368
  712WAT     H2 2379   1.563   3.890   0.321
  713WAT      O 2380   2.553   5.458   5.687
  713WAT     H1 2381   2.553   5.505   5.775
  713WAT     H2 2382   2.497   5.375   5.694
  714WAT      O 2383   7.401   5.058   8.521
  714WAT     H1 2384   7.491   5.101   8.521
  714WAT     H2 2385   7.349   5.088   8.441
  715WAT      O 2386   5.380   7.424   3.575
  715WAT     H1 2387   5.383   7.357   3.649
  715WAT     H2 2388   5.296   7.478   3.581
  716WAT      O 2389   6.210   5.093   9.773
  716WAT     H1 2390   6.204   5.097   9.873
  716WAT     H2 2391   6.293   5.140   9.742
  717WAT      O 2392   5.866   9.084   6.678
  717WAT     H1 2393   5.958   9.116   6.700
  717WAT     H2 2394   5.822   9.051   6.761
  718WAT      O 2395   8.851   5.706   5.538
  718WAT     H1 2396   8.861   5.736   5.633
  718WAT     H2 2397   8.861   5.785   5.477
  719WAT      O 2398   9.470   4.450   2.138
  719WAT     H1 2399   9.500   4.376   2.198
  719WAT     H2 2400   9.540   4.468   2.069
  720WAT      O 2401   8.965   8.090   4.748
  720WAT     H1 2402   8.956   8.176   4.698
  720WAT     H2 2403   9.054   8.048   4.728
  721WAT      O 2404   7.160   7.978   3.852
  721WAT     H1 2405   7.126   7.925   3.774
  721WAT     H2 2406   7.185   8.070   3.822
  722WAT      O 2407   5.265   3.400   0.699
  722WAT     H1 2408   5.179   3.381   0.653
  722WAT     H2 2409   5.259   3.371   0.794
  723WAT      O 2410   5.069   6.408   8.229
  723WAT     H1 2411   5.166   6.412   8.252
  723WAT     H2 2412   5.030   6.500   8.229
  724WAT      O 2413   5.602   2.718   9.706
  724WAT     H1 2414   5.570   2.709   9.801
  724WAT     H2 2415   5.528   2.695   9.644
  725WAT      O 2416   3.834   5.123   5.907
  725WAT     H1 2417   3.867   5.030   5.890
  725WAT     H2 2418   3.912   5.185   5.918
  726WAT      O 2419   6.952   8.730   4.557
  726WAT     H1 2420   6.883   8.797   4.582
  726WAT     H2 2421   6.970   8.736   4.458
  727WAT      O 2422   9.057   9.776   1.324
  727WAT     H1 2423   9.049   9.831   1.408
  727WAT     H2 2424   9.007   9.690   1.336
  728WAT      O 2425   1.171   4.642   8.086
  728WAT     H1 2426   1.139   4.616   8.177
  728WAT     H2 2427   1.211   4.563   8.040
  729WAT      O 2428   2.789   3.585   9.181
  729WAT     H1 2429   2.818   3.681   9.182
  729WAT     H2 2430   2.869   3.525   9.186
  730WAT      O 2431   5.019   2.586   1.740
  730WAT     H1 2432   4.967   2.509   1.702
  730WAT     H2 2433   5.048   2.647   1.666
  731WAT      O 2434   7.852   2.492   8.538
  731WAT     H1 2435   7.930   2.432   8.522
  731WAT     H2 2436   7.881   2.588   8.530
  732WAT      O 2437   7.205   7.840   8.325
  732WAT     H1 2438   7.136   7.911   8.341
  732WAT     H2 2439   7.275   7.846   8.396
  733WAT      O 2440   8.125   2.020   1.403
  733WAT     H1 2441   8.049   1.969   1.443
  733WAT     H2 2442   8.139   2.105   1.454
  734WAT      O 2443   9.242   6.841   4.241
  734WAT     H1 2444   9.336   6.875   4.238
  734WAT     H2 2445   9.186   6.893   4.177
  735WAT      O 2446   4.298   1.864   9.032
  735WAT     H1 2447   4.376   1.922   9.007
  735WAT     H2 2448   4.316   1.770   9.003
  736WAT      O 2449   6.173   3.421   8.858
  736WAT     H1 2450   6.269   3.436   8.881
  736WAT     H2 2451   6.129   3.509   8.840
  737WAT      O 2452   2.022   6.573   7.388
  737WAT     H1 2453   2.035   6.490   7.334
  737WAT     H2 2454   1.957   6.554   7.462
  738WAT      O 2455   9.202   8.694   8.449
  738WAT     H1 2456   9.188   8.786   8.486
  738WAT     H2 2457   9.180   8.693   8.352
  739WAT      O 2458   0.879   3.354   6.424
  739WAT     H1 2459   0.904   3.400   6.339
  739WAT     H2 2460   0.834   3.419   6.485
  740WAT      O 2461   6.105   5.629   5.293
  740WAT     H1 2462   6.183   5.668   5.244
  740WAT     H2 2463   6.077   5.691   5.366
  741WAT      O 2464   0.117   6.853   5.211
  741WAT     H1 2465   0.196   6.876   5.154
  741WAT     H2 2466   0.043   6.821   5.153
  742WAT      O 2467   1.989   3.976   6.980
  742WAT     H1 2468   2.019   3.881   6.987
  742WAT     H2 2469   2.019   4.015   6.893
  743WAT      O 2470   7.088   9.406   5.828
  743WAT     H1 2471   7.090   9.477   5.899
  743WAT     H2 2472   7.148   9.432   5.753
  744WAT      O 2473   1.843   6.336   6.385
  744WAT     H1 2474   1.928   6.291   6.357
  744WAT     H2 2475   1.817   6.404   6.316
  745WAT      O 2476   7.153   9.782   1.299
  745WAT     H1 2477   7.085   9.719   1.263
  745WAT     H2 2478   7.205   9.821   1.223
  746WAT      O 2479   0.615   2.811   2.981
  746WAT     H1 2480   0.522   2.846   2.973
  746WAT     H2 2481   0.646   2.778   2.892
  747WAT      O 2482   5.361   8.385   3.125
  747WAT     H1 2483   5.361   8.288   3.148
  747WAT     H2 2484   5.274   8.409   3.082
  748WAT      O 2485   9.552   4.587   6.328
  748WAT     H1 2486   9.580   4.609   6.422
  748WAT     H2 2487   9.609   4.512   6.294
  749WAT      O 2488   4.720   3.314   7.164
  749WAT     H1 2489   4.812   3.329   7.198
  749WAT     H2 2490   4.656   3.313   7.241
  750WAT      O 2491   1.703   2.259   9.093
  750WAT     H1 2492   1.619   2.301   9.126
  750WAT     H2 2493   1.780   2.321   9.108
  751WAT      O 2494   6.299   2.588   9.694
  751WAT     H1 2495   6.332   2.671   9.740
  751WAT     H2 2496   6.377   2.537   9.659
  752WAT      O 2497   8.619   1.288   0.579
  752WAT     H1 2498   8.540   1.275   0.519
  752WAT     H2 2499   8.672   1.203   0.583
  753WAT      O 2500   1.962   3.399   0.073
  753WAT     H1 2501   2.021   3.431   0.147
  753WAT     H2 2502   1.873   3.374   0.110
  754WAT      O 2503   2.753   1.456   6.481
  754WAT     H1 2504   2.831   1.504   6.442
  754WAT     H2 2505   2.780   1.363   6.506
  755WAT      O 2506   1.746   7.071   8.084
  755WAT     H1 2507   1.761   7.043   7.990
  755WAT     H2 2508   1.750   6.991   8.144
  756WAT      O 2509   5.622   7.787   7.510
  756WAT     H1 2510   5.627   7.873   7.561
  756WAT     H2 2511   5.707   7.736   7.522
  757WAT      O 2512   0.291   8.757   5.607
  757WAT     H1 2513   0.329   8.750   5.514
  757WAT     H2 2514   0.273   8.665   5.642
  758WAT      O 2515   0.616   7.554   5.502
  758WAT     H1 2516   0.612   7.474   5.442
  758WAT     H2 2517   0.712   7.580   5.515
  759WAT      O 2518   4.858   6.645   3.206
  759WAT     H1 2519   4.804   6.721   3.241
  759WAT     H2 2520   4.955   6.670   3.206
  760WAT      O 2521   6.663   6.693   5.500
  760WAT     H1 2522   6.731   6.621   5.482
  760WAT     H2 2523   6.661   6.757   5.424
  761WAT      O 2524   2.438   1.546   5.839
  761WAT     H1 2525   2.426   1.614   5.768
  761WAT     H2 2526   2.489   1.468   5.803
  762WAT      O 2527   0.382   9.713   7.751
  762WAT     H1 2528   0.476   9.682   7.760
  762WAT     H2 2529   0.360   9.727   7.655
  763WAT      O 2530   1.872   4.060   8.948
  763WAT     H1 2531   1.906   4.019   8.863
  763WAT     H2 2532   1.836   3.988   9.007
  764WAT      O 2533   6.543   9.583   7.134
  764WAT     H1 2534   6.522   9.637   7.052
  764WAT     H2 2535   6.503   9.627   7.214
  765WAT      O 2536   5.350   7.034   0.014
  765WAT     H1 2537   5.293   7.052  -0.065
  765WAT     H2 2538   5.390   7.121   0.046
  766WAT      O 2539   1.813   6.767   9.611
  766WAT     H1 2540   1.875   6.810   9.545
  766WAT     H2 2541   1.861   6.694   9.660
  767WAT      O 2542   0.605   5.047   1.855
  767WAT     H1 2543   0.590   5.064   1.953
  767WAT     H2 2544   0.652   5.125   1.815
  768WAT      O 2545   0.034   2.485   2.135
  768WAT     H1 2546  -0.042   2.508   2.197
  768WAT     H2 2547  -0.003   2.459   2.046
  769WAT      O 2548   7.615   6.983   5.715
  769WAT     H1 2549   7.528   7.028   5.691
  769WAT     H2 2550   7.597   6.905   5.775
  770WAT      O 2551   0.731   3.772   2.587
  770WAT     H1 2552   0.636   3.801   2.596
  770WAT     H2 2553   0.791   3.850   2.603
  771WAT      O 2554   8.175   0.667   2.770
  771WAT     H1 2555   8.214   0.744   2.718
  771WAT     H2 2556   8.241   0.592   2.771
  772WAT      O 2557   1.498   9.621   9.170
  772WAT     H1 2558   1.570   9.587   9.108
  772WAT     H2 2559   1.414   9.634   9.119
  773WAT      O 2560   8.256   9.809   7.211
  773WAT     H1 2561   8.164   9.771   7.225
  773WAT     H2 2562   8.296   9.833   7.300
  774WAT      O 2563   4.093   0.717   6.399
  774WAT     H1 2564   4.048   0.661   6.468
  774WAT     H2 2565   4.189   0.689   6.390
  775WAT      O 2566   5.743   2.275   4.834
  775WAT     H1 2567   5.652   2.295   4.799
  775WAT     H2 2568   5.752   2.177   4.852
  776WAT      O 2569   5.422   3.760   5.461
  776WAT     H1 2570   5.497   3.699   5.486
  776WAT     H2 2571   5.459   3.838   5.410
  777WAT      O 2572   8.206   2.730   4.904
  777WAT     H1 2573   8.184   2.696   4.996
  777WAT     H2 2574   8.145   2.689   4.837
  778WAT      O 2575   4.343   8.654   7.617
  778WAT     H1 2576   4.306   8.650   7.710
  778WAT     H2 2577   4.417   8.721   7.614
  779WAT      O 2578   7.692   5.638   5.453
  779WAT     H1 2579   7.745   5.678   5.378
  779WAT     H2 2580   7.728   5.672   5.540
  780WAT      O 2581   7.471   8.543   3.500
  780WAT     H1 2582   7.445   8.451   3.471
  780WAT     H2 2583   7.430   8.562   3.589
  781WAT      O 2584   8.661   7.110   9.353
  781WAT     H1 2585   8.597   7.128   9.278
  781WAT     H2 2586   8.751   7.147   9.330
  782WAT      O 2587   5.694   8.184   1.299
  782WAT     H1 2588   5.771   8.247   1.302
  782WAT     H2 2589   5.626   8.217   1.234
  783WAT      O 2590   1.496   5.044   9.174
  783WAT     H1 2591   1.415   5.064   9.230
  783WAT     H2 2592   1.470   5.036   9.078
  784WAT      O 2593   3.704   9.321   1.555
  784WAT     H1 2594   3.754   9.359   1.477
  784WAT     H2 2595   3.664   9.233   1.529
  785WAT      O 2596   8.925   7.504   3.059
  785WAT     H1 2597   8.901   7.568   3.132
  785WAT     H2 2598   9.004   7.449   3.087
  786WAT      O 2599   8.260   3.162   4.602
  786WAT     H1 2600   8.235   3.257   4.582
  786WAT     H2 2601   8.192   3.123   4.664
  787WAT      O 2602   2.416   7.607   1.902
  787WAT     H1 2603   2.319   7.587   1.893
  787WAT     H2 2604   2.469   7.527   1.873
  788WAT      O 2605   8.952   8.377   3.439
  788WAT     H1 2606   9.035   8.335   3.475
  788WAT     H2 2607   8.948   8.362   3.340
  789WAT      O 2608   0.075   8.497   4.640
  789WAT     H1 2609   0.103   8.467   4.731
  789WAT     H2 2610  -0.016   8.537   4.645
  790WAT      O 2611   4.275   7.229   1.088
  790WAT     H1 2612   4.254   7.314   1.137
  790WAT     H2 2613   4.221   7.225   1.004
  791WAT      O 2614   3.605   0.211   6.179
  791WAT     H1 2615   3.588   0.309   6.181
  791WAT     H2 2616   3.627   0.183   6.085
  792WAT      O 2617   0.970   0.591   8.353
  792WAT     H1 2618   0.877   0.623   8.334
  792WAT     H2 2619   1.005   0.543   8.272
  793WAT      O 2620   1.108   4.408   4.382
  793WAT     H1 2621   1.046   4.485   4.394
  793WAT     H2 2622   1.127   4.396   4.284
  794WAT      O 2623   5.492   7.738   3.675
  794WAT     H1 2624   5.452   7.806   3.737
  794WAT     H2 2625   5.465   7.647   3.705
  795WAT      O 2626   9.053   5.627   0.100
  795WAT     H1 2627   9.114   5.703   0.078
  795WAT     H2 2628   9.002   5.649   0.184
  796WAT      O 2629   8.952   4.381   0.915
  796WAT     H1 2630   8.964   4.302   0.856
  796WAT     H2 2631   8.863   4.423   0.897
  797WAT      O 2632   9.360   3.442   0.390
  797WAT     H1 2633   9.347   3.501   0.310
  797WAT     H2 2634   9.382   3.350   0.361
  798WAT      O 2635   6.507   6.079   5.116
  798WAT     H1 2636   6.594   6.123   5.092
  798WAT     H2 2637   6.433   6.120   5.063
  799WAT      O 2638   4.459   2.877   3.225
  799WAT     H1 2639   4.508   2.898   3.140
  799WAT     H2 2640   4.392   2.805   3.208
  800WAT      O 2641   4.858   1.335   7.824
  800WAT     H1 2642   4.834   1.292   7.911
  800WAT     H2 2643   4.862   1.434   7.836
  801WAT      O 2644   5.788   3.639   9.089
  801WAT     H1 2645   5.812   3.658   9.184
  801WAT     H2 2646   5.689   3.649   9.077
  802WAT      O 2647   3.089   4.142   8.249
  802WAT     H1 2648   3.138   4.069   8.202
  802WAT     H2 2649   2.991   4.133   8.231
  803WAT      O 2650   8.861   9.275   7.883
  803WAT     H1 2651   8.810   9.349   7.927
  803WAT     H2 2652   8.851   9.282   7.783
  804WAT      O 2653   4.315   7.903   8.340
  804WAT     H1 2654   4.284   7.925   8.247
  804WAT     H2 2655   4.368   7.980   8.376
  805WAT      O 2656   5.421   5.881   7.474
  805WAT     H1 2657   5.473   5.797   7.456
  805WAT     H2 2658   5.485   5.956   7.488
  806WAT      O 2659   7.426   9.437   5.853
  806WAT     H1 2660   7.370   9.451   5.772
  806WAT     H2 2661   7.430   9.522   5.906
  807WAT      O 2662   1.409   1.596   5.298
  807WAT     H1 2663   1.381   1.612   5.203
  807WAT     H2 2664   1.333   1.558   5.350
  808WAT      O 2665   7.822   1.946   8.310
  808WAT     H1 2666   7.878   1.927   8.229
  808WAT     H2 2667   7.726   1.957   8.282
  809WAT      O 2668   9.022   5.776   8.723
  809WAT     H1 2669   9.042   5.727   8.639
  809WAT     H2 2670   8.935   5.824   8.714
  810WAT      O 2671   0.461   6.579   8.660
  810WAT     H1 2672   0.481   6.515   8.585
  810WAT     H2 2673   0.531   6.649   8.665
  811WAT      O 2674   8.895   9.178   6.088
  811WAT     H1 2675   8.848   9.134   6.165
  811WAT     H2 2676   8.895   9.117   6.009
  812WAT      O 2677   2.423   1.283   4.907
  812WAT     H1 2678   2.350   1.351   4.912
  812WAT     H2 2679   2.490   1.301   4.980
  813WAT      O 2680   2.738   5.905   5.125
  813WAT     H1 2681   2.672   5.904   5.200
  813WAT     H2 2682   2.774   5.812   5.112
  814WAT      O 2683   6.411   3.701   9.699
  814WAT     H1 2684   6.474   3.734   9.628
  814WAT     H2 2685   6.336   3.766   9.710
  815WAT      O 2686   9.715   8.781   0.697
  815WAT     H1 2687   9.749   8.872   0.674
  815WAT     H2 2688   9.683   8.780   0.791
  816WAT      O 2689   3.237   7.513   2.206
  816WAT     H1 2690   3.218   7.429   2.257
  816WAT     H2 2691   3.154   7.569   2.201
  817WAT      O 2692   8.693   8.471   1.298
  817WAT     H1 2693   8.726   8.553   1.252
  817WAT     H2 2694   8.625   8.497   1.367
  818WAT      O 2695   1.341   0.087   1.751
  818WAT     H1 2696   1.338   0.173   1.802
  818WAT     H2 2697   1.318   0.011   1.812
  819WAT      O 2698   9.787   4.935   3.995
  819WAT     H1 2699   9.698   4.977   4.012
  819WAT     H2 2700   9.846   4.949   4.075
  820WAT      O 2701   1.011   6.494   3.626
  820WAT     H1 2702   0.920   6.507   3.666
  820WAT     H2 2703   1.080   6.517   3.694
  821WAT      O 2704   6.700   1.088   3.036
  821WAT     H1 2705   6.768   1.157   3.062
  821WAT     H2 2706   6.739   1.029   2.965
  822WAT      O 2707   1.333   0.346   2.398
  822WAT     H1 2708   1.366   0.253   2.379
  822WAT     H2 2709   1.238   0.355   2.366
  823WAT      O 2710   7.009   8.959   5.971
  823WAT     H1 2711   6.965   9.047   5.950
  823WAT     H2 2712   7.065   8.969   6.053
  824WAT      O 2713   9.754   3.435   8.562
  824WAT     H1 2714   9.674   3.484   8.597
  824WAT     H2 2715   9.836   3.466   8.610
  825WAT      O 2716   9.352   7.186   2.785
  825WAT     H1 2717   9.388   7.093   2.791
  825WAT     H2 2718   9.270   7.194   2.843
  826WAT      O 2719   3.998   9.013   0.468
  826WAT     H1 2720   3.976   8.919   0.493
  826WAT     H2 2721   3.931   9.047   0.403
  827WAT      O 2722   8.848   3.614   8.291
  827WAT     H1 2723   8.914   3.586   8.360
  827WAT     H2 2724   8.811   3.533   8.245
  828WAT      O 2725   7.524   5.633   3.502
  828WAT     H1 2726   7.439   5.583   3.516
  828WAT     H2 2727   7.537   5.651   3.405
  829WAT      O 2728   9.605   4.253   7.345
  829WAT     H1 2729   9.553   4.339   7.348
  829WAT     H2 2730   9.702   4.272   7.363
  830WAT      O 2731   2.594   6.646   1.514
  830WAT     H1 2732   2.677   6.591   1.502
  830WAT     H2 2733   2.519   6.587   1.543
  831WAT      O 2734   1.622   0.347   4.638
  831WAT     H1 2735   1.638   0.438   4.677
  831WAT     H2 2736   1.693   0.284   4.670
  832WAT      O 2737   6.788   8.015   5.547
  832WAT     H1 2738   6.886   8.007   5.560
  832WAT     H2 2739   6.761   7.968   5.463
  833WAT      O 2740   0.569   9.285   3.484
  833WAT     H1 2741   0.660   9.304   3.448
  833WAT     H2 2742   0.503   9.286   3.409
  834WAT      O 2743   5.660   1.261   6.204
  834WAT     H1 2744   5.699   1.331   6.143
  834WAT     H2 2745   5.646   1.299   6.295
  835WAT      O 2746   3.333   8.290   6.186
  835WAT     H1 2747   3.388   8.238   6.120
  835WAT     H2 2748   3.383   8.372   6.213
  836WAT      O 2749   3.475   5.712   6.133
  836WAT     H1 2750   3.435   5.748   6.218
  836WAT     H2 2751   3.412   5.728   6.057
  837WAT      O 2752   0.098   6.412   6.863
  837WAT     H1 2753   0.097   6.312   6.871
  837WAT     H2 2754   0.147   6.438   6.780
  838WAT      O 2755   0.942   5.067   6.949
  838WAT     H1 2756   0.955   5.028   6.858
  838WAT     H2 2757   0.877   5.011   7.001
  839WAT      O 2758   0.465   3.395   8.419
  839WAT     H1 2759   0.510   3.480   8.390
  839WAT     H2 2760   0.424   3.350   8.340
  840WAT      O 2761   1.393   4.682   8.434
  840WAT     H1 2762   1.324   4.618   8.465
  840WAT     H2 2763   1.352   4.745   8.368
  841WAT      O 2764   8.054   6.835   8.952
  841WAT     H1 2765   8.093   6.775   9.022
  841WAT     H2 2766   7.957   6.814   8.940
  842WAT      O 2767   2.876   5.371   1.124
  842WAT     H1 2768   2.968   5.410   1.126
  842WAT     H2 2769   2.828   5.404   1.042
  843WAT      O 2770   7.805   3.215   9.881
  843WAT     H1 2771   7.757   3.263   9.808
  843WAT     H2 2772   7.881   3.272   9.913
  844WAT      O 2773   1.697   6.434   4.726
  844WAT     H1 2774   1.754   6.401   4.652
  844WAT     H2 2775   1.710   6.532   4.737
  845WAT      O 2776   4.811   9.359   9.776
  845WAT     H1 2777   4.723   9.387   9.738
  845WAT     H2 2778   4.884   9.380   9.711
  846WAT      O 2779   2.799   9.466   3.399
  846WAT     H1 2780   2.869   9.472   3.328
  846WAT     H2 2781   2.732   9.396   3.373
  847WAT      O 2782   3.300   7.204   3.595
  847WAT     H1 2783   3.335   7.128   3.541
  847WAT     H2 2784   3.360   7.219   3.674
  848WAT      O 2785   4.730   5.665   5.578
  848WAT     H1 2786   4.691   5.669   5.670
  848WAT     H2 2787   4.668   5.711   5.514
  849WAT      O 2788   7.529   5.988   1.406
  849WAT     H1 2789   7.440   5.993   1.452
  849WAT     H2 2790   7.516   6.005   1.308
  850WAT      O 2791   7.978   2.027   3.198
  850WAT     H1 2792   8.067   2.068   3.180
  850WAT     H2 2793   7.986   1.927   3.191
  851WAT      O 2794   0.735   9.461   9.266
  851WAT     H1 2795   0.710   9.558   9.263
  851WAT     H2 2796   0.654   9.405   9.245
  852WAT      O 2797   4.433   3.088   4.752
  852WAT     H1 2798   4.412   3.000   4.794
  852WAT     H2 2799   4.350   3.144   4.748
  853WAT      O 2800   3.655   1.739   0.873
  853WAT     H1 2801   3.557   1.730   0.888
  853WAT     H2 2802   3.689   1.660   0.822
  854WAT      O 2803   9.316   9.403   6.291
  854WAT     H1 2804   9.251   9.384   6.217
  854WAT     H2 2805   9.404   9.359   6.269
  855WAT      O 2806   1.247   0.963   3.436
  855WAT     H1 2807   1.343   0.980   3.414
  855WAT     H2 2808   1.234   0.866   3.457
  856WAT      O 2809   6.006   1.142   3.316
  856WAT     H1 2810   6.089   1.154   3.371
  856WAT     H2 2811   5.950   1.224   3.322
  857WAT      O 2812   6.607   0.019   2.472
  857WAT     H1 2813   6.584   0.042   2.567
  857WAT     H2 2814   6.611   0.102   2.417
  858WAT      O 2815   6.600   5.141   7.395
  858WAT     H1 2816   6.595   5.212   7.324
  858WAT     H2 2817   6.695   5.129   7.424
  859WAT      O 2818   3.241   6.820   9.842
  859WAT     H1 2819   3.170   6.754   9.864
  859WAT     H2 2820   3.211   6.878   9.766
  860WAT      O 2821   7.495   7.510   6.595
  860WAT     H1 2822   7.422   7.579   6.597
  860WAT     H2 2823   7.462   7.429   6.546
  861WAT      O 2824   8.755   6.610   6.813
  861WAT     H1 2825   8.772   6.570   6.723
  861WAT     H2 2826   8.669   6.661   6.811
  862WAT      O 2827   1.789   9.110   9.482
  862WAT     H1 2828   1.759   9.201   9.453
  862WAT     H2 2829   1.719   9.070   9.541
  863WAT      O 2830   3.289   2.043   4.393
  863WAT     H1 2831   3.232   2.068   4.314
  863WAT     H2 2832   3.305   2.123   4.450
  864WAT      O 2833   7.214   8.874   7.180
  864WAT     H1 2834   7.178   8.801   7.238
  864WAT     H2 2835   7.277   8.835   7.112
  865WAT      O 2836   9.490   0.035   0.055
  865WAT     H1 2837   9.457   0.115   0.005
  865WAT     H2 2838   9.503   0.060   0.152
  866WAT      O 2839   9.188   8.979   3.934
  866WAT     H1 2840   9.239   9.051   3.982
  866WAT     H2 2841   9.090   8.993   3.947
  867WAT      O 2842   1.889   2.809   7.199
  867WAT     H1 2843   1.905   2.811   7.298
  867WAT     H2 2844   1.794   2.780   7.182
  868WAT      O 2845   3.326   5.266   5.960
  868WAT     H1 2846   3.247   5.326   5.969
  868WAT     H2 2847   3.316   5.209   5.878
  869WAT      O 2848   1.890   5.414   9.479
  869WAT     H1 2849   1.901   5.315   9.483
  869WAT     H2 2850   1.915   5.447   9.388
  870WAT      O 2851   2.786   9.094   9.275
  870WAT     H1 2852   2.862   9.152   9.246
  870WAT     H2 2853   2.708   9.109   9.214
  871WAT      O 2854   5.891   3.303   0.028
  871WAT     H1 2855   5.804   3.349   0.008
  871WAT     H2 2856   5.901   3.222  -0.030
  872WAT      O 2857   9.248   6.323   1.636
  872WAT     H1 2858   9.162   6.275   1.617
  872WAT     H2 2859   9.228   6.410   1.682
  873WAT      O 2860   7.144   2.644   2.527
  873WAT     H1 2861   7.160   2.693   2.613
  873WAT     H2 2862   7.056   2.598   2.531
  874WAT      O 2863   9.293   1.400   4.731
  874WAT     H1 2864   9.305   1.468   4.658
  874WAT     H2 2865   9.247   1.320   4.694
  875WAT      O 2866   3.517   7.936   6.206
  875WAT     H1 2867   3.533   7.849   6.158
  875WAT     H2 2868   3.445   7.924   6.274
  876WAT      O 2869   1.369   7.512   1.871
  876WAT     H1 2870   1.295   7.579   1.874
  876WAT     H2 2871   1.336   7.424   1.905
  877WAT      O 2872   8.626   8.426   5.598
  877WAT     H1 2873   8.549   8.423   5.661
  877WAT     H2 2874   8.600   8.474   5.514
  878WAT      O 2875   2.642   8.840   3.723
  878WAT     H1 2876   2.598   8.868   3.637
  878WAT     H2 2877   2.583   8.863   3.800
  879WAT      O 2878   4.842   9.670   2.927
  879WAT     H1 2879   4.866   9.715   3.012
  879WAT     H2 2880   4.832   9.571   2.943
  880WAT      O 2881   2.412   1.218   3.825
  880WAT     H1 2882   2.508   1.214   3.798
  880WAT     H2 2883   2.380   1.127   3.848
  881WAT      O 2884   9.339   9.398   7.046
  881WAT     H1 2885   9.371   9.476   6.992
  881WAT     H2 2886   9.397   9.387   7.126
  882WAT      O 2887   4.983   8.572   5.418
  882WAT     H1 2888   5.042   8.591   5.496
  882WAT     H2 2889   4.954   8.658   5.376
  883WAT      O 2890   2.160   9.382   3.321
  883WAT     H1 2891   2.160   9.406   3.418
  883WAT     H2 2892   2.176   9.464   3.267
  884WAT      O 2893   3.721   5.716   5.113
  884WAT     H1 2894   3.802   5.763   5.078
  884WAT     H2 2895   3.653   5.782   5.142
  885WAT      O 2896   9.804   8.738   1.333
  885WAT     H1 2897   9.901   8.716   1.323
  885WAT     H2 2898   9.748   8.662   1.298
  886WAT      O 2899   8.706   3.236   1.682
  886WAT     H1 2900   8.654   3.281   1.609
  886WAT     H2 2901   8.646   3.171   1.730
  887WAT      O 2902   5.552   7.203   4.459
  887WAT     H1 2903   5.543   7.206   4.558
  887WAT     H2 2904   5.499   7.126   4.423
  888WAT      O 2905   3.348   8.408   8.069
  888WAT     H1 2906   3.354   8.506   8.087
  888WAT     H2 2907   3.305   8.362   8.146
  889WAT      O 2908   0.524   1.531   4.270
  889WAT     H1 2909   0.493   1.580   4.352
  889WAT     H2 2910   0.471   1.447   4.259
  890WAT      O 2911   0.671   8.144   2.526
  890WAT     H1 2912   0.606   8.069   2.518
  890WAT     H2 2913   0.672   8.177   2.621
  891WAT      O 2914   5.792   9.229   8.989
  891WAT     H1 2915   5.729   9.173   8.935
  891WAT     H2 2916   5.741   9.289   9.050
  892WAT      O 2917   5.752   3.348   0.800
  892WAT     H1 2918   5.705   3.262   0.821
  892WAT     H2 2919   5.684   3.417   0.775
  893WAT      O 2920   4.697   7.205   7.447
  893WAT     H1 2921   4.794   7.190   7.466
  893WAT     H2 2922   4.650   7.226   7.533
  894WAT      O 2923   5.645   3.046   7.044
  894WAT     H1 2924   5.664   3.142   7.025
  894WAT     H2 2925   5.731   2.999   7.067
  895WAT      O 2926   2.448   4.341   5.121
  895WAT     H1 2927   2.462   4.429   5.076
  895WAT     H2 2928   2.472   4.349   5.218
  896WAT      O 2929   4.267   4.179   7.415
  896WAT     H1 2930   4.209   4.260   7.428
  896WAT     H2 2931   4.225   4.118   7.349
  897WAT      O 2932   7.445   5.945   0.754
  897WAT     H1 2933   7.467   5.937   0.656
  897WAT     H2 2934   7.475   5.862   0.801
  898WAT      O 2935   0.921   3.080   8.406
  898WAT     H1 2936   0.949   3.040   8.318
  898WAT     H2 2937   0.882   3.171   8.390
  899WAT      O 2938   1.816   8.996   8.538
  899WAT     H1 2939   1.748   9.069   8.547
  899WAT     H2 2940   1.856   8.998   8.447
  900WAT      O 2941   7.096   8.812   1.380
  900WAT     H1 2942   7.151   8.883   1.335
  900WAT     H2 2943   7.148   8.772   1.455
  901WAT      O 2944   6.234   3.744   5.167
  901WAT     H1 2945   6.220   3.754   5.265
  901WAT     H2 2946   6.328   3.716   5.149
  902WAT      O 2947   4.862   5.943   9.311
  902WAT     H1 2948   4.830   5.958   9.405
  902WAT     H2 2949   4.861   6.030   9.262
  903WAT      O 2950   4.050   7.989   4.588
  903WAT     H1 2951   4.109   7.917   4.550
  903WAT     H2 2952   3.958   7.980   4.551
  904WAT      O 2953   9.484   1.986   0.529
  904WAT     H1 2954   9.460   1.987   0.432
  904WAT     H2 2955   9.408   2.023   0.582
  905WAT      O 2956   3.880   2.037   8.721
  905WAT     H1 2957   3.932   2.024   8.806
  905WAT     H2 2958   3.783   2.021   8.739
  906WAT      O 2959   6.169   0.954   6.763
  906WAT     H1 2960   6.251   0.903   6.738
  906WAT     H2 2961   6.113   0.901   6.826
  907WAT      O 2962   9.613   4.635   5.931
  907WAT     H1 2963   9.578   4.692   6.006
  907WAT     H2 2964   9.541   4.575   5.898
  908WAT      O 2965   6.515   1.931   2.396
  908WAT     H1 2966   6.485   1.877   2.475
  908WAT     H2 2967   6.455   2.009   2.384
  909WAT      O 2968   0.764   6.514   6.668
  909WAT     H1 2969   0.675   6.468   6.668
  909WAT     H2 2970   0.825   6.469   6.733
  910WAT      O 2971   2.322   2.413   9.608
  910WAT     H1 2972   2.318   2.321   9.570
  910WAT     H2 2973   2.311   2.480   9.534
  911WAT      O 2974   2.687   0.336   1.897
  911WAT     H1 2975   2.634   0.370   1.975
  911WAT     H2 2976   2.682   0.401   1.822
  912WAT      O 2977   8.090   5.426   7.717
  912WAT     H1 2978   8.070   5.506   7.661
  912WAT     H2 2979   8.074   5.343   7.663
  913WAT      O 2980   2.823   5.033   1.730
  913WAT     H1 2981   2.737   5.045   1.681
  913WAT     H2 2982   2.865   4.947   1.702
  914WAT      O 2983   8.395   9.484   8.988
  914WAT     H1 2984   8.373   9.452   9.080
  914WAT     H2 2985   8.402   9.406   8.926
  915WAT      O 2986   6.284   3.628   9.391
  915WAT     H1 2987   6.224   3.603   9.314
  915WAT     H2 2988   6.230   3.673   9.462
  916WAT      O 2989   0.027   4.425   2.118
  916WAT     H1 2990  -0.052   4.417   2.057
  916WAT     H2 2991  -0.004   4.454   2.209
  917WAT      O 2992   5.774   5.763   7.269
  917WAT     H1 2993   5.773   5.736   7.172
  917WAT     H2 2994   5.806   5.687   7.324
  918WAT      O 2995   8.439   5.929   7.602
  918WAT     H1 2996   8.535   5.955   7.603
  918WAT     H2 2997   8.428   5.845   7.547
  919WAT      O 2998   7.455   8.276   3.445
  919WAT     H1 2999   7.410   8.195   3.407
  919WAT     H2 3000   7.553   8.273   3.425
  920WAT      O 3001   2.410   0.937   0.183
  920WAT     H1 3002   2.330   0.916   0.240
  920WAT     H2 3003   2.434   0.858   0.128
  921WAT      O 3004   0.485   0.123   7.811
  921WAT     H1 3005   0.581   0.095   7.814
  921WAT     H2 3006   0.429   0.046   7.781
  922WAT      O 3007   4.776   3.558   0.232
  922WAT     H1 3008   4.829   3.616   0.294
  922WAT     H2 3009   4.679   3.578   0.242
  923WAT      O 3010   7.698   4.128   9.636
  923WAT     H1 3011   7.755   4.209   9.644
  923WAT     H2 3012   7.751   4.046   9.660
  924WAT      O 3013   1.785   4.283   7.522
  924WAT     H1 3014   1.733   4.290   7.436
  924WAT     H2 3015   1.774   4.192   7.561
  925WAT      O 3016   0.164   1.321   1.572
  925WAT     H1 3017   0.202   1.386   1.639
  925WAT     H2 3018   0.129   1.371   1.493
  926WAT      O 3019   1.524   4.261   5.572
  926WAT     H1 3020   1.448   4.221   5.520
  926WAT     H2 3021   1.543   4.205   5.652
  927WAT      O 3022   8.861   5.636   9.754
  927WAT     H1 3023   8.899   5.622   9.662
  927WAT     H2 3024   8.915   5.584   9.820
  928WAT      O 3025   0.316   6.635   5.986
  928WAT     H1 3026   0.412   6.639   5.958
  928WAT     H2 3027   0.266   6.712   5.945
  929WAT      O 3028   8.544   4.312   6.779
  929WAT     H1 3029   8.520   4.261   6.696
  929WAT     H2 3030   8.638   4.291   6.805
  930WAT      O 3031   7.283   9.006   0.482
  930WAT     H1 3032   7.269   8.946   0.403
  930WAT     H2 3033   7.378   8.998   0.514
  931WAT      O 3034   3.778   6.328   3.120
  931WAT     H1 3035   3.714   6.331   3.197
  931WAT     H2 3036   3.811   6.234   3.108
  932WAT      O 3037   5.294   7.868   1.919
  932WAT     H1 3038   5.252   7.792   1.969
  932WAT     H2 3039   5.271   7.860   1.822
  933WAT      O 3040   9.629   8.964   8.686
  933WAT     H1 3041   9.590   8.877   8.656
  933WAT     H2 3042   9.648   8.960   8.784
  934WAT      O 3043   4.898   7.116   8.955
  934WAT     H1 3044   4.931   7.209   8.972
  934WAT     H2 3045   4.971   7.050   8.975
  935WAT      O 3046   4.940   7.770   3.053
  935WAT     H1 3047   4.974   7.770   2.959
  935WAT     H2 3048   4.981   7.694   3.103
  936WAT      O 3049   4.553   6.734   6.277
  936WAT     H1 3050   4.618   6.669   6.237
  936WAT     H2 3051   4.488   6.685   6.335
  937WAT      O 3052   4.733   7.262   9.468
  937WAT     H1 3053   4.816   7.261   9.412
  937WAT     H2 3054   4.666   7.199   9.429
  938WAT      O 3055   3.917   1.683   7.112
  938WAT     H1 3056   3.962   1.663   7.025
  938WAT     H2 3057   3.967   1.754   7.161
  939WAT      O 3058   4.031   7.700   5.892
  939WAT     H1 3059   3.937   7.692   5.859
  939WAT     H2 3060   4.033   7.760   5.971
  940WAT      O 3061   8.746   5.389   3.439
  940WAT     H1 3062   8.769   5.483   3.416
  940WAT     H2 3063   8.770   5.371   3.534
  941WAT      O 3064   9.740   7.845   3.699
  941WAT     H1 3065   9.690   7.889   3.624
  941WAT     H2 3066   9.823   7.898   3.718
  942WAT      O 3067   7.470   8.906   8.632
  942WAT     H1 3068   7.543   8.971   8.654
  942WAT     H2 3069   7.471   8.889   8.534
  943WAT      O 3070   0.832   5.694   4.993
  943WAT     H1 3071   0.927   5.723   4.980
  943WAT     H2 3072   0.807   5.704   5.089
  944WAT      O 3073   6.527   3.447   7.704
  944WAT     H1 3074   6.506   3.392   7.623
  944WAT     H2 3075   6.560   3.537   7.676
  945WAT      O 3076   2.247   1.361   4.413
  945WAT     H1 3077   2.271   1.432   4.479
  945WAT     H2 3078   2.151   1.370   4.387
  946WAT      O 3079   5.467   2.454   6.965
  946WAT     H1 3080   5.440   2.425   6.873
  946WAT     H2 3081   5.390   2.501   7.009
  947WAT      O 3082   3.394   1.532   7.474
  947WAT     H1 3083   3.426   1.574   7.389
  947WAT     H2 3084   3.344   1.600   7.527
  948WAT      O 3085   3.157   0.350   6.693
  948WAT     H1 3086   3.109   0.435   6.716
  948WAT     H2 3087   3.146   0.331   6.595
  949WAT      O 3088   0.542   2.228   5.509
  949WAT     H1 3089   0.574   2.145   5.463
  949WAT     H2 3090   0.602   2.304   5.486
  950WAT      O 3091   7.028   9.545   1.445
  950WAT     H1 3092   7.116   9.591   1.439
  950WAT     H2 3093   6.978   9.554   1.359
  951WAT      O 3094   3.634   1.705   4.675
  951WAT     H1 3095   3.619   1.680   4.579
  951WAT     H2 3096   3.547   1.697   4.724
  952WAT      O 3097   6.730   7.879   3.011
  952WAT     H1 3098   6.818   7.867   3.056
  952WAT     H2 3099   6.743   7.877   2.912
  953WAT      O 3100   0.075   9.099   4.278
  953WAT     H1 3101   0.033   9.022   4.326
  953WAT     H2 3102   0.173   9.084   4.267
  954WAT      O 3103   4.528   9.413   5.887
  954WAT     H1 3104   4.535   9.433   5.985
  954WAT     H2 3105   4.619   9.390   5.851
  955WAT      O 3106   0.720   8.929   3.161
  955WAT     H1 3107   0.634   8.948   3.210
  955WAT     H2 3108   0.702   8.866   3.086
  956WAT      O 3109   9.582   3.394   7.605
  956WAT     H1 3110   9.616   3.455   7.534
  956WAT     H2 3111   9.637   3.406   7.688
  957WAT      O 3112   2.982   0.293   4.288
  957WAT     H1 3113   2.955   0.215   4.345
  957WAT     H2 3114   3.076   0.278   4.255
  958WAT      O 3115   6.797   5.176   8.074
  958WAT     H1 3116   6.771   5.163   7.978
  958WAT     H2 3117   6.810   5.086   8.117
  959WAT      O 3118   1.795   5.835   2.111
  959WAT     H1 3119   1.708   5.785   2.110
  959WAT     H2 3120   1.794   5.902   2.186
  960WAT      O 3121   0.202   3.826   3.989
  960WAT     H1 3122   0.209   3.926   3.997
  960WAT     H2 3123   0.190   3.801   3.893
  961WAT      O 3124   3.301   7.982   3.789
  961WAT     H1 3125   3.392   7.979   3.748
  961WAT     H2 3126   3.236   8.021   3.724
  962WAT      O 3127   9.360   4.878   8.569
  962WAT     H1 3128   9.285   4.944   8.564
  962WAT     H2 3129   9.403   4.883   8.659
  963WAT      O 3130   8.174   6.715   5.204
  963WAT     H1 3131   8.243   6.785   5.219
  963WAT     H2 3132   8.085   6.747   5.238
  964WAT      O 3133   5.071   0.219   0.292
  964WAT     H1 3134   5.092   0.230   0.389
  964WAT     H2 3135   5.125   0.144   0.254
  965WAT      O 3136   0.334   3.273   8.753
  965WAT     H1 3137   0.250   3.268   8.807
  965WAT     H2 3138   0.413   3.264   8.813
  966WAT      O 3139   5.780   2.337   0.060
  966WAT     H1 3140   5.868   2.340   0.107
  966WAT     H2 3141   5.735   2.426   0.066
  967WAT      O 3142   0.805   4.709   7.523
  967WAT     H1 3143   0.740   4.635   7.541
  967WAT     H2 3144   0.803   4.774   7.599
  968WAT      O 3145   0.092   9.716   5.308
  968WAT     H1 3146   0.028   9.727   5.384
  968WAT     H2 3147   0.118   9.806   5.272
  969WAT      O 3148   5.005   4.826   7.107
  969WAT     H1 3149   4.928   4.871   7.062
  969WAT     H2 3150   4.971   4.751   7.164
  970WAT      O 3151   2.616   8.525   1.275
  970WAT     H1 3152   2.576   8.436   1.257
  970WAT     H2 3153   2.559   8.597   1.234
  971WAT      O 3154   4.866   9.136   6.377
  971WAT     H1 3155   4.806   9.145   6.297
  971WAT     H2 3156   4.876   9.224   6.422
  972WAT      O 3157   1.921   8.100   2.422
  972WAT     H1 3158   1.899   8.063   2.331
  972WAT     H2 3159   1.869   8.050   2.491
  973WAT      O 3160   5.400   5.678   0.393
  973WAT     H1 3161   5.448   5.764   0.374
  973WAT     H2 3162   5.315   5.698   0.442
  974WAT      O 3163   9.616   7.735   0.482
  974WAT     H1 3164   9.624   7.784   0.569
  974WAT     H2 3165   9.552   7.784   0.423
  975WAT      O 3166   9.173   7.051   9.451
  975WAT     H1 3167   9.185   6.997   9.535
  975WAT     H2 3168   9.225   7.008   9.377
  976WAT      O 3169   6.867   2.226   1.110
  976WAT     H1 3170   6.948   2.167   1.117
  976WAT     H2 3171   6.788   2.178   1.148
  977WAT      O 3172   1.779   6.899   4.161
  977WAT     H1 3173   1.780   6.819   4.223
  977WAT     H2 3174   1.722   6.971   4.201
  978WAT      O 3175   4.024   8.169   3.197
  978WAT     H1 3176   4.040   8.267   3.207
  978WAT     H2 3177   4.081   8.132   3.124
  979WAT      O 3178   3.137   5.226   0.302
  979WAT     H1 3179   3.126   5.185   0.211
  979WAT     H2 3180   3.150   5.325   0.293
  980WAT      O 3181   4.579   7.335   2.521
  980WAT     H1 3182   4.501   7.397   2.526
  980WAT     H2 3183   4.663   7.388   2.502
  981WAT      O 3184   7.695   5.783   1.185
  981WAT     H1 3185   7.781   5.764   1.233
  981WAT     H2 3186   7.714   5.804   1.090
  982WAT      O 3187   4.930   3.105   5.441
  982WAT     H1 3188   4.840   3.144   5.459
  982WAT     H2 3189   4.957   3.124   5.346
  983WAT      O 3190   7.843   4.579   7.992
  983WAT     H1 3191   7.919   4.516   8.007
  983WAT     H2 3192   7.787   4.585   8.074
  984WAT      O 3193   0.740   4.300   2.301
  984WAT     H1 3194   0.818   4.320   2.361
  984WAT     H2 3195   0.672   4.372   2.310
  985WAT      O 3196   8.725   0.526   0.986
  985WAT     H1 3197   8.638   0.536   0.937
  985WAT     H2 3198   8.773   0.613   0.986
  986WAT      O 3199   3.979   7.661   3.774
  986WAT     H1 3200   4.029   7.609   3.705
  986WAT     H2 3201   3.892   7.692   3.737
  987WAT      O 3202   2.818   1.240   1.549
  987WAT     H1 3203   2.886   1.313   1.547
  987WAT     H2 3204   2.751   1.258   1.621
  988WAT      O 3205   1.345   4.628   3.233
  988WAT     H1 3206   1.380   4.722   3.244
  988WAT     H2 3207   1.417   4.571   3.194
  989WAT      O 3208   0.421   9.761   3.728
  989WAT     H1 3209   0.363   9.827   3.680
  989WAT     H2 3210   0.406   9.670   3.689
  990WAT      O 3211   5.929   4.816   7.013
  990WAT     H1 3212   5.846   4.861   6.981
  990WAT     H2 3213   5.969   4.762   6.938
  991WAT      O 3214   4.482   6.724   1.320
  991WAT     H1 3215   4.466   6.695   1.225
  991WAT     H2 3216   4.407   6.691   1.378
  992WAT      O 3217   1.329   2.878   3.394
  992WAT     H1 3218   1.263   2.842   3.460
  992WAT     H2 3219   1.420   2.881   3.435
  993WAT      O 3220   5.499   2.427   3.660
  993WAT     H1 3221   5.410   2.453   3.623
  993WAT     H2 3222   5.567   2.497   3.637
  994WAT      O 3223   9.215   5.418   3.489
  994WAT     H1 3224   9.234   5.330   3.445
  994WAT     H2 3225   9.291   5.442   3.550
  995WAT      O 3226   5.003   2.339   6.884
  995WAT     H1 3227   5.027   2.306   6.793
  995WAT     H2 3228   5.002   2.262   6.948
  996WAT      O 3229   8.506   6.775   9.366
  996WAT     H1 3230   8.481   6.678   9.358
  996WAT     H2 3231   8.435   6.823   9.417
  997WAT      O 3232   4.193   4.641   2.708
  997WAT     H1 3233   4.109   4.670   2.662
  997WAT     H2 3234   4.251   4.591   2.644
  998WAT      O 3235   4.879   7.813   2.267
  998WAT     H1 3236   4.953   7.758   2.228
  998WAT     H2 3237   4.791   7.775   2.239
  999WAT      O 3238   5.939   8.557   2.471
  999WAT     H1 3239   5.974   8.608   2.393
  999WAT     H2 3240   5.848   8.589   2.494
 1000WAT      O 3241   9.428   8.045   9.655
 1000WAT     H1 3242   9.411   8.135   9.693
 1000WAT     H2 3243   9.438   8.052   9.555
 1001WAT      O 3244   5.690   7.386   5.955
 1001WAT     H1 3245   5.755   7.310   5.953
 1001WAT     H2 3246   5.672   7.412   6.050
 1002WAT      O 3247   6.352   3.892   5.960
 1002WAT     H1 3248   6.355   3.991   5.971
 1002WAT     H2 3249   6.409   3.849   6.031
 1003WAT      O 3250   1.457   2.333   5.707
 1003WAT     H1 3251   1.525   2.267   5.676
 1003WAT     H2 3252   1.394   2.354   5.632
 1004WAT      O 3253   0.801   5.752   1.728
 1004WAT     H1 3254   0.753   5.718   1.647
 1004WAT     H2 3255   0.747   5.822   1.773
 1005WAT      O 3256   2.083   2.625   1.645
 1005WAT     H1 3257   2.116   2.718   1.627
 1005WAT     H2 3258   1.984   2.628   1.659
 1006WAT      O 3259   2.228   1.161   5.166
 1006WAT     H1 3260   2.299   1.091   5.158
 1006WAT     H2 3261   2.198   1.188   5.074
 1007WAT      O 3262   8.719   6.237   9.516
 1007WAT     H1 3263   8.706   6.257   9.614
 1007WAT     H2 3264   8.780   6.158   9.506
 1008WAT      O 3265   7.069   5.639   3.674
 1008WAT     H1 3266   7.040   5.547   3.699
 1008WAT     H2 3267   7.004   5.678   3.609
 1009WAT      O 3268   6.387   5.500   0.549
 1009WAT     H1 3269   6.458   5.482   0.480
 1009WAT     H2 3270   6.324   5.569   0.516
 1010WAT      O 3271   4.323   7.235   5.333
 1010WAT     H1 3272   4.313   7.176   5.414
 1010WAT     H2 3273   4.267   7.317   5.344
 1011WAT      O 3274   4.291   9.027   3.460
 1011WAT     H1 3275   4.213   9.069   3.415
 1011WAT     H2 3276   4.258   8.964   3.531
 1012WAT      O 3277   0.757   0.036   7.817
 1012WAT     H1 3278   0.854   0.013   7.819
 1012WAT     H2 3279   0.721   0.019   7.725
 1013WAT      O 3280   1.507   9.764   3.257
 1013WAT     H1 3281   1.488   9.722   3.346
 1013WAT     H2 3282   1.540   9.693   3.194
 1014WAT      O 3283   2.030   8.039   5.237
 1014WAT     H1 3284   2.074   8.113   5.186
 1014WAT     H2 3285   1.931   8.041   5.220
 1015WAT      O 3286   1.522   8.027   3.990
 1015WAT     H1 3287   1.505   8.090   4.066
 1015WAT     H2 3288   1.583   7.953   4.021
 1016WAT      O 3289   4.480   7.501   8.606
 1016WAT     H1 3290   4.505   7.570   8.538
 1016WAT     H2 3291   4.562   7.472   8.655
 1017WAT      O 3292   1.100   4.481   3.734
 1017WAT     H1 3293   1.041   4.431   3.671
 1017WAT     H2 3294   1.132   4.565   3.692
 1018WAT      O 3295   9.489   4.073   2.585
 1018WAT     H1 3296   9.565   4.134   2.607
 1018WAT     H2 3297   9.521   3.997   2.529
 1019WAT      O 3298   0.072   9.315   4.464
 1019WAT     H1 3299   0.066   9.253   4.386
 1019WAT     H2 3300  -0.015   9.316   4.513
 1020WAT      O 3301   2.869   8.322   1.115
 1020WAT     H1 3302   2.782   8.274   1.102
 1020WAT     H2 3303   2.939   8.280   1.058
 1021WAT      O 3304   6.131   8.924   5.921
 1021WAT     H1 3305   6.099   9.013   5.886
 1021WAT     H2 3306   6.211   8.895   5.870
 1022WAT      O 3307   8.848   0.935   9.637
 1022WAT     H1 3308   8.875   0.852   9.589
 1022WAT     H2 3309   8.849   0.919   9.735
 1023WAT      O 3310   8.868   5.012   5.230
 1023WAT     H1 3311   8.834   4.988   5.321
 1023WAT     H2 3312   8.965   5.036   5.235
 1024WAT      O 3313   1.651   0.308   2.471
 1024WAT     H1 3314   1.689   0.377   2.409
 1024WAT     H2 3315   1.555   0.294   2.450
 1025WAT      O 3316   1.617   5.195   5.540
 1025WAT     H1 3317   1.583   5.165   5.451
 1025WAT     H2 3318   1.541   5.226   5.597
 1026WAT      O 3319   8.658   6.788   2.011
 1026WAT     H1 3320   8.722   6.748   1.945
 1026WAT     H2 3321   8.709   6.817   2.093
 1027WAT      O 3322   6.267   2.303   5.220
 1027WAT     H1 3323   6.182   2.282   5.268
 1027WAT     H2 3324   6.327   2.223   5.222
 1028WAT      O 3325   5.875   1.055   3.082
 1028WAT     H1 3326   5.929   1.049   2.999
 1028WAT     H2 3327   5.936   1.060   3.161
 1029WAT      O 3328   2.651   7.097   5.790
 1029WAT     H1 3329   2.591   7.019   5.772
 1029WAT     H2 3330   2.643   7.163   5.715
 1030WAT      O 3331   9.316   3.118   8.008
 1030WAT     H1 3332   9.383   3.136   8.079
 1030WAT     H2 3333   9.225   3.107   8.050
 1031WAT      O 3334   7.749   0.325   6.450
 1031WAT     H1 3335   7.695   0.315   6.367
 1031WAT     H2 3336   7.695   0.294   6.529
 1032WAT      O 3337   6.433   4.768   9.746
 1032WAT     H1 3338   6.455   4.702   9.674
 1032WAT     H2 3339   6.439   4.861   9.709
 1033WAT      O 3340   1.824   9.405   4.012
 1033WAT     H1 3341   1.865   9.314   4.008
 1033WAT     H2 3342   1.828   9.447   3.921
 1034WAT      O 3343   7.737   2.060   7.940
 1034WAT     H1 3344   7.693   1.978   7.902
 1034WAT     H2 3345   7.803   2.096   7.875
 1035WAT      O 3346   9.770   1.175   9.595
 1035WAT     H1 3347   9.728   1.264   9.612
 1035WAT     H2 3348   9.829   1.151   9.671
 1036WAT      O 3349   0.810   4.226   1.922
 1036WAT     H1 3350   0.833   4.163   1.997
 1036WAT     H2 3351   0.792   4.173   1.839
 1037WAT      O 3352   8.310   8.467   0.938
 1037WAT     H1 3353   8.346   8.521   0.862
 1037WAT     H2 3354   8.382   8.451   1.005
 1038WAT      O 3355   9.009   0.303   4.089
 1038WAT     H1 3356   9.061   0.368   4.034
 1038WAT     H2 3357   9.043   0.211   4.073
 1039WAT      O 3358   7.154   6.262   0.123
 1039WAT     H1 3359   7.129   6.348   0.078
 1039WAT     H2 3360   7.240   6.274   0.173
 1040WAT      O 3361   1.623   1.765   3.157
 1040WAT     H1 3362   1.547   1.805   3.208
 1040WAT     H2 3363   1.655   1.682   3.203
 1041WAT      O 3364   3.063   7.447   0.582
 1041WAT     H1 3365   2.976   7.480   0.545
 1041WAT     H2 3366   3.061   7.452   0.681
 1042WAT      O 3367   5.470   0.019   5.983
 1042WAT     H1 3368   5.469   0.100   5.924
 1042WAT     H2 3369   5.410  -0.052   5.943
 1043WAT      O 3370   6.287   8.554   8.057
 1043WAT     H1 3371   6.270   8.614   8.135
 1043WAT     H2 3372   6.258   8.600   7.973
 1044WAT      O 3373   8.831   7.505   3.565
 1044WAT     H1 3374   8.835   7.406   3.548
 1044WAT     H2 3375   8.821   7.553   3.478
 1045WAT      O 3376   7.305   2.214   5.741
 1045WAT     H1 3377   7.381   2.161   5.703
 1045WAT     H2 3378   7.222   2.196   5.688
 1046WAT      O 3379   1.319   2.721   7.616
 1046WAT     H1 3380   1.224   2.747   7.599
 1046WAT     H2 3381   1.324   2.622   7.629
 1047WAT      O 3382   6.947   0.780   2.973
 1047WAT     H1 3383   6.966   0.684   2.995
 1047WAT     H2 3384   6.848   0.795   2.971
 1048WAT      O 3385   2.523   2.710   3.108
 1048WAT     H1 3386   2.492   2.792   3.155
 1048WAT     H2 3387   2.560   2.734   3.018
 1049WAT      O 3388   3.984   8.886   6.785
 1049WAT     H1 3389   4.072   8.888   6.832
 1049WAT     H2 3390   3.947   8.793   6.788
 1050WAT      O 3391   1.192   7.616   1.209
 1050WAT     H1 3392   1.203   7.715   1.211
 1050WAT     H2 3393   1.268   7.576   1.157
 1051WAT      O 3394   4.109   7.395   5.393
 1051WAT     H1 3395   4.079   7.328   5.461
 1051WAT     H2 3396   4.137   7.479   5.439
 1052WAT      O 3397   9.570   1.725   2.108
 1052WAT     H1 3398   9.489   1.782   2.090
 1052WAT     H2 3399   9.598   1.737   2.203
 1053WAT      O 3400   9.237   1.099   1.823
 1053WAT     H1 3401   9.240   1.166   1.897
 1053WAT     H2 3402   9.327   1.059   1.810
 1054WAT      O 3403   1.516   0.738   5.704
 1054WAT     H1 3404   1.433   0.769   5.657
 1054WAT     H2 3405   1.541   0.647   5.670
 1055WAT      O 3406   9.884   5.867   5.297
 1055WAT     H1 3407   9.843   5.893   5.210
 1055WAT     H2 3408   9.901   5.950   5.351
 1056WAT      O 3409   1.550   1.455   9.557
 1056WAT     H1 3410   1.591   1.368   9.586
 1056WAT     H2 3411   1.620   1.512   9.513
 1057WAT      O 3412   2.279   8.435   7.662
 1057WAT     H1 3413   2.379   8.425   7.659
 1057WAT     H2 3414   2.245   8.400   7.749
 1058WAT      O 3415   8.334   4.746   8.884
 1058WAT     H1 3416   8.366   4.795   8.964
 1058WAT     H2 3417   8.413   4.714   8.831
 1059WAT      O 3418   3.714   6.263   0.199
 1059WAT     H1 3419   3.712   6.338   0.264
 1059WAT     H2 3420   3.773   6.286   0.122
 1060WAT      O 3421   0.477   5.541   1.690
 1060WAT     H1 3422   0.564   5.561   1.736
 1060WAT     H2 3423   0.461   5.443   1.692
 1061WAT      O 3424   1.846   4.672   2.265
 1061WAT     H1 3425   1.826   4.591   2.210
 1061WAT     H2 3426   1.808   4.753   2.220
 1062WAT      O 3427   5.021   7.922   0.005
 1062WAT     H1 3428   5.120   7.915  -0.009
 1062WAT     H2 3429   4.993   8.017  -0.005
 1063WAT      O 3430   1.805   5.462   5.491
 1063WAT     H1 3431   1.803   5.381   5.432
 1063WAT     H2 3432   1.891   5.463   5.543
 1064WAT      O 3433   9.209   2.551   8.120
 1064WAT     H1 3434   9.282   2.538   8.054
 1064WAT     H2 3435   9.180   2.647   8.120
 1065WAT      O 3436   3.321   6.175   6.510
 1065WAT     H1 3437   3.331   6.088   6.558
 1065WAT     H2 3438   3.224   6.202   6.509
 1066WAT      O 3439   1.587   1.477   2.474
 1066WAT     H1 3440   1.542   1.448   2.558
 1066WAT     H2 3441   1.527   1.459   2.396
 1067WAT      O 3442   0.987   6.594   7.179
 1067WAT     H1 3443   0.937   6.533   7.241
 1067WAT     H2 3444   1.039   6.541   7.113
 1068WAT      O 3445   2.233   9.022   8.497
 1068WAT     H1 3446   2.308   9.049   8.557
 1068WAT     H2 3447   2.199   9.102   8.448
 1069WAT      O 3448   5.972   0.408   9.559
 1069WAT     H1 3449   5.900   0.465   9.517
 1069WAT     H2 3450   5.930   0.341   9.620
 1070WAT      O 3451   8.117   0.849   8.674
 1070WAT     H1 3452   8.147   0.835   8.769
 1070WAT     H2 3453   8.179   0.800   8.613
 1071WAT      O 3454   4.216   2.678   7.941
 1071WAT     H1 3455   4.142   2.738   7.910
 1071WAT     H2 3456   4.194   2.640   8.030
 1072WAT      O 3457   5.103   8.387   8.566
 1072WAT     H1 3458   5.083   8.369   8.663
 1072WAT     H2 3459   5.186   8.338   8.539
 1073WAT      O 3460   2.195   3.412   7.040
 1073WAT     H1 3461   2.225   3.482   6.976
 1073WAT     H2 3462   2.108   3.439   7.082
 1074WAT      O 3463   7.687   7.842   6.940
 1074WAT     H1 3464   7.628   7.830   7.020
 1074WAT     H2 3465   7.764   7.779   6.946
 1075WAT      O 3466   4.774   9.240   6.988
 1075WAT     H1 3467   4.838   9.249   6.912
 1075WAT     H2 3468   4.733   9.149   6.987
 1076WAT      O 3469   0.828   2.352   2.605
 1076WAT     H1 3470   0.772   2.382   2.683
 1076WAT     H2 3471   0.769   2.312   2.536
 1077WAT      O 3472   1.106   7.793   9.382
 1077WAT     H1 3473   1.164   7.753   9.454
 1077WAT     H2 3474   1.122   7.892   9.379
 1078WAT      O 3475   9.420   9.820   3.533
 1078WAT     H1 3476   9.407   9.723   3.511
 1078WAT     H2 3477   9.494   9.857   3.477
 1079WAT      O 3478   1.439   4.136   1.611
 1079WAT     H1 3479   1.457   4.101   1.519
 1079WAT     H2 3480   1.515   4.194   1.640
 1080WAT      O 3481   2.226   4.678   0.369
 1080WAT     H1 3482   2.172   4.712   0.446
 1080WAT     H2 3483   2.313   4.727   0.365
 1081WAT      O 3484   6.665   5.733   9.832
 1081WAT     H1 3485   6.631   5.664   9.768
 1081WAT     H2 3486   6.617   5.820   9.817
 1082WAT      O 3487   2.344   4.449   3.706
 1082WAT     H1 3488   2.252   4.487   3.714
 1082WAT     H2 3489   2.350   4.396   3.622
 1083WAT      O 3490   0.289   7.427   3.480
 1083WAT     H1 3491   0.389   7.432   3.475
 1083WAT     H2 3492   0.257   7.485   3.555
 1084WAT      O 3493   2.867   8.463   6.500
 1084WAT     H1 3494   2.881   8.515   6.416
 1084WAT     H2 3495   2.868   8.525   6.579
 1085WAT      O 3496   0.234   8.539   2.018
 1085WAT     H1 3497   0.239   8.446   1.981
 1085WAT     H2 3498   0.184   8.597   1.954
 1086WAT      O 3499   8.096   4.205   4.597
 1086WAT     H1 3500   8.123   4.129   4.537
 1086WAT     H2 3501   8.098   4.291   4.546
 1087WAT      O 3502   7.754   7.924   4.507
 1087WAT     H1 3503   7.751   7.828   4.535
 1087WAT     H2 3504   7.732   7.982   4.585
 1088WAT      O 3505   3.845   7.484   7.267
 1088WAT     H1 3506   3.788   7.506   7.188
 1088WAT     H2 3507   3.799   7.512   7.351
 1089WAT      O 3508   0.478   0.349   4.777
 1089WAT     H1 3509   0.535   0.372   4.855
 1089WAT     H2 3510   0.514   0.392   4.694
 1090WAT      O 3511   3.378   4.665   0.374
 1090WAT     H1 3512   3.453   4.711   0.423
 1090WAT     H2 3513   3.408   4.575   0.344
 1091WAT      O 3514   3.726   4.214   7.404
 1091WAT     H1 3515   3.746   4.131   7.353
 1091WAT     H2 3516   3.806   4.240   7.459
 1092WAT      O 3517   3.331   5.550   6.349
 1092WAT     H1 3518   3.354   5.452   6.354
 1092WAT     H2 3519   3.294   5.580   6.437
 1093WAT      O 3520   5.572   4.809   0.646
 1093WAT     H1 3521   5.662   4.774   0.671
 1093WAT     H2 3522   5.530   4.853   0.725
 1094WAT      O 3523   3.256   3.915   5.683
 1094WAT     H1 3524   3.297   4.000   5.714
 1094WAT     H2 3525   3.164   3.933   5.647
 1095WAT      O 3526   6.734   2.699   9.802
 1095WAT     H1 3527   6.699   2.664   9.715
 1095WAT     H2 3528   6.718   2.798   9.806
 1096WAT      O 3529   9.282   6.622   0.314
 1096WAT     H1 3530   9.215   6.629   0.241
 1096WAT     H2 3531   9.251   6.675   0.393
 1097WAT      O 3532   1.250   0.527   0.787
 1097WAT     H1 3533   1.264   0.617   0.827
 1097WAT     H2 3534   1.318   0.511   0.715
 1098WAT      O 3535   9.611   9.364   9.798
 1098WAT     H1 3536   9.585   9.347   9.704
 1098WAT     H2 3537   9.612   9.463   9.816
 1099WAT      O 3538   5.931   2.320   0.914
 1099WAT     H1 3539   5.861   2.337   0.846
 1099WAT     H2 3540   5.951   2.222   0.919
 1100WAT      O 3541   7.593   4.247   4.270
 1100WAT     H1 3542   7.621   4.155   4.298
 1100WAT     H2 3543   7.536   4.287   4.341
 1101WAT      O 3544   6.944   8.923   7.029
 1101WAT     H1 3545   6.969   8.826   7.029
 1101WAT     H2 3546   6.962   8.963   7.119
 1102WAT      O 3547   5.678   0.406   6.449
 1102WAT     H1 3548   5.650   0.481   6.389
 1102WAT     H2 3549   5.598   0.365   6.492
 1103WAT      O 3550   4.805   5.161   1.052
 1103WAT     H1 3551   4.764   5.156   0.960
 1103WAT     H2 3552   4.847   5.073   1.074
 1104WAT      O 3553   0.001   2.329   6.565
 1104WAT     H1 3554   0.049   2.291   6.644
 1104WAT     H2 3555  -0.052   2.409   6.593
 1105WAT      O 3556   4.080   1.763   6.439
 1105WAT     H1 3557   4.023   1.820   6.499
 1105WAT     H2 3558   4.098   1.675   6.483
 1106WAT      O 3559   4.568   1.287   4.064
 1106WAT     H1 3560   4.591   1.301   3.968
 1106WAT     H2 3561   4.495   1.219   4.071
 1107WAT      O 3562   0.506   6.141   4.523
 1107WAT     H1 3563   0.412   6.161   4.494
 1107WAT     H2 3564   0.557   6.101   4.447
 1108WAT      O 3565   0.788   7.719   8.217
 1108WAT     H1 3566   0.707   7.743   8.162
 1108WAT     H2 3567   0.773   7.747   8.312
 1109WAT      O 3568   2.746   0.184   0.475
 1109WAT     H1 3569   2.792   0.271   0.457
 1109WAT     H2 3570   2.758   0.159   0.571
 1110WAT      O 3571   2.212   2.839   9.082
 1110WAT     H1 3572   2.173   2.908   9.021
 1110WAT     H2 3573   2.231   2.879   9.171
 1111WAT      O 3574   7.857   1.588   3.390
 1111WAT     H1 3575   7.800   1.654   3.439
 1111WAT     H2 3576   7.909   1.636   3.319
 1112WAT      O 3577   5.055   6.864   9.573
 1112WAT     H1 3578   4.965   6.878   9.532
 1112WAT     H2 3579   5.112   6.809   9.511
 1113WAT      O 3580   8.309   0.581   0.143
 1113WAT     H1 3581   8.375   0.622   0.080
 1113WAT     H2 3582   8.229   0.640   0.150
 1114WAT      O 3583   8.189   0.031   5.013
 1114WAT     H1 3584   8.193   0.121   5.057
 1114WAT     H2 3585   8.281   0.004   4.984
 1115WAT      O 3586   2.477   9.046   8.638
 1115WAT     H1 3587   2.516   9.025   8.728
 1115WAT     H2 3588   2.516   8.983   8.570
 1116WAT      O 3589   5.758   3.166   7.864
 1116WAT     H1 3590   5.834   3.200   7.918
 1116WAT     H2 3591   5.793   3.127   7.778
 1117WAT      O 3592   9.439   3.233   4.886
 1117WAT     H1 3593   9.484   3.294   4.952
 1117WAT     H2 3594   9.365   3.184   4.932
 1118WAT      O 3595   0.642   5.998   6.399
 1118WAT     H1 3596   0.552   6.035   6.377
 1118WAT     H2 3597   0.636   5.947   6.485
 1119WAT      O 3598   6.749   9.780   8.060
 1119WAT     H1 3599   6.784   9.687   8.045
 1119WAT     H2 3600   6.807   9.845   8.011
 1120WAT      O 3601   6.622   1.784   2.202
 1120WAT     H1 3602   6.618   1.835   2.288
 1120WAT     H2 3603   6.650   1.845   2.128
 1121WAT      O 3604   4.802   8.253   6.209
 1121WAT     H1 3605   4.898   8.226   6.211
 1121WAT     H2 3606   4.795   8.348   6.177
 1122WAT      O 3607   0.281   2.095   2.547
 1122WAT     H1 3608   0.185   2.113   2.570
 1122WAT     H2 3609   0.289   2.075   2.450
 1123WAT      O 3610   7.039   9.658   3.176
 1123WAT     H1 3611   7.033   9.720   3.097
 1123WAT     H2 3612   6.980   9.579   3.161
 1124WAT      O 3613   0.262   7.965   9.135
 1124WAT     H1 3614   0.199   8.016   9.195
 1124WAT     H2 3615   0.215   7.886   9.097
 1125WAT      O 3616   4.532   6.310   5.641
 1125WAT     H1 3617   4.541   6.277   5.735
 1125WAT     H2 3618   4.572   6.401   5.634
 1126WAT      O 3619   6.686   6.162   3.358
 1126WAT     H1 3620   6.751   6.225   3.315
 1126WAT     H2 3621   6.725   6.127   3.443
 1127WAT      O 3622   1.087   0.184   0.280
 1127WAT     H1 3623   1.149   0.117   0.240
 1127WAT     H2 3624   1.096   0.184   0.379
 1128WAT      O 3625   7.968   0.341   3.423
 1128WAT     H1 3626   7.906   0.268   3.453
 1128WAT     H2 3627   7.996   0.323   3.328
 1129WAT      O 3628   8.518   2.022   0.124
 1129WAT     H1 3629   8.474   1.961   0.058
 1129WAT     H2 3630   8.451   2.049   0.194
 1130WAT      O 3631   6.948   2.903   4.384
 1130WAT     H1 3632   6.937   2.807   4.356
 1130WAT     H2 3633   6.864   2.935   4.428
 1131WAT      O 3634   1.081   1.704   1.825
 1131WAT     H1 3635   1.159   1.744   1.777
 1131WAT     H2 3636   1.114   1.659   1.908
 1132WAT      O 3637   5.770   0.661   3.881
 1132WAT     H1 3638   5.736   0.658   3.975
 1132WAT     H2 3639   5.841   0.731   3.874
 1133WAT      O 3640   8.137   5.778   3.888
 1133WAT     H1 3641   8.106   5.864   3.929
 1133WAT     H2 3642   8.228   5.792   3.848
 1134WAT      O 3643   2.304   7.122   0.072
 1134WAT     H1 3644   2.335   7.217   0.071
 1134WAT     H2 3645   2.213   7.117   0.112
 1135WAT      O 3646   6.164   0.328   5.409
 1135WAT     H1 3647   6.117   0.312   5.496
 1135WAT     H2 3648   6.145   0.422   5.378
 1136WAT      O 3649   5.840   7.169   0.207
 1136WAT     H1 3650   5.905   7.141   0.278
 1136WAT     H2 3651   5.813   7.264   0.223
 1137WAT      O 3652   5.629   6.113   5.807
 1137WAT     H1 3653   5.689   6.038   5.779
 1137WAT     H2 3654   5.656   6.146   5.897
 1138WAT      O 3655   2.144   2.265   8.065
 1138WAT     H1 3656   2.210   2.277   7.991
 1138WAT     H2 3657   2.098   2.351   8.083
 1139WAT      O 3658   3.186   1.195   3.696
 1139WAT     H1 3659   3.110   1.240   3.744
 1139WAT     H2 3660   3.193   1.231   3.604
 1140WAT      O 3661   4.446   6.699   0.811
 1140WAT     H1 3662   4.488   6.780   0.851
 1140WAT     H2 3663   4.437   6.711   0.712
 1141WAT      O 3664   6.222   2.898   1.015
 1141WAT     H1 3665   6.249   2.833   0.944
 1141WAT     H2 3666   6.265   2.872   1.102
 1142WAT      O 3667   4.457   6.434   0.097
 1142WAT     H1 3668   4.384   6.446   0.164
 1142WAT     H2 3669   4.502   6.522   0.080
 1143WAT      O 3670   1.172   8.384   3.504
 1143WAT     H1 3671   1.215   8.364   3.592
 1143WAT     H2 3672   1.242   8.399   3.435
 1144WAT      O 3673   1.947   5.380   6.967
 1144WAT     H1 3674   1.943   5.356   6.870
 1144WAT     H2 3675   1.907   5.470   6.981
 1145WAT      O 3676   5.348   8.946   7.606
 1145WAT     H1 3677   5.276   8.944   7.676
 1145WAT     H2 3678   5.311   8.983   7.521
 1146WAT      O 3679   4.017   1.406   0.018
 1146WAT     H1 3680   4.043   1.371  -0.072
 1146WAT     H2 3681   4.077   1.369   0.087
 1147WAT      O 3682   7.847   0.849   5.918
 1147WAT     H1 3683   7.762   0.804   5.944
 1147WAT     H2 3684   7.832   0.900   5.832
 1148WAT      O 3685   7.849   6.497   1.264
 1148WAT     H1 3686   7.844   6.574   1.201
 1148WAT     H2 3687   7.821   6.413   1.217
 1149WAT      O 3688   1.775   5.907   9.442
 1149WAT     H1 3689   1.779   5.981   9.375
 1149WAT     H2 3690   1.796   5.820   9.397
 1150WAT      O 3691   3.531   8.081   5.033
 1150WAT     H1 3692   3.584   8.151   4.984
 1150WAT     H2 3693   3.559   8.080   5.129
 1151WAT      O 3694   6.348   1.484   5.254
 1151WAT     H1 3695   6.410   1.407   5.266
 1151WAT     H2 3696   6.303   1.505   5.341
 1152WAT      O 3697   9.677   9.659   5.163
 1152WAT     H1 3698   9.645   9.752   5.145
 1152WAT     H2 3699   9.775   9.654   5.145
 1153WAT      O 3700   2.801   5.694   8.813
 1153WAT     H1 3701   2.725   5.717   8.752
 1153WAT     H2 3702   2.844   5.609   8.783
 1154WAT      O 3703   2.294   9.522   5.533
 1154WAT     H1 3704   2.358   9.559   5.466
 1154WAT     H2 3705   2.330   9.437   5.571
 1155WAT      O 3706   4.171   3.873   2.963
 1155WAT     H1 3707   4.161   3.774   2.972
 1155WAT     H2 3708   4.163   3.916   3.053
 1156WAT      O 3709   5.953   9.755   6.502
 1156WAT     H1 3710   5.861   9.786   6.478
 1156WAT     H2 3711   5.976   9.787   6.594
 1157WAT      O 3712   1.719   9.189   5.113
 1157WAT     H1 3713   1.624   9.168   5.137
 1157WAT     H2 3714   1.725   9.285   5.084
 1158WAT      O 3715   3.369   7.072   5.954
 1158WAT     H1 3716   3.304   7.052   5.881
 1158WAT     H2 3717   3.333   7.036   6.041
 1159WAT      O 3718   9.624   4.901   0.222
 1159WAT     H1 3719   9.691   4.897   0.148
 1159WAT     H2 3720   9.624   4.814   0.272
 1160WAT      O 3721   4.508   5.810   0.620
 1160WAT     H1 3722   4.565   5.753   0.560
 1160WAT     H2 3723   4.415   5.812   0.585
 1161WAT      O 3724   6.349   9.705   4.503
 1161WAT     H1 3725   6.359   9.654   4.588
 1161WAT     H2 3726   6.331   9.642   4.428
 1162WAT      O 3727   6.491   2.089   3.773
 1162WAT     H1 3728   6.433   2.067   3.852
 1162WAT     H2 3729   6.434   2.116   3.696
 1163WAT      O 3730   4.874   5.388   6.437
 1163WAT     H1 3731   4.862   5.434   6.349
 1163WAT     H2 3732   4.801   5.414   6.499
 1164WAT      O 3733   7.895   3.181   5.238
 1164WAT     H1 3734   7.960   3.227   5.178
 1164WAT     H2 3735   7.884   3.234   5.322
 1165WAT      O 3736   8.604   1.000   0.462
 1165WAT     H1 3737   8.701   1.025   0.471
 1165WAT     H2 3738   8.584   0.979   0.367
 1166WAT      O 3739   5.108   8.197   2.900
 1166WAT     H1 3740   5.054   8.237   2.825
 1166WAT     H2 3741   5.198   8.170   2.865
 1167WAT      O 3742   9.155   1.756   8.456
 1167WAT     H1 3743   9.076   1.758   8.396
 1167WAT     H2 3744   9.231   1.711   8.410
 1168WAT      O 3745   5.104   6.846   3.620
 1168WAT     H1 3746   5.127   6.774   3.684
 1168WAT     H2 3747   5.030   6.816   3.561
 1169WAT      O 3748   9.277   5.932   9.705
 1169WAT     H1 3749   9.202   5.979   9.658
 1169WAT     H2 3750   9.278   5.836   9.679
 1170WAT      O 3751   2.601   0.084   1.917
 1170WAT     H1 3752   2.664   0.160   1.935
 1170WAT     H2 3753   2.611   0.015   1.988
 1171WAT      O 3754   1.046   9.838   2.596
 1171WAT     H1 3755   1.006   9.747   2.600
 1171WAT     H2 3756   0.994   9.900   2.656
 1172WAT      O 3757   2.697   6.771   4.723
 1172WAT     H1 3758   2.640   6.818   4.655
 1172WAT     H2 3759   2.790   6.762   4.688
 1173WAT      O 3760   1.636   9.262   0.895
 1173WAT     H1 3761   1.727   9.293   0.870
 1173WAT     H2 3762   1.643   9.179   0.951
 1174WAT      O 3763   6.169   3.586   2.905
 1174WAT     H1 3764   6.142   3.621   2.995
 1174WAT     H2 3765   6.088   3.553   2.857
 1175WAT      O 3766   3.884   0.991   2.884
 1175WAT     H1 3767   3.867   1.056   2.810
 1175WAT     H2 3768   3.967   0.938   2.864
 1176WAT      O 3769   1.784   3.330   4.252
 1176WAT     H1 3770   1.837   3.333   4.167
 1176WAT     H2 3771   1.760   3.235   4.272
 1177WAT      O 3772   1.075   5.889   5.882
 1177WAT     H1 3773   1.107   5.840   5.802
 1177WAT     H2 3774   1.055   5.984   5.857
 1178WAT      O 3775   1.511   4.967   0.179
 1178WAT     H1 3776   1.439   4.939   0.116
 1178WAT     H2 3777   1.519   4.899   0.252
 1179WAT      O 3778   3.234   2.776   3.423
 1179WAT     H1 3779   3.175   2.805   3.498
 1179WAT     H2 3780   3.180   2.722   3.358
 1180WAT      O 3781   1.664   4.739   5.539
 1180WAT     H1 3782   1.600   4.795   5.592
 1180WAT     H2 3783   1.623   4.650   5.520
 1181WAT      O 3784   8.811   1.810   3.958
 1181WAT     H1 3785   8.850   1.846   3.874
 1181WAT     H2 3786   8.762   1.725   3.939
 1182WAT      O 3787   3.588   2.687   2.843
 1182WAT     H1 3788   3.579   2.743   2.761
 1182WAT     H2 3789   3.540   2.600   2.829
 1183WAT      O 3790   3.257   7.253   0.447
 1183WAT     H1 3791   3.331   7.318   0.431
 1183WAT     H2 3792   3.179   7.300   0.489
 1184WAT      O 3793   1.430   8.850   6.949
 1184WAT     H1 3794   1.448   8.759   6.914
 1184WAT     H2 3795   1.354   8.846   7.014
 1185WAT      O 3796   6.137   1.250   0.562
 1185WAT     H1 3797   6.045   1.287   0.552
 1185WAT     H2 3798   6.145   1.166   0.508
 1186WAT      O 3799   8.109   4.657   6.132
 1186WAT     H1 3800   8.202   4.663   6.169
 1186WAT     H2 3801   8.058   4.587   6.182
 1187WAT      O 3802   8.722   4.543   4.693
 1187WAT     H1 3803   8.814   4.555   4.656
 1187WAT     H2 3804   8.715   4.453   4.737
 1188WAT      O 3805   3.790   3.995   7.050
 1188WAT     H1 3806   3.745   4.072   7.004
 1188WAT     H2 3807   3.803   3.920   6.985
 1189WAT      O 3808   2.559   9.394   6.357
 1189WAT     H1 3809   2.534   9.347   6.441
 1189WAT     H2 3810   2.479   9.398   6.296
 1190WAT      O 3811   0.652   6.936   3.645
 1190WAT     H1 3812   0.692   6.864   3.701
 1190WAT     H2 3813   0.643   6.904   3.551
 1191WAT      O 3814   1.575   1.211   5.259
 1191WAT     H1 3815   1.580   1.285   5.193
 1191WAT     H2 3816   1.487   1.215   5.307
 1192WAT      O 3817   6.317   1.902   8.798
 1192WAT     H1 3818   6.402   1.928   8.844
 1192WAT     H2 3819   6.278   1.982   8.753
 1193WAT      O 3820   4.580   5.725   9.032
 1193WAT     H1 3821   4.561   5.760   9.123
 1193WAT     H2 3822   4.541   5.787   8.963
 1194WAT      O 3823   2.121   9.698   6.046
 1194WAT     H1 3824   2.206   9.687   6.097
 1194WAT     H2 3825   2.135   9.672   5.950
 1195WAT      O 3826   3.826   3.354   7.577
 1195WAT     H1 3827   3.786   3.403   7.500
 1195WAT     H2 3828   3.801   3.257   7.572
 1196WAT      O 3829   0.533   6.975   0.560
 1196WAT     H1 3830   0.508   7.009   0.651
 1196WAT     H2 3831   0.488   6.887   0.544
 1197WAT      O 3832   1.758   3.941   5.915
 1197WAT     H1 3833   1.740   3.992   5.998
 1197WAT     H2 3834   1.815   3.861   5.936
 1198WAT      O 3835   3.348   8.329   0.331
 1198WAT     H1 3836   3.409   8.258   0.297
 1198WAT     H2 3837   3.345   8.326   0.431
 1199WAT      O 3838   6.231   0.369   3.088
 1199WAT     H1 3839   6.243   0.285   3.035
 1199WAT     H2 3840   6.229   0.347   3.185
 1200WAT      O 3841   6.671   4.075   9.520
 1200WAT     H1 3842   6.720   4.004   9.570
 1200WAT     H2 3843   6.654   4.153   9.580
 1201WAT      O 3844   0.741   4.711   8.145
 1201WAT     H1 3845   0.789   4.799   8.145
 1201WAT     H2 3846   0.805   4.638   8.118
 1202WAT      O 3847   6.111   2.186   0.605
 1202WAT     H1 3848   6.045   2.245   0.559
 1202WAT     H2 3849   6.093   2.187   0.703
 1203WAT      O 3850   6.302   5.132   6.351
 1203WAT     H1 3851   6.338   5.200   6.416
 1203WAT     H2 3852   6.311   5.167   6.258
 1204WAT      O 3853   1.284   6.546   9.215
 1204WAT     H1 3854   1.240   6.516   9.131
 1204WAT     H2 3855   1.274   6.475   9.285
 1205WAT      O 3856   0.476   6.889   8.502
 1205WAT     H1 3857   0.400   6.825   8.516
 1205WAT     H2 3858   0.541   6.880   8.576
 1206WAT      O 3859   1.230   3.476   9.148
 1206WAT     H1 3860   1.325   3.483   9.177
 1206WAT     H2 3861   1.203   3.559   9.100
 1207WAT      O 3862   3.366   1.804   8.427
 1207WAT     H1 3863   3.384   1.723   8.371
 1207WAT     H2 3864   3.337   1.776   8.518
 1208WAT      O 3865   0.123   7.771   1.465
 1208WAT     H1 3866   0.130   7.753   1.367
 1208WAT     H2 3867   0.031   7.748   1.497
 1209WAT      O 3868   4.545   1.342   7.169
 1209WAT     H1 3869   4.598   1.418   7.130
 1209WAT     H2 3870   4.599   1.258   7.167
 1210WAT      O 3871   2.715   5.829   4.007
 1210WAT     H1 3872   2.694   5.779   4.091
 1210WAT     H2 3873   2.736   5.924   4.030
 1211WAT      O 3874   8.015   4.257   2.637
 1211WAT     H1 3875   8.114   4.268   2.623
 1211WAT     H2 3876   7.999   4.210   2.724
 1212WAT      O 3877   1.255   0.685   5.532
 1212WAT     H1 3878   1.259   0.641   5.622
 1212WAT     H2 3879   1.317   0.637   5.469
 1213WAT      O 3880   9.513   8.911   5.937
 1213WAT     H1 3881   9.433   8.954   5.979
 1213WAT     H2 3882   9.565   8.862   6.007
 1214WAT      O 3883   5.960   8.430   4.486
 1214WAT     H1 3884   6.040   8.383   4.448
 1214WAT     H2 3885   5.954   8.521   4.447
 1215WAT      O 3886   2.781   5.538   0.911
 1215WAT     H1 3887   2.734   5.603   0.851
 1215WAT     H2 3888   2.851   5.489   0.858
 1216WAT      O 3889   1.216   2.283   6.729
 1216WAT     H1 3890   1.248   2.295   6.635
 1216WAT     H2 3891   1.236   2.189   6.759
 1217WAT      O 3892   6.073   5.392   6.454
 1217WAT     H1 3893   6.145   5.362   6.518
 1217WAT     H2 3894   5.984   5.360   6.487
 1218WAT      O 3895   9.630   3.193   2.867
 1218WAT     H1 3896   9.609   3.269   2.805
 1218WAT     H2 3897   9.628   3.107   2.816
 1219WAT      O 3898   3.655   2.956   3.365
 1219WAT     H1 3899   3.714   3.022   3.413
 1219WAT     H2 3900   3.710   2.878   3.335
 1220WAT      O 3901   1.820   9.335   6.770
 1220WAT     H1 3902   1.880   9.315   6.848
 1220WAT     H2 3903   1.855   9.415   6.721
 1221WAT      O 3904   0.186   7.616   3.644
 1221WAT     H1 3905   0.141   7.691   3.595
 1221WAT     H2 3906   0.281   7.641   3.663
 1222WAT      O 3907   7.282   9.599   8.273
 1222WAT     H1 3908   7.207   9.605   8.340
 1222WAT     H2 3909   7.278   9.679   8.213
 1223WAT      O 3910   4.607   6.623   7.080
 1223WAT     H1 3911   4.568   6.647   7.169
 1223WAT     H2 3912   4.691   6.571   7.093
 1224WAT      O 3913   4.827   5.774   6.723
 1224WAT     H1 3914   4.764   5.842   6.687
 1224WAT     H2 3915   4.787   5.683   6.712
 1225WAT      O 3916   6.228   2.039   6.741
 1225WAT     H1 3917   6.170   2.026   6.660
 1225WAT     H2 3918   6.246   2.136   6.754
 1226WAT      O 3919   3.544   7.803   4.674
 1226WAT     H1 3920   3.530   7.839   4.581
 1226WAT     H2 3921   3.624   7.743   4.675
 1227WAT      O 3922   9.632   2.280   4.944
 1227WAT     H1 3923   9.570   2.350   4.909
 1227WAT     H2 3924   9.653   2.215   4.872
 1228WAT      O 3925   4.303   3.612   5.381
 1228WAT     H1 3926   4.260   3.654   5.461
 1228WAT     H2 3927   4.239   3.552   5.335
 1229WAT      O 3928   9.120   0.880   3.093
 1229WAT     H1 3929   9.115   0.811   3.164
 1229WAT     H2 3930   9.216   0.899   3.071
 1230WAT      O 3931   2.157   1.162   9.820
 1230WAT     H1 3932   2.139   1.135   9.725
 1230WAT     H2 3933   2.250   1.133   9.845
 1231WAT      O 3934   5.810   7.371   8.159
 1231WAT     H1 3935   5.848   7.435   8.225
 1231WAT     H2 3936   5.781   7.420   8.077
 1232WAT      O 3937   2.086   0.379   9.460
 1232WAT     H1 3938   2.154   0.306   9.458
 1232WAT     H2 3939   2.005   0.349   9.408
 1233WAT      O 3940   8.276   4.310   9.589
 1233WAT     H1 3941   8.235   4.401   9.597
 1233WAT     H2 3942   8.375   4.316   9.606
 1234WAT      O 3943   3.909   2.969   9.194
 1234WAT     H1 3944   3.999   2.954   9.234
 1234WAT     H2 3945   3.884   2.890   9.138
 1235WAT      O 3946   7.688   0.904   9.485
 1235WAT     H1 3947   7.683   0.806   9.467
 1235WAT     H2 3948   7.692   0.954   9.398
 1236WAT      O 3949   6.261   6.267   0.091
 1236WAT     H1 3950   6.329   6.264   0.164
 1236WAT     H2 3951   6.170   6.274   0.130
 1237WAT      O 3952   4.362   5.694   2.888
 1237WAT     H1 3953   4.282   5.647   2.924
 1237WAT     H2 3954   4.445   5.651   2.923
 1238WAT      O 3955   1.485   0.965   0.710
 1238WAT     H1 3956   1.506   1.050   0.662
 1238WAT     H2 3957   1.519   0.887   0.658
 1239WAT      O 3958   0.655   2.286   5.946
 1239WAT     H1 3959   0.601   2.211   5.906
 1239WAT     H2 3960   0.620   2.306   6.037
 1240WAT      O 3961   9.185   4.506   8.627
 1240WAT     H1 3962   9.235   4.561   8.561
 1240WAT     H2 3963   9.090   4.496   8.598
 1241WAT      O 3964   7.141   9.368   7.180
 1241WAT     H1 3965   7.224   9.395   7.132
 1241WAT     H2 3966   7.062   9.412   7.137
 1242WAT      O 3967   2.451   1.763   8.187
 1242WAT     H1 3968   2.437   1.804   8.277
 1242WAT     H2 3969   2.381   1.798   8.124
 1243WAT      O 3970   9.727   2.458   4.506
 1243WAT     H1 3971   9.761   2.552   4.498
 1243WAT     H2 3972   9.628   2.459   4.523
 1244WAT      O 3973   8.300   0.436   5.588
 1244WAT     H1 3974   8.316   0.346   5.630
 1244WAT     H2 3975   8.220   0.478   5.630
 1245WAT      O 3976   5.156   8.535   5.679
 1245WAT     H1 3977   5.096   8.494   5.748
 1245WAT     H2 3978   5.177   8.629   5.705
 1246WAT      O 3979   9.851   3.697   2.467
 1246WAT     H1 3980   9.910   3.715   2.545
 1246WAT     H2 3981   9.898   3.726   2.383
 1247WAT      O 3982   7.487   8.060   2.617
 1247WAT     H1 3983   7.457   8.151   2.647
 1247WAT     H2 3984   7.466   8.048   2.521
 1248WAT      O 3985   2.071   0.295   3.528
 1248WAT     H1 3986   1.987   0.285   3.474
 1248WAT     H2 3987   2.047   0.321   3.621
 1249WAT      O 3988   7.381   8.569   3.233
 1249WAT     H1 3989   7.282   8.552   3.235
 1249WAT     H2 3990   7.417   8.574   3.326
 1250WAT      O 3991   2.105   7.306   4.292
 1250WAT     H1 3992   2.022   7.306   4.347
 1250WAT     H2 3993   2.123   7.399   4.258
 1251WAT      O 3994   5.402   3.289   3.768
 1251WAT     H1 3995   5.312   3.251   3.750
 1251WAT     H2 3996   5.400   3.338   3.856
 1252WAT      O 3997   5.414   1.165   1.653
 1252WAT     H1 3998   5.504   1.136   1.618
 1252WAT     H2 3999   5.412   1.154   1.752
 1253WAT      O 4000   7.349   2.189   7.776
 1253WAT     H1 4001   7.422   2.234   7.827
 1253WAT     H2 4002   7.333   2.098   7.814
 1254WAT      O 4003   4.886   1.058   5.838
 1254WAT     H1 4004   4.919   0.983   5.780
 1254WAT     H2 4005   4.934   1.055   5.926
 1255WAT      O 4006   7.649   1.042   4.338
 1255WAT     H1 4007   7.628   1.125   4.388
 1255WAT     H2 4008   7.569   1.012   4.287
 1256WAT      O 4009   8.550   8.279   4.537
 1256WAT     H1 4010   8.544   8.250   4.441
 1256WAT     H2 4011   8.521   8.204   4.596
 1257WAT      O 4012   2.677   6.912   2.377
 1257WAT     H1 4013   2.617   6.840   2.344
 1257WAT     H2 4014   2.627   6.971   2.441
 1258WAT      O 4015   8.387   5.635   1.590
 1258WAT     H1 4016   8.370   5.726   1.554
 1258WAT     H2 4017   8.359   5.567   1.523
 1259WAT      O 4018   2.664   7.591   4.868
 1259WAT     H1 4019   2.725   7.630   4.800
 1259WAT     H2 4020   2.684   7.494   4.880
 1260WAT      O 4021   8.087   5.150   8.704
 1260WAT     H1 4022   7.991   5.166   8.679
 1260WAT     H2 4023   8.137   5.236   8.697
 1261WAT      O 4024   6.111   6.369   6.494
 1261WAT     H1 4025   6.178   6.432   6.533
 1261WAT     H2 4026   6.068   6.412   6.415
 1262WAT      O 4027   2.242   8.478   5.586
 1262WAT     H1 4028   2.179   8.404   5.564
 1262WAT     H2 4029   2.324   8.470   5.528
 1263WAT      O 4030   9.409   0.463   4.452
 1263WAT     H1 4031   9.368   0.372   4.446
 1263WAT     H2 4032   9.505   0.458   4.426
 1264WAT      O 4033   9.704   9.815   4.425
 1264WAT     H1 4034   9.788   9.868   4.438
 1264WAT     H2 4035   9.680   9.768   4.510
 1265WAT      O 4036   1.162   6.462   8.986
 1265WAT     H1 4037   1.221   6.449   8.907
 1265WAT     H2 4038   1.086   6.523   8.963
 1266WAT      O 4039   8.761   8.869   8.285
 1266WAT     H1 4040   8.859   8.884   8.269
 1266WAT     H2 4041   8.749   8.797   8.353
 1267WAT      O 4042   1.662   9.566   0.204
 1267WAT     H1 4043   1.635   9.472   0.224
 1267WAT     H2 4044   1.583   9.617   0.168
 1268WAT      O 4045   4.031   3.276   1.875
 1268WAT     H1 4046   4.016   3.200   1.812
 1268WAT     H2 4047   3.943   3.313   1.903
 1269WAT      O 4048   4.491   3.085   7.980
 1269WAT     H1 4049   4.462   3.039   8.064
 1269WAT     H2 4050   4.546   3.165   8.003
 1270WAT      O 4051   0.489   3.904   1.008
 1270WAT     H1 4052   0.400   3.949   1.020
 1270WAT     H2 4053   0.478   3.827   0.944
 1271WAT      O 4054   8.137   7.548   1.927
 1271WAT     H1 4055   8.166   7.590   1.841
 1271WAT     H2 4056   8.102   7.456   1.910
 1272WAT      O 4057   8.330   8.900   8.192
 1272WAT     H1 4058   8.420   8.940   8.173
 1272WAT     H2 4059   8.337   8.840   8.272
 1273WAT      O 4060   3.408   6.297   0.346
 1273WAT     H1 4061   3.345   6.231   0.386
 1273WAT     H2 4062   3.496   6.253   0.327
 1274WAT      O 4063   9.246   9.200   0.817
 1274WAT     H1 4064   9.195   9.152   0.745
 1274WAT     H2 4065   9.246   9.298   0.798
 1275WAT      O 4066   7.047   6.837   0.300
 1275WAT     H1 4067   7.047   6.740   0.326
 1275WAT     H2 4068   7.033   6.845   0.202
 1276WAT      O 4069   1.032   0.591   3.398
 1276WAT     H1 4070   0.954   0.546   3.442
 1276WAT     H2 4071   1.023   0.582   3.299
 1277WAT      O 4072   8.367   5.212   8.747
 1277WAT     H1 4073   8.309   5.193   8.826
 1277WAT     H2 4074   8.449   5.154   8.750
 1278WAT      O 4075   5.336   9.612   2.882
 1278WAT     H1 4076   5.326   9.712   2.883
 1278WAT     H2 4077   5.433   9.589   2.876
 1279WAT      O 4078   0.955   2.714   2.825
 1279WAT     H1 4079   0.861   2.709   2.792
 1279WAT     H2 4080   0.972   2.638   2.888
 1280WAT      O 4081   9.069   9.164   7.546
 1280WAT     H1 4082   9.096   9.162   7.450
 1280WAT     H2 4083   9.021   9.249   7.565
 1281WAT      O 4084   2.972   2.544   6.515
 1281WAT     H1 4085   2.965   2.508   6.608
 1281WAT     H2 4086   2.933   2.478   6.451
 1282WAT      O 4087   5.569   1.072   5.855
 1282WAT     H1 4088   5.544   1.107   5.946
 1282WAT     H2 4089   5.558   1.145   5.787
 1283WAT      O 4090   7.198   1.631   7.250
 1283WAT     H1 4091   7.143   1.552   7.276
 1283WAT     H2 4092   7.153   1.715   7.280
 1284WAT      O 4093   7.203   0.486   3.486
 1284WAT     H1 4094   7.233   0.403   3.533
 1284WAT     H2 4095   7.243   0.490   3.394
 1285WAT      O 4096   2.010   1.321   5.136
 1285WAT     H1 4097   2.036   1.345   5.043
 1285WAT     H2 4098   2.083   1.269   5.179
 1286WAT      O 4099   4.393   0.326   9.018
 1286WAT     H1 4100   4.316   0.310   8.956
 1286WAT     H2 4101   4.388   0.419   9.053
 1287WAT      O 4102   2.029   6.119   1.491
 1287WAT     H1 4103   1.933   6.144   1.501
 1287WAT     H2 4104   2.064   6.087   1.580
 1288WAT      O 4105   8.547   8.733   4.768
 1288WAT     H1 4106   8.462   8.763   4.724
 1288WAT     H2 4107   8.588   8.659   4.715
 1289WAT      O 4108   3.424   0.722   9.625
 1289WAT     H1 4109   3.432   0.655   9.699
 1289WAT     H2 4110   3.483   0.800   9.645
 1290WAT      O 4111   3.507   4.867   7.222
 1290WAT     H1 4112   3.591   4.814   7.217
 1290WAT     H2 4113   3.437   4.827   7.163
 1291WAT      O 4114   1.484   1.319   6.340
 1291WAT     H1 4115   1.537   1.307   6.256
 1291WAT     H2 4116   1.519   1.398   6.391
 1292WAT      O 4117   8.644   5.903   5.777
 1292WAT     H1 4118   8.734   5.861   5.763
 1292WAT     H2 4119   8.651   6.002   5.765
 1293WAT      O 4120   4.343   0.729   5.132
 1293WAT     H1 4121   4.293   0.814   5.118
 1293WAT     H2 4122   4.354   0.681   5.044
 1294WAT      O 4123   5.791   2.849   4.036
 1294WAT     H1 4124   5.733   2.785   3.985
 1294WAT     H2 4125   5.751   2.941   4.032
 1295WAT      O 4126   9.371   4.357   6.934
 1295WAT     H1 4127   9.272   4.367   6.935
 1295WAT     H2 4128   9.409   4.399   6.852
 1296WAT      O 4129   1.003   0.177   5.775
 1296WAT     H1 4130   1.015   0.262   5.723
 1296WAT     H2 4131   0.917   0.134   5.749
 1297WAT      O 4132   3.404   9.830   7.862
 1297WAT     H1 4133   3.445   9.774   7.934
 1297WAT     H2 4134   3.405   9.779   7.776
 1298WAT      O 4135   7.119   2.956   1.037
 1298WAT     H1 4136   7.027   2.976   1.069
 1298WAT     H2 4137   7.124   2.968   0.938
 1299WAT      O 4138   8.960   2.064   7.488
 1299WAT     H1 4139   9.047   2.056   7.537
 1299WAT     H2 4140   8.954   1.992   7.419
 1300WAT      O 4141   8.993   4.684   3.866
 1300WAT     H1 4142   9.069   4.734   3.909
 1300WAT     H2 4143   9.003   4.586   3.885
 1301WAT      O 4144   7.353   6.097   9.668
 1301WAT     H1 4145   7.339   6.035   9.745
 1301WAT     H2 4146   7.350   6.192   9.700
 1302WAT      O 4147   1.654   2.832   6.862
 1302WAT     H1 4148   1.584   2.762   6.871
 1302WAT     H2 4149   1.649   2.895   6.940
 1303WAT      O 4150   3.134   6.161   3.951
 1303WAT     H1 4151   3.107   6.204   4.037
 1303WAT     H2 4152   3.073   6.191   3.878
 1304WAT      O 4153   5.523   1.758   0.512
 1304WAT     H1 4154   5.451   1.794   0.571
 1304WAT     H2 4155   5.606   1.812   0.526
 1305WAT      O 4156   6.542   6.430   4.909
 1305WAT     H1 4157   6.449   6.466   4.901
 1305WAT     H2 4158   6.604   6.504   4.937
 1306WAT      O 4159   6.355   3.157   6.688
 1306WAT     H1 4160   6.293   3.172   6.765
 1306WAT     H2 4161   6.449   3.175   6.718
 1307WAT      O 4162   0.140   8.739   1.037
 1307WAT     H1 4163   0.164   8.707   0.945
 1307WAT     H2 4164   0.112   8.835   1.033
 1308WAT      O 4165   5.836   9.808   6.059
 1308WAT     H1 4166   5.830   9.894   6.010
 1308WAT     H2 4167   5.758   9.750   6.036
 1309WAT      O 4168   9.457   0.411   4.082
 1309WAT     H1 4169   9.409   0.328   4.108
 1309WAT     H2 4170   9.522   0.436   4.154
 1310WAT      O 4171   3.880   2.230   0.307
 1310WAT     H1 4172   3.821   2.216   0.227
 1310WAT     H2 4173   3.968   2.185   0.292
 1311WAT      O 4174   8.753   6.371   2.025
 1311WAT     H1 4175   8.666   6.411   1.995
 1311WAT     H2 4176   8.737   6.279   2.060
 1312WAT      O 4177   0.954   1.626   0.954
 1312WAT     H1 4178   1.022   1.700   0.951
 1312WAT     H2 4179   0.998   1.543   0.988
 1313WAT      O 4180   0.609   5.466   5.151
 1313WAT     H1 4181   0.597   5.437   5.056
 1313WAT     H2 4182   0.665   5.549   5.153
 1314WAT      O 4183   1.265   7.507   8.885
 1314WAT     H1 4184   1.172   7.473   8.898
 1314WAT     H2 4185   1.268   7.604   8.907
 1315WAT      O 4186   3.103   7.144   9.170
 1315WAT     H1 4187   3.180   7.206   9.187
 1315WAT     H2 4188   3.104   7.114   9.075
 1316WAT      O 4189   1.619   8.415   9.311
 1316WAT     H1 4190   1.571   8.393   9.396
 1316WAT     H2 4191   1.613   8.513   9.293
 1317WAT      O 4192   0.288   4.977   5.989
 1317WAT     H1 4193   0.293   5.073   5.962
 1317WAT     H2 4194   0.228   4.928   5.926
 1318WAT      O 4195   1.833   7.945   6.714
 1318WAT     H1 4196   1.866   8.030   6.672
 1318WAT     H2 4197   1.869   7.938   6.807
 1319WAT      O 4198   3.151   1.126   9.823
 1319WAT     H1 4199   3.141   1.027   9.818
 1319WAT     H2 4200   3.126   1.158   9.914
 1320WAT      O 4201   6.374   0.677   6.837
 1320WAT     H1 4202   6.438   0.680   6.760
 1320WAT     H2 4203   6.391   0.754   6.898
 1321WAT      O 4204   3.400   0.095   7.207
 1321WAT     H1 4205   3.450   0.099   7.121
 1321WAT     H2 4206   3.427   0.014   7.258
 1322WAT      O 4207   2.736   3.827   4.746
 1322WAT     H1 4208   2.733   3.895   4.673
 1322WAT     H2 4209   2.691   3.743   4.715
 1323WAT      O 4210   4.047   9.567   7.279
 1323WAT     H1 4211   4.035   9.469   7.298
 1323WAT     H2 4212   4.088   9.612   7.359
 1324WAT      O 4213   3.638   4.897   1.806
 1324WAT     H1 4214   3.671   4.947   1.726
 1324WAT     H2 4215   3.716   4.871   1.863
 1325WAT      O 4216   1.501   8.906   2.814
 1325WAT     H1 4217   1.574   8.839   2.819
 1325WAT     H2 4218   1.535   8.995   2.843
 1326WAT      O 4219   6.049   5.449   0.822
 1326WAT     H1 4220   6.003   5.400   0.897
 1326WAT     H2 4221   6.027   5.405   0.735
 1327WAT      O 4222   6.206   0.352   9.696
 1327WAT     H1 4223   6.239   0.273   9.645
 1327WAT     H2 4224   6.138   0.401   9.641
 1328WAT      O 4225   4.770   4.800   8.270
 1328WAT     H1 4226   4.763   4.854   8.186
 1328WAT     H2 4227   4.805   4.709   8.249
 1329WAT      O 4228   8.768   8.632   6.319
 1329WAT     H1 4229   8.680   8.610   6.361
 1329WAT     H2 4230   8.829   8.671   6.387
 1330WAT      O 4231   7.537   7.675   0.141
 1330WAT     H1 4232   7.461   7.713   0.192
 1330WAT     H2 4233   7.563   7.737   0.067
 1331WAT      O 4234   0.271   9.593   4.738
 1331WAT     H1 4235   0.246   9.496   4.733
 1331WAT     H2 4236   0.272   9.623   4.833
 1332WAT      O 4237   4.906   0.274   7.345
 1332WAT     H1 4238   4.956   0.271   7.432
 1332WAT     H2 4239   4.811   0.299   7.362
 1333WAT      O 4240   8.025   1.506   2.601
 1333WAT     H1 4241   8.086   1.434   2.633
 1333WAT     H2 4242   8.010   1.572   2.675
 1334WAT      O 4243   0.016   2.157   3.198
 1334WAT     H1 4244   0.086   2.169   3.128
 1334WAT     H2 4245  -0.035   2.073   3.180
 1335WAT      O 4246   7.552   9.001   4.710
 1335WAT     H1 4247   7.505   8.998   4.798
 1335WAT     H2 4248   7.585   9.094   4.694
 1336WAT      O 4249   6.233   4.726   9.309
 1336WAT     H1 4250   6.253   4.729   9.211
 1336WAT     H2 4251   6.318   4.712   9.360
 1337WAT      O 4252   3.646   8.024   0.690
 1337WAT     H1 4253   3.730   8.043   0.639
 1337WAT     H2 4254   3.612   8.109   0.730
 1338WAT      O 4255   5.210   1.699   4.575
 1338WAT     H1 4256   5.294   1.747   4.600
 1338WAT     H2 4257   5.192   1.714   4.477
 1339WAT      O 4258   5.712   9.363   9.213
 1339WAT     H1 4259   5.713   9.306   9.295
 1339WAT     H2 4260   5.628   9.417   9.211
 1340WAT      O 4261   3.626   6.650   3.655
 1340WAT     H1 4262   3.633   6.550   3.659
 1340WAT     H2 4263   3.545   6.680   3.705
 1341WAT      O 4264   3.463   5.335   6.748
 1341WAT     H1 4265   3.461   5.434   6.764
 1341WAT     H2 4266   3.393   5.311   6.680
 1342WAT      O 4267   6.657   8.997   0.355
 1342WAT     H1 4268   6.612   8.931   0.415
 1342WAT     H2 4269   6.636   8.977   0.260
 1343WAT      O 4270   0.484   7.084   3.306
 1343WAT     H1 4271   0.562   7.147   3.314
 1343WAT     H2 4272   0.411   7.128   3.254
 1344WAT      O 4273   0.083   2.157   6.879
 1344WAT     H1 4274   0.110   2.125   6.970
 1344WAT     H2 4275   0.165   2.165   6.822
 1345WAT      O 4276   1.786  -0.005   9.438
 1345WAT     H1 4277   1.751   0.087   9.419
 1345WAT     H2 4278   1.812  -0.010   9.535
 1346WAT      O 4279   4.394   1.254   7.742
 1346WAT     H1 4280   4.395   1.186   7.668
 1346WAT     H2 4281   4.411   1.345   7.704
 1347WAT      O 4282   2.400   4.200   9.606
 1347WAT     H1 4283   2.456   4.283   9.604
 1347WAT     H2 4284   2.316   4.214   9.553
 1348WAT      O 4285   4.857   6.621   2.233
 1348WAT     H1 4286   4.888   6.568   2.311
 1348WAT     H2 4287   4.919   6.607   2.156
 1349WAT      O 4288   1.586   7.258   1.283
 1349WAT     H1 4289   1.677   7.230   1.316
 1349WAT     H2 4290   1.559   7.344   1.326
 1350WAT      O 4291   0.123   4.909   9.058
 1350WAT     H1 4292   0.196   4.844   9.081
 1350WAT     H2 4293   0.162   5.000   9.048
 1351WAT      O 4294   1.515   4.898   4.392
 1351WAT     H1 4295   1.520   4.979   4.450
 1351WAT     H2 4296   1.554   4.918   4.302
 1352WAT      O 4297   7.432   6.599   7.222
 1352WAT     H1 4298   7.481   6.654   7.290
 1352WAT     H2 4299   7.344   6.571   7.260
 1353WAT      O 4300   5.599   2.643   4.423
 1353WAT     H1 4301   5.579   2.646   4.521
 1353WAT     H2 4302   5.698   2.637   4.409
 1354WAT      O 4303   8.289   2.455   4.722
 1354WAT     H1 4304   8.341   2.421   4.644
 1354WAT     H2 4305   8.306   2.397   4.801
 1355WAT      O 4306   6.891   5.518   5.331
 1355WAT     H1 4307   6.949   5.567   5.397
 1355WAT     H2 4308   6.818   5.578   5.301
 1356WAT      O 4309   7.090   3.446   8.505
 1356WAT     H1 4310   7.024   3.484   8.571
 1356WAT     H2 4311   7.042   3.421   8.421
 1357WAT      O 4312   5.391   3.192   5.567
 1357WAT     H1 4313   5.338   3.259   5.514
 1357WAT     H2 4314   5.406   3.227   5.659
 1358WAT      O 4315   0.067   3.902   6.686
 1358WAT     H1 4316   0.081   3.924   6.590
 1358WAT     H2 4317  -0.030   3.882   6.702
 1359WAT      O 4318   3.021   8.213   2.046
 1359WAT     H1 4319   3.019   8.247   2.140
 1359WAT     H2 4320   2.933   8.231   2.002
 1360WAT      O 4321   5.802   6.944   6.702
 1360WAT     H1 4322   5.738   6.936   6.779
 1360WAT     H2 4323   5.833   6.853   6.675
 1361WAT      O 4324   6.538   2.955   3.283
 1361WAT     H1 4325   6.592   2.980   3.203
 1361WAT     H2 4326   6.542   3.029   3.350
 1362WAT      O 4327   5.449   3.565   6.196
 1362WAT     H1 4328   5.440   3.614   6.283
 1362WAT     H2 4329   5.540   3.583   6.157
 1363WAT      O 4330   1.013   1.018   7.424
 1363WAT     H1 4331   1.011   1.061   7.514
 1363WAT     H2 4332   0.920   1.009   7.389
 1364WAT      O 4333   3.279   4.309   8.170
 1364WAT     H1 4334   3.193   4.264   8.195
 1364WAT     H2 4335   3.350   4.239   8.156
 1365WAT      O 4336   8.798   9.402   2.275
 1365WAT     H1 4337   8.712   9.452   2.285
 1365WAT     H2 4338   8.798   9.322   2.334
 1366WAT      O 4339   7.802   3.412   6.468
 1366WAT     H1 4340   7.703   3.420   6.452
 1366WAT     H2 4341   7.822   3.323   6.509
 1367WAT      O 4342   9.111   5.941   4.784
 1367WAT     H1 4343   9.192   5.946   4.842
 1367WAT     H2 4344   9.039   5.889   4.831
 1368WAT      O 4345   2.657   2.590   0.272
 1368WAT     H1 4346   2.707   2.648   0.208
 1368WAT     H2 4347   2.569   2.564   0.232
 1369WAT      O 4348   7.480   2.667   2.831
 1369WAT     H1 4349   7.422   2.744   2.858
 1369WAT     H2 4350   7.524   2.629   2.912
 1370WAT      O 4351   0.252   4.440   2.796
 1370WAT     H1 4352   0.231   4.344   2.775
 1370WAT     H2 4353   0.210   4.499   2.727
 1371WAT      O 4354   2.192   8.032   2.743
 1371WAT     H1 4355   2.291   8.029   2.730
 1371WAT     H2 4356   2.155   7.939   2.739
 1372WAT      O 4357   4.451   7.051   9.631
 1372WAT     H1 4358   4.419   7.133   9.582
 1372WAT     H2 4359   4.502   7.079   9.712
 1373WAT      O 4360   0.555   7.527   0.863
 1373WAT     H1 4361   0.615   7.451   0.837
 1373WAT     H2 4362   0.488   7.495   0.931
 1374WAT      O 4363   2.405   7.089   1.508
 1374WAT     H1 4364   2.431   7.001   1.470
 1374WAT     H2 4365   2.403   7.083   1.608
 1375WAT      O 4366   9.608   9.579   2.693
 1375WAT     H1 4367   9.670   9.627   2.756
 1375WAT     H2 4368   9.543   9.525   2.746
 1376WAT      O 4369   9.415   8.953   2.708
 1376WAT     H1 4370   9.473   9.004   2.644
 1376WAT     H2 4371   9.338   8.913   2.658
 1377WAT      O 4372   1.202   3.070   8.092
 1377WAT     H1 4373   1.214   3.013   8.173
 1377WAT     H2 4374   1.154   3.019   8.021
 1378WAT      O 4375   4.907   6.227   8.384
 1378WAT     H1 4376   4.999   6.257   8.359
 1378WAT     H2 4377   4.910   6.133   8.416
 1379WAT      O 4378   2.276   7.466   2.354
 1379WAT     H1 4379   2.303   7.372   2.374
 1379WAT     H2 4380   2.191   7.465   2.300
 1380WAT      O 4381   3.343   2.609   2.286
 1380WAT     H1 4382   3.343   2.658   2.373
 1380WAT     H2 4383   3.419   2.543   2.285
 1381WAT      O 4384   8.778   3.470   9.577
 1381WAT     H1 4385   8.775   3.570   9.564
 1381WAT     H2 4386   8.788   3.426   9.488
 1382WAT      O 4387   7.768   6.811   3.287
 1382WAT     H1 4388   7.840   6.769   3.232
 1382WAT     H2 4389   7.768   6.770   3.379
 1383WAT      O 4390   6.894   0.467   1.403
 1383WAT     H1 4391   6.932   0.554   1.372
 1383WAT     H2 4392   6.804   0.483   1.443
 1384WAT      O 4393   7.382   0.600   1.917
 1384WAT     H1 4394   7.374   0.632   2.011
 1384WAT     H2 4395   7.401   0.502   1.916
 1385WAT      O 4396   6.336   5.435   9.190
 1385WAT     H1 4397   6.375   5.350   9.155
 1385WAT     H2 4398   6.391   5.512   9.157
 1386WAT      O 4399   1.151   8.736   5.232
 1386WAT     H1 4400   1.237   8.765   5.191
 1386WAT     H2 4401   1.147   8.636   5.233
 1387WAT      O 4402   2.918   9.655   3.586
 1387WAT     H1 4403   2.890   9.575   3.533
 1387WAT     H2 4404   2.839   9.715   3.601
 1388WAT      O 4405   9.662   6.033   0.562
 1388WAT     H1 4406   9.706   5.977   0.492
 1388WAT     H2 4407   9.597   5.976   0.613
 1389WAT      O 4408   3.543   2.736   7.694
 1389WAT     H1 4409   3.562   2.811   7.758
 1389WAT     H2 4410   3.614   2.734   7.624
 1390WAT      O 4411   8.706   4.493   5.654
 1390WAT     H1 4412   8.799   4.471   5.623
 1390WAT     H2 4413   8.643   4.482   5.577
 1391WAT      O 4414   6.299   3.354   4.536
 1391WAT     H1 4415   6.393   3.379   4.560
 1391WAT     H2 4416   6.261   3.422   4.473
 1392WAT      O 4417   6.407   8.216   7.789
 1392WAT     H1 4418   6.396   8.212   7.689
 1392WAT     H2 4419   6.491   8.266   7.811
 1393WAT      O 4420   8.321   2.760   8.978
 1393WAT     H1 4421   8.285   2.713   9.059
 1393WAT     H2 4422   8.327   2.696   8.902
 1394WAT      O 4423   3.523   6.652   3.215
 1394WAT     H1 4424   3.553   6.707   3.137
 1394WAT     H2 4425   3.495   6.713   3.290
 1395WAT      O 4426   5.609   6.840   3.802
 1395WAT     H1 4427   5.612   6.806   3.708
 1395WAT     H2 4428   5.513   6.851   3.830
 1396WAT      O 4429   6.327   0.836   7.080
 1396WAT     H1 4430   6.353   0.930   7.056
 1396WAT     H2 4431   6.361   0.815   7.172
 1397WAT      O 4432   3.056   6.866   2.791
 1397WAT     H1 4433   3.036   6.769   2.776
 1397WAT     H2 4434   3.076   6.910   2.704
 1398WAT      O 4435   4.272   7.455   6.894
 1398WAT     H1 4436   4.356   7.406   6.875
 1398WAT     H2 4437   4.288   7.520   6.969
 1399WAT      O 4438   5.191   9.406   2.831
 1399WAT     H1 4439   5.105   9.425   2.783
 1399WAT     H2 4440   5.247   9.488   2.833
 1400WAT      O 4441   0.288   2.080   5.003
 1400WAT     H1 4442   0.315   2.114   4.913
 1400WAT     H2 4443   0.215   2.138   5.040
 1401WAT      O 4444   1.320   5.254   8.301
 1401WAT     H1 4445   1.279   5.344   8.287
 1401WAT     H2 4446   1.248   5.187   8.318
 1402WAT      O 4447   3.667   0.634   0.856
 1402WAT     H1 4448   3.632   0.578   0.931
 1402WAT     H2 4449   3.729   0.580   0.800
 1403WAT      O 4450   7.693   3.785   5.734
 1403WAT     H1 4451   7.762   3.749   5.671
 1403WAT     H2 4452   7.730   3.865   5.782
 1404WAT      O 4453   5.592   8.269   6.184
 1404WAT     H1 4454   5.527   8.225   6.123
 1404WAT     H2 4455   5.640   8.342   6.135
 1405WAT      O 4456   7.112   0.757   9.813
 1405WAT     H1 4457   7.143   0.845   9.849
 1405WAT     H2 4458   7.168   0.732   9.734
 1406WAT      O 4459   7.318   0.106   7.535
 1406WAT     H1 4460   7.250   0.053   7.584
 1406WAT     H2 4461   7.294   0.203   7.539
 1407WAT      O 4462   9.508   1.661   2.729
 1407WAT     H1 4463   9.501   1.680   2.827
 1407WAT     H2 4464   9.454   1.728   2.678
 1408WAT      O 4465   5.109   3.751   2.343
 1408WAT     H1 4466   5.039   3.746   2.414
 1408WAT     H2 4467   5.065   3.758   2.253
 1409WAT      O 4468   8.416   1.242   6.821
 1409WAT     H1 4469   8.389   1.301   6.746
 1409WAT     H2 4470   8.381   1.278   6.907
 1410WAT      O 4471   5.839   0.286   5.151
 1410WAT     H1 4472   5.823   0.371   5.202
 1410WAT     H2 4473   5.810   0.209   5.207
 1411WAT      O 4474   5.809   6.669   2.334
 1411WAT     H1 4475   5.885   6.607   2.315
 1411WAT     H2 4476   5.723   6.618   2.329
 1412WAT      O 4477   0.033   5.336   8.442
 1412WAT     H1 4478  -0.016   5.250   8.452
 1412WAT     H2 4479  -0.026   5.402   8.395
 1413WAT      O 4480   3.343   6.110   3.558
 1413WAT     H1 4481   3.374   6.059   3.639
 1413WAT     H2 4482   3.280   6.053   3.505
 1414WAT      O 4483   1.288   8.865   1.444
 1414WAT     H1 4484   1.296   8.946   1.386
 1414WAT     H2 4485   1.213   8.879   1.509
 1415WAT      O 4486   2.974   8.910   5.298
 1415WAT     H1 4487   3.072   8.902   5.276
 1415WAT     H2 4488   2.963   8.907   5.398
 1416WAT      O 4489   5.354   5.761   5.734
 1416WAT     H1 4490   5.370   5.684   5.673
 1416WAT     H2 4491   5.347   5.727   5.828
 1417WAT      O 4492   1.127   5.137   7.183
 1417WAT     H1 4493   1.081   5.097   7.104
 1417WAT     H2 4494   1.219   5.099   7.191
 1418WAT      O 4495   2.885   5.040   2.201
 1418WAT     H1 4496   2.970   5.074   2.160
 1418WAT     H2 4497   2.865   5.093   2.284
 1419WAT      O 4498   6.502   7.473   9.595
 1419WAT     H1 4499   6.582   7.470   9.535
 1419WAT     H2 4500   6.449   7.388   9.584
 1420WAT      O 4501   9.772   1.170   1.838
 1420WAT     H1 4502   9.695   1.232   1.824
 1420WAT     H2 4503   9.779   1.107   1.761
 1421WAT      O 4504   6.723   8.682   5.054
 1421WAT     H1 4505   6.742   8.617   4.980
 1421WAT     H2 4506   6.806   8.735   5.073
 1422WAT      O 4507   3.491   7.395   0.543
 1422WAT     H1 4508   3.499   7.427   0.448
 1422WAT     H2 4509   3.450   7.467   0.599
 1423WAT      O 4510   3.245   3.013   8.095
 1423WAT     H1 4511   3.273   2.934   8.040
 1423WAT     H2 4512   3.148   3.031   8.079
 1424WAT      O 4513   8.190   7.510   9.439
 1424WAT     H1 4514   8.234   7.531   9.352
 1424WAT     H2 4515   8.255   7.462   9.499
 1425WAT      O 4516   6.669   6.485   2.358
 1425WAT     H1 4517   6.706   6.434   2.437
 1425WAT     H2 4518   6.660   6.423   2.280
 1426WAT      O 4519   3.951   6.326   6.181
 1426WAT     H1 4520   3.974   6.247   6.124
 1426WAT     H2 4521   3.911   6.397   6.124
 1427WAT      O 4522   3.251   8.705   7.137
 1427WAT     H1 4523   3.191   8.752   7.071
 1427WAT     H2 4524   3.328   8.765   7.160
 1428WAT      O 4525   7.354   6.975   7.339
 1428WAT     H1 4526   7.410   6.895   7.360
 1428WAT     H2 4527   7.405   7.058   7.363
 1429WAT      O 4528   0.010   8.171   1.669
 1429WAT     H1 4529   0.034   8.131   1.757
 1429WAT     H2 4530  -0.065   8.118   1.628
 1430WAT      O 4531   8.924   4.794   9.738
 1430WAT     H1 4532   8.836   4.819   9.778
 1430WAT     H2 4533   8.975   4.876   9.713
 1431WAT      O 4534   9.647   5.872   1.723
 1431WAT     H1 4535   9.567   5.813   1.724
 1431WAT     H2 4536   9.673   5.891   1.628
 1432WAT      O 4537   9.362   3.606   0.178
 1432WAT     H1 4538   9.437   3.660   0.141
 1432WAT     H2 4539   9.282   3.615   0.118
 1433WAT      O 4540   6.141   8.366   1.584
 1433WAT     H1 4541   6.161   8.401   1.493
 1433WAT     H2 4542   6.045   8.338   1.589
 1434WAT      O 4543   0.970   2.609   1.459
 1434WAT     H1 4544   1.034   2.555   1.404
 1434WAT     H2 4545   0.878   2.569   1.453
 1435WAT      O 4546   6.036   2.277   5.400
 1435WAT     H1 4547   6.100   2.294   5.474
 1435WAT     H2 4548   5.970   2.352   5.394
 1436WAT      O 4549   7.222   8.195   4.156
 1436WAT     H1 4550   7.264   8.175   4.244
 1436WAT     H2 4551   7.289   8.242   4.098
 1437WAT      O 4552   0.131   4.343   6.977
 1437WAT     H1 4553   0.223   4.366   6.947
 1437WAT     H2 4554   0.066   4.411   6.943
 1438WAT      O 4555   3.534   1.062   7.948
 1438WAT     H1 4556   3.588   0.991   7.904
 1438WAT     H2 4557   3.444   1.069   7.903
 1439WAT      O 4558   6.003   4.741   4.669
 1439WAT     H1 4559   6.091   4.758   4.715
 1439WAT     H2 4560   5.938   4.811   4.696
 1440WAT      O 4561   8.940   7.016   5.167
 1440WAT     H1 4562   8.974   7.080   5.236
 1440WAT     H2 4563   9.015   6.987   5.108
 1441WAT      O 4564   1.686   3.242   8.226
 1441WAT     H1 4565   1.745   3.309   8.181
 1441WAT     H2 4566   1.618   3.209   8.161
 1442WAT      O 4567   6.347   8.647   6.209
 1442WAT     H1 4568   6.382   8.564   6.253
 1442WAT     H2 4569   6.308   8.707   6.279
 1443WAT      O 4570   8.581   2.420   5.078
 1443WAT     H1 4571   8.642   2.450   5.151
 1443WAT     H2 4572   8.488   2.451   5.098
 1444WAT      O 4573   4.465   7.805   4.707
 1444WAT     H1 4574   4.393   7.786   4.775
 1444WAT     H2 4575   4.431   7.874   4.642
 1445WAT      O 4576   2.002   0.002   6.313
 1445WAT     H1 4577   1.966  -0.070   6.253
 1445WAT     H2 4578   1.984   0.091   6.272
 1446WAT      O 4579   6.555   4.030   4.706
 1446WAT     H1 4580   6.470   4.038   4.655
 1446WAT     H2 4581   6.554   4.092   4.784
 1447WAT      O 4582   5.749   8.476   6.004
 1447WAT     H1 4583   5.843   8.507   6.016
 1447WAT     H2 4584   5.740   8.430   5.916
 1448WAT      O 4585   2.230   7.076   7.127
 1448WAT     H1 4586   2.256   7.152   7.188
 1448WAT     H2 4587   2.282   6.995   7.152
 1449WAT      O 4588   6.476   0.507   5.023
 1449WAT     H1 4589   6.441   0.432   5.080
 1449WAT     H2 4590   6.562   0.540   5.060
 1450WAT      O 4591   2.118   4.892   4.837
 1450WAT     H1 4592   2.160   4.802   4.848
 1450WAT     H2 4593   2.154   4.936   4.755
 1451WAT      O 4594   6.080   5.528   7.016
 1451WAT     H1 4595   6.077   5.600   7.086
 1451WAT     H2 4596   6.175   5.510   6.991
 1452WAT      O 4597   2.856   3.803   4.319
 1452WAT     H1 4598   2.891   3.769   4.232
 1452WAT     H2 4599   2.930   3.846   4.370
 1453WAT      O 4600   9.226   8.334   3.102
 1453WAT     H1 4601   9.132   8.330   3.133
 1453WAT     H2 4602   9.231   8.306   3.006
 1454WAT      O 4603   5.949   0.715   1.576
 1454WAT     H1 4604   5.947   0.716   1.676
 1454WAT     H2 4605   5.953   0.621   1.543
 1455WAT      O 4606   2.436   1.861   5.798
 1455WAT     H1 4607   2.443   1.801   5.718
 1455WAT     H2 4608   2.522   1.858   5.849
 1456WAT      O 4609   3.502   2.788   9.282
 1456WAT     H1 4610   3.564   2.810   9.207
 1456WAT     H2 4611   3.476   2.871   9.330
 1457WAT      O 4612   3.480   6.203   9.197
 1457WAT     H1 4613   3.566   6.250   9.180
 1457WAT     H2 4614   3.415   6.225   9.124
 1458WAT      O 4615   5.933   1.200   7.377
 1458WAT     H1 4616   5.898   1.109   7.356
 1458WAT     H2 4617   5.920   1.219   7.475
 1459WAT      O 4618   1.474   2.277   3.066
 1459WAT     H1 4619   1.548   2.210   3.057
 1459WAT     H2 4620   1.496   2.342   3.138
 1460WAT      O 4621   0.258   4.299   5.136
 1460WAT     H1 4622   0.336   4.265   5.188
 1460WAT     H2 4623   0.184   4.324   5.198
 1461WAT      O 4624   5.801   4.467   0.897
 1461WAT     H1 4625   5.830   4.372   0.888
 1461WAT     H2 4626   5.875   4.521   0.937
 1462WAT      O 4627   6.462   0.438   5.586
 1462WAT     H1 4628   6.475   0.349   5.628
 1462WAT     H2 4629   6.372   0.474   5.610
 1463WAT      O 4630   3.259   6.531   0.304
 1463WAT     H1 4631   3.302   6.620   0.314
 1463WAT     H2 4632   3.323   6.460   0.333
 1464WAT      O 4633   5.794   7.326   2.210
 1464WAT     H1 4634   5.804   7.325   2.309
 1464WAT     H2 4635   5.865   7.384   2.169
 1465WAT      O 4636   5.149   1.395   4.333
 1465WAT     H1 4637   5.075   1.332   4.312
 1465WAT     H2 4638   5.195   1.367   4.418
 1466WAT      O 4639   4.669   1.794   9.123
 1466WAT     H1 4640   4.707   1.878   9.160
 1466WAT     H2 4641   4.743   1.727   9.110
 1467WAT      O 4642   6.349   1.828   0.498
 1467WAT     H1 4643   6.337   1.927   0.508
 1467WAT     H2 4644   6.440   1.809   0.460
 1468WAT      O 4645   3.645   2.284   6.474
 1468WAT     H1 4646   3.658   2.350   6.400
 1468WAT     H2 4647   3.552   2.290   6.509
 1469WAT      O 4648   4.022   1.266   9.669
 1469WAT     H1 4649   3.979   1.290   9.582
 1469WAT     H2 4650   4.009   1.168   9.687
 1470WAT      O 4651   0.704   0.178   4.034
 1470WAT     H1 4652   0.763   0.217   4.106
 1470WAT     H2 4653   0.702   0.079   4.044
 1471WAT      O 4654   7.688   1.194   3.200
 1471WAT     H1 4655   7.723   1.187   3.293
 1471WAT     H2 4656   7.640   1.281   3.188
 1472WAT      O 4657   0.583   9.192   4.435
 1472WAT     H1 4658   0.646   9.208   4.358
 1472WAT     H2 4659   0.634   9.200   4.521
 1473WAT      O 4660   1.406   2.252   8.550
 1473WAT     H1 4661   1.309   2.251   8.525
 1473WAT     H2 4662   1.456   2.189   8.491
 1474WAT      O 4663   0.764   7.787   8.488
 1474WAT     H1 4664   0.671   7.780   8.524
 1474WAT     H2 4665   0.823   7.720   8.534
 1475WAT      O 4666   4.681   0.708   2.685
 1475WAT     H1 4667   4.746   0.741   2.616
 1475WAT     H2 4668   4.731   0.681   2.768
 1476WAT      O 4669   2.484   9.719   9.874
 1476WAT     H1 4670   2.474   9.704   9.776
 1476WAT     H2 4671   2.396   9.744   9.913
 1477WAT      O 4672   6.752   4.862   6.366
 1477WAT     H1 4673   6.721   4.900   6.279
 1477WAT     H2 4674   6.700   4.903   6.441
 1478WAT      O 4675   6.052   7.437   4.248
 1478WAT     H1 4676   6.013   7.366   4.189
 1478WAT     H2 4677   6.041   7.526   4.205
 1479WAT      O 4678   2.748   8.598   0.914
 1479WAT     H1 4679   2.837   8.596   0.959
 1479WAT     H2 4680   2.717   8.504   0.898
 1480WAT      O 4681   0.016   7.290   1.945
 1480WAT     H1 4682  -0.082   7.280   1.960
 1480WAT     H2 4683   0.035   7.298   1.847
 1481WAT      O 4684   0.153   2.690   7.535
 1481WAT     H1 4685   0.150   2.737   7.447
 1481WAT     H2 4686   0.071   2.632   7.544
 1482WAT      O 4687   6.303   1.161   8.755
 1482WAT     H1 4688   6.229   1.174   8.821
 1482WAT     H2 4689   6.264   1.144   8.664
 1483WAT      O 4690   6.691   5.304   9.365
 1483WAT     H1 4691   6.662   5.357   9.286
 1483WAT     H2 4692   6.634   5.222   9.374
 1484WAT      O 4693   8.254   0.018   7.482
 1484WAT     H1 4694   8.316   0.027   7.559
 1484WAT     H2 4695   8.180   0.085   7.491
 1485WAT      O 4696   8.595   9.149   2.073
 1485WAT     H1 4697   8.690   9.179   2.069
 1485WAT     H2 4698   8.585   9.077   2.142
 1486WAT      O 4699   4.793   0.370   2.255
 1486WAT     H1 4700   4.756   0.277   2.260
 1486WAT     H2 4701   4.890   0.366   2.230
 1487WAT      O 4702   4.682   9.094   6.607
 1487WAT     H1 4703   4.643   9.013   6.650
 1487WAT     H2 4704   4.670   9.088   6.508
 1488WAT      O 4705   8.078   8.370   0.793
 1488WAT     H1 4706   8.063   8.276   0.825
 1488WAT     H2 4707   8.157   8.409   0.841
 1489WAT      O 4708   0.349   6.366   2.070
 1489WAT     H1 4709   0.258   6.358   2.111
 1489WAT     H2 4710   0.348   6.434   1.998
 1490WAT      O 4711   0.097   6.302   0.408
 1490WAT     H1 4712   0.027   6.256   0.353
 1490WAT     H2 4713   0.097   6.399   0.387
 1491WAT      O 4714   0.618   7.880   0.611
 1491WAT     H1 4715   0.606   7.937   0.529
 1491WAT     H2 4716   0.539   7.820   0.621
 1492WAT      O 4717   5.551   5.384   4.843
 1492WAT     H1 4718   5.616   5.460   4.850
 1492WAT     H2 4719   5.598   5.304   4.807
 1493WAT      O 4720   9.178   9.451   4.891
 1493WAT     H1 4721   9.236   9.414   4.963
 1493WAT     H2 4722   9.137   9.536   4.921
 1494WAT      O 4723   3.431   4.824   4.800
 1494WAT     H1 4724   3.433   4.737   4.750
 1494WAT     H2 4725   3.519   4.871   4.787
 1495WAT      O 4726   6.938   4.746   3.201
 1495WAT     H1 4727   6.890   4.695   3.272
 1495WAT     H2 4728   6.880   4.820   3.167
 1496WAT      O 4729   1.473   0.426   9.047
 1496WAT     H1 4730   1.570   0.450   9.040
 1496WAT     H2 4731   1.451   0.355   8.980
 1497WAT      O 4732   3.522   0.760   6.763
 1497WAT     H1 4733   3.586   0.837   6.765
 1497WAT     H2 4734   3.468   0.763   6.680
 1498WAT      O 4735   4.556   8.887   6.312
 1498WAT     H1 4736   4.531   8.878   6.216
 1498WAT     H2 4737   4.601   8.803   6.342
 1499WAT      O 4738   6.030   3.149   5.399
 1499WAT     H1 4739   6.039   3.248   5.386
 1499WAT     H2 4740   6.055   3.102   5.315
 1500WAT      O 4741   0.796   1.851   5.406
 1500WAT     H1 4742   0.781   1.844   5.307
 1500WAT     H2 4743   0.744   1.780   5.453
 1501WAT      O 4744   8.113   8.130   9.531
 1501WAT     H1 4745   8.158   8.124   9.442
 1501WAT     H2 4746   8.157   8.202   9.586
 1502WAT      O 4747   1.433   5.798   3.076
 1502WAT     H1 4748   1.476   5.888   3.085
 1502WAT     H2 4749   1.396   5.770   3.165
 1503WAT      O 4750   8.569   1.555   5.666
 1503WAT     H1 4751   8.493   1.617   5.648
 1503WAT     H2 4752   8.631   1.596   5.734
 1504WAT      O 4753   8.214   8.854   0.856
 1504WAT     H1 4754   8.301   8.875   0.812
 1504WAT     H2 4755   8.162   8.791   0.799
 1505WAT      O 4756   0.553   7.756   5.967
 1505WAT     H1 4757   0.589   7.844   5.935
 1505WAT     H2 4758   0.457   7.767   5.994
 1506WAT      O 4759   3.130   3.952   3.950
 1506WAT     H1 4760   3.147   3.856   3.932
 1506WAT     H2 4761   3.031   3.967   3.958
 1507WAT      O 4762   5.044   7.839   0.287
 1507WAT     H1 4763   5.029   7.777   0.210
 1507WAT     H2 4764   4.975   7.911   0.286
 1508WAT      O 4765   5.019   7.903   9.083
 1508WAT     H1 4766   5.045   7.941   8.994
 1508WAT     H2 4767   5.021   7.803   9.079
 1509WAT      O 4768   0.617   3.019   5.522
 1509WAT     H1 4769   0.675   3.063   5.454
 1509WAT     H2 4770   0.564   2.946   5.477
 1510WAT      O 4771   1.234   1.485   5.485
 1510WAT     H1 4772   1.269   1.527   5.568
 1510WAT     H2 4773   1.286   1.401   5.466
 1511WAT      O 4774   7.203   1.585   0.257
 1511WAT     H1 4775   7.145   1.627   0.326
 1511WAT     H2 4776   7.248   1.505   0.296
 1512WAT      O 4777   7.357   9.436   4.981
 1512WAT     H1 4778   7.436   9.400   4.932
 1512WAT     H2 4779   7.326   9.521   4.937
 1513WAT      O 4780   3.727   3.812   5.334
 1513WAT     H1 4781   3.631   3.809   5.308
 1513WAT     H2 4782   3.735   3.824   5.433
 1514WAT      O 4783   8.041   4.509   8.606
 1514WAT     H1 4784   8.057   4.455   8.689
 1514WAT     H2 4785   7.969   4.576   8.623
 1515WAT      O 4786   0.204   8.983   5.235
 1515WAT     H1 4787   0.180   9.001   5.139
 1515WAT     H2 4788   0.256   8.898   5.240
 1516WAT      O 4789   4.380   8.725   4.029
 1516WAT     H1 4790   4.298   8.668   4.017
 1516WAT     H2 4791   4.396   8.776   3.944
 1517WAT      O 4792   5.869   1.727   3.159
 1517WAT     H1 4793   5.903   1.651   3.214
 1517WAT     H2 4794   5.778   1.753   3.191
 1518WAT      O 4795   0.167   2.393   1.339
 1518WAT     H1 4796   0.204   2.464   1.278
 1518WAT     H2 4797   0.224   2.387   1.421
 1519WAT      O 4798   1.955   1.770   0.876
 1519WAT     H1 4799   1.927   1.728   0.963
 1519WAT     H2 4800   1.902   1.730   0.801
 1520WAT      O 4801   6.363   4.791   1.002
 1520WAT     H1 4802   6.306   4.870   1.025
 1520WAT     H2 4803   6.386   4.740   1.085
 1521WAT      O 4804   0.244   1.622   6.827
 1521WAT     H1 4805   0.212   1.550   6.765
 1521WAT     H2 4806   0.344   1.615   6.836
 1522WAT      O 4807   9.049   5.664   6.951
 1522WAT     H1 4808   8.991   5.609   6.890
 1522WAT     H2 4809   9.040   5.761   6.927
 1523WAT      O 4810   6.053   4.637   3.659
 1523WAT     H1 4811   6.009   4.726   3.647
 1523WAT     H2 4812   6.115   4.640   3.737
 1524WAT      O 4813   4.115   2.373   2.885
 1524WAT     H1 4814   4.137   2.314   2.963
 1524WAT     H2 4815   4.016   2.390   2.883
 1525WAT      O 4816   1.665   7.490   4.372
 1525WAT     H1 4817   1.711   7.434   4.441
 1525WAT     H2 4818   1.712   7.482   4.285
 1526WAT      O 4819   3.711   8.646   0.872
 1526WAT     H1 4820   3.619   8.623   0.904
 1526WAT     H2 4821   3.705   8.687   0.781
 1527WAT      O 4822   9.090   7.606   9.540
 1527WAT     H1 4823   9.106   7.510   9.516
 1527WAT     H2 4824   9.064   7.612   9.636
 1528WAT      O 4825   8.525   4.020   2.127
 1528WAT     H1 4826   8.571   3.932   2.122
 1528WAT     H2 4827   8.438   4.015   2.078
 1529WAT      O 4828   1.951   2.470   8.118
 1529WAT     H1 4829   1.852   2.463   8.131
 1529WAT     H2 4830   1.986   2.546   8.172
 1530WAT      O 4831   7.953   3.735   1.901
 1530WAT     H1 4832   7.887   3.785   1.846
 1530WAT     H2 4833   7.928   3.742   1.998
 1531WAT      O 4834   3.617   5.510   4.690
 1531WAT     H1 4835   3.650   5.451   4.616
 1531WAT     H2 4836   3.679   5.502   4.768
 1532WAT      O 4837   4.955   5.418   1.078
 1532WAT     H1 4838   4.882   5.352   1.061
 1532WAT     H2 4839   4.944   5.497   1.018
 1533WAT      O 4840   0.039   9.420   7.924
 1533WAT     H1 4841   0.117   9.461   7.971
 1533WAT     H2 4842   0.054   9.421   7.825
 1534WAT      O 4843   8.291   1.991   2.192
 1534WAT     H1 4844   8.205   2.028   2.157
 1534WAT     H2 4845   8.367   2.045   2.158
 1535WAT      O 4846   4.963   2.797   6.212
 1535WAT     H1 4847   4.888   2.815   6.275
 1535WAT     H2 4848   4.988   2.881   6.164
 1536WAT      O 4849   6.692   5.200   6.545
 1536WAT     H1 4850   6.753   5.259   6.492
 1536WAT     H2 4851   6.713   5.209   6.642
 1537WAT      O 4852   9.794   8.803   4.828
 1537WAT     H1 4853   9.765   8.734   4.763
 1537WAT     H2 4854   9.830   8.882   4.779
 1538WAT      O 4855   7.144   4.349   5.154
 1538WAT     H1 4856   7.107   4.284   5.221
 1538WAT     H2 4857   7.076   4.366   5.083
 1539WAT      O 4858   0.358   3.353   4.677
 1539WAT     H1 4859   0.393   3.311   4.593
 1539WAT     H2 4860   0.392   3.302   4.756
 1540WAT      O 4861   5.998   5.281   3.426
 1540WAT     H1 4862   6.082   5.329   3.401
 1540WAT     H2 4863   5.997   5.191   3.383
 1541WAT      O 4864   8.035   5.216   3.761
 1541WAT     H1 4865   8.069   5.217   3.667
 1541WAT     H2 4866   8.111   5.228   3.825
 1542WAT      O 4867   7.439   9.626   0.349
 1542WAT     H1 4868   7.433   9.708   0.407
 1542WAT     H2 4869   7.450   9.546   0.408
 1543WAT      O 4870   7.954   5.977   5.757
 1543WAT     H1 4871   8.015   5.911   5.802
 1543WAT     H2 4872   7.862   5.968   5.794
 1544WAT      O 4873   8.206   3.484   3.437
 1544WAT     H1 4874   8.296   3.510   3.400
 1544WAT     H2 4875   8.191   3.533   3.523
 1545WAT      O 4876   7.857   0.199   1.592
 1545WAT     H1 4877   7.914   0.210   1.511
 1545WAT     H2 4878   7.771   0.249   1.580
 1546WAT      O 4879   6.883   6.819   8.404
 1546WAT     H1 4880   6.969   6.836   8.357
 1546WAT     H2 4881   6.820   6.770   8.343
 1547WAT      O 4882   6.416   1.065   9.241
 1547WAT     H1 4883   6.408   1.040   9.337
 1547WAT     H2 4884   6.474   0.998   9.194
 1548WAT      O 4885   9.012   2.190   7.112
 1548WAT     H1 4886   8.957   2.198   7.029
 1548WAT     H2 4887   9.014   2.278   7.159
 1549WAT      O 4888   3.024   6.588   4.346
 1549WAT     H1 4889   3.120   6.592   4.373
 1549WAT     H2 4890   2.989   6.681   4.334
 1550WAT      O 4891   9.073   2.974   1.846
 1550WAT     H1 4892   9.136   2.949   1.919
 1550WAT     H2 4893   9.067   2.899   1.780
 1551WAT      O 4894   9.029   3.265   6.511
 1551WAT     H1 4895   9.113   3.233   6.554
 1551WAT     H2 4896   9.026   3.235   6.416
 1552WAT      O 4897   0.449   8.278   0.080
 1552WAT     H1 4898   0.502   8.277  -0.005
 1552WAT     H2 4899   0.397   8.192   0.087
 1553WAT      O 4900   6.914   5.118   9.616
 1553WAT     H1 4901   6.881   5.027   9.589
 1553WAT     H2 4902   6.860   5.187   9.568
 1554WAT      O 4903   0.943   1.114   5.342
 1554WAT     H1 4904   0.966   1.202   5.300
 1554WAT     H2 4905   1.027   1.065   5.365
 1555WAT      O 4906   2.217   5.306   2.671
 1555WAT     H1 4907   2.154   5.235   2.702
 1555WAT     H2 4908   2.294   5.264   2.624
 1556WAT      O 4909   9.362   9.676   2.436
 1556WAT     H1 4910   9.382   9.732   2.517
 1556WAT     H2 4911   9.437   9.683   2.371
 1557WAT      O 4912   3.141   7.716   6.118
 1557WAT     H1 4913   3.076   7.791   6.121
 1557WAT     H2 4914   3.203   7.723   6.197
 1558WAT      O 4915   3.945   3.278   7.181
 1558WAT     H1 4916   3.932   3.182   7.206
 1558WAT     H2 4917   3.956   3.286   7.082
 1559WAT      O 4918   7.444   2.165   2.387
 1559WAT     H1 4919   7.523   2.200   2.437
 1559WAT     H2 4920   7.377   2.128   2.451
 1560WAT      O 4921   6.934   3.776   6.763
 1560WAT     H1 4922   7.032   3.757   6.763
 1560WAT     H2 4923   6.918   3.874   6.769
 1561WAT      O 4924   2.024   6.039   3.134
 1561WAT     H1 4925   1.943   6.014   3.187
 1561WAT     H2 4926   2.055   5.960   3.081
 1562WAT      O 4927   0.006   5.393   8.952
 1562WAT     H1 4928   0.083   5.412   9.013
 1562WAT     H2 4929   0.036   5.402   8.857
 1563WAT      O 4930   9.547   7.154   3.345
 1563WAT     H1 4931   9.514   7.240   3.307
 1563WAT     H2 4932   9.476   7.113   3.402
 1564WAT      O 4933   1.015   0.422   8.899
 1564WAT     H1 4934   1.091   0.395   8.840
 1564WAT     H2 4935   0.937   0.449   8.843
 1565WAT      O 4936   2.724   1.999   6.179
 1565WAT     H1 4937   2.732   1.913   6.229
 1565WAT     H2 4938   2.647   2.051   6.215
 1566WAT      O 4939   4.445   3.698   3.486
 1566WAT     H1 4940   4.432   3.601   3.463
 1566WAT     H2 4941   4.521   3.706   3.550
 1567WAT      O 4942   4.882   7.535   0.857
 1567WAT     H1 4943   4.923   7.512   0.769
 1567WAT     H2 4944   4.877   7.634   0.867
 1568WAT      O 4945   2.145   2.198   5.822
 1568WAT     H1 4946   2.222   2.212   5.884
 1568WAT     H2 4947   2.145   2.104   5.789
 1569WAT      O 4948   4.156   3.510   7.026
 1569WAT     H1 4949   4.194   3.581   6.967
 1569WAT     H2 4950   4.229   3.466   7.078
 1570WAT      O 4951   4.852   0.541   4.965
 1570WAT     H1 4952   4.908   0.461   4.989
 1570WAT     H2 4953   4.891   0.586   4.885
 1571WAT      O 4954   2.942   5.096   0.079
 1571WAT     H1 4955   2.908   5.190   0.078
 1571WAT     H2 4956   2.864   5.033   0.086
 1572WAT      O 4957   8.743   0.721   2.952
 1572WAT     H1 4958   8.647   0.721   2.924
 1572WAT     H2 4959   8.765   0.633   2.995
 1573WAT      O 4960   1.272   0.840   2.293
 1573WAT     H1 4961   1.182   0.820   2.331
 1573WAT     H2 4962   1.340   0.844   2.366
 1574WAT      O 4963   4.453   2.609   5.079
 1574WAT     H1 4964   4.458   2.704   5.109
 1574WAT     H2 4965   4.357   2.581   5.073
 1575WAT      O 4966   2.522   3.954   5.248
 1575WAT     H1 4967   2.508   3.855   5.243
 1575WAT     H2 4968   2.436   4.001   5.231
 1576WAT      O 4969   2.950   6.487   8.831
 1576WAT     H1 4970   2.960   6.508   8.733
 1576WAT     H2 4971   2.913   6.568   8.877
 1577WAT      O 4972   1.052   4.396   7.483
 1577WAT     H1 4973   1.014   4.460   7.416
 1577WAT     H2 4974   0.978   4.354   7.535
 1578WAT      O 4975   9.502   4.337   3.658
 1578WAT     H1 4976   9.507   4.436   3.675
 1578WAT     H2 4977   9.524   4.318   3.563
 1579WAT      O 4978   9.018   7.602   6.563
 1579WAT     H1 4979   9.104   7.638   6.528
 1579WAT     H2 4980   9.015   7.503   6.549
 1580WAT      O 4981   3.861   0.227   4.398
 1580WAT     H1 4982   3.882   0.131   4.378
 1580WAT     H2 4983   3.941   0.283   4.378
 1581WAT      O 4984   3.329   7.114   2.062
 1581WAT     H1 4985   3.384   7.114   1.978
 1581WAT     H2 4986   3.257   7.045   2.054
 1582WAT      O 4987   3.401   3.200   8.802
 1582WAT     H1 4988   3.404   3.197   8.702
 1582WAT     H2 4989   3.329   3.261   8.832
 1583WAT      O 4990   6.073   8.683   3.516
 1583WAT     H1 4991   6.003   8.752   3.534
 1583WAT     H2 4992   6.030   8.602   3.476
 1584WAT      O 4993   1.521   1.940   1.441
 1584WAT     H1 4994   1.566   1.925   1.529
 1584WAT     H2 4995   1.579   1.995   1.382
 1585WAT      O 4996   6.628   3.740   2.972
 1585WAT     H1 4997   6.727   3.743   2.962
 1585WAT     H2 4998   6.600   3.789   3.054
 1586WAT      O 4999   9.669   7.197   8.919
 1586WAT     H1 5000   9.624   7.118   8.877
 1586WAT     H2 5001   9.686   7.180   9.016
 1587WAT      O 5002   1.966   8.029   1.546
 1587WAT     H1 5003   1.999   7.954   1.488
 1587WAT     H2 5004   1.866   8.027   1.548
 1588WAT      O 5005   6.548   1.393   9.525
 1588WAT     H1 5006   6.639   1.431   9.507
 1588WAT     H2 5007   6.556   1.295   9.542
 1589WAT      O 5008   9.670   6.243   6.784
 1589WAT     H1 5009   9.614   6.324   6.767
 1589WAT     H2 5010   9.702   6.244   6.879
 1590WAT      O 5011   2.850   1.361   3.061
 1590WAT     H1 5012   2.809   1.435   3.115
 1590WAT     H2 5013   2.827   1.273   3.102
 1591WAT      O 5014   9.724   7.470   8.171
 1591WAT     H1 5015   9.808   7.524   8.165
 1591WAT     H2 5016   9.689   7.452   8.078
 1592WAT      O 5017   4.111   5.973   0.681
 1592WAT     H1 5018   4.062   6.050   0.722
 1592WAT     H2 5019   4.080   5.888   0.723
 1593WAT      O 5020   6.190   2.878   5.324
 1593WAT     H1 5021   6.119   2.845   5.262
 1593WAT     H2 5022   6.271   2.820   5.315
 1594WAT      O 5023   6.849   3.753   1.603
 1594WAT     H1 5024   6.824   3.667   1.559
 1594WAT     H2 5025   6.835   3.829   1.539
 1595WAT      O 5026   0.954   2.092   1.354
 1595WAT     H1 5027   0.863   2.132   1.360
 1595WAT     H2 5028   1.018   2.159   1.316
 1596WAT      O 5029   2.137   2.772   7.722
 1596WAT     H1 5030   2.145   2.865   7.687
 1596WAT     H2 5031   2.154   2.707   7.648
 1597WAT      O 5032   1.301   1.633   8.008
 1597WAT     H1 5033   1.317   1.649   7.911
 1597WAT     H2 5034   1.367   1.567   8.042
 1598WAT      O 5035   8.819   4.602   0.589
 1598WAT     H1 5036   8.876   4.662   0.646
 1598WAT     H2 5037   8.865   4.514   0.578
 1599WAT      O 5038   8.107   9.712   4.815
 1599WAT     H1 5039   8.102   9.631   4.873
 1599WAT     H2 5040   8.120   9.793   4.871
 1600WAT      O 5041   0.959   7.292   5.112
 1600WAT     H1 5042   0.903   7.231   5.056
 1600WAT     H2 5043   1.043   7.244   5.139
 1601WAT      O 5044   4.264   6.568   3.811
 1601WAT     H1 5045   4.314   6.498   3.863
 1601WAT     H2 5046   4.268   6.547   3.714
 1602WAT      O 5047   7.009   2.003   9.350
 1602WAT     H1 5048   7.089   1.982   9.407
 1602WAT     H2 5049   6.926   1.981   9.400
 1603WAT      O 5050   3.263   0.605   1.327
 1603WAT     H1 5051   3.192   0.577   1.262
 1603WAT     H2 5052   3.223   0.668   1.394
 1604WAT      O 5053   2.160   5.308   7.135
 1604WAT     H1 5054   2.112   5.339   7.053
 1604WAT     H2 5055   2.123   5.220   7.164
 1605WAT      O 5056   3.471   9.000   3.118
 1605WAT     H1 5057   3.427   8.931   3.175
 1605WAT     H2 5058   3.405   9.072   3.097
 1606WAT      O 5059   2.149   4.406   8.252
 1606WAT     H1 5060   2.077   4.365   8.195
 1606WAT     H2 5061   2.123   4.397   8.349
 1607WAT      O 5062   6.605   0.577   0.550
 1607WAT     H1 5063   6.609   0.673   0.578
 1607WAT     H2 5064   6.638   0.519   0.626
 1608WAT      O 5065   6.928   1.379   6.448
 1608WAT     H1 5066   7.009   1.351   6.396
 1608WAT     H2 5067   6.868   1.433   6.388
 1609WAT      O 5068   3.377   7.721   4.864
 1609WAT     H1 5069   3.428   7.652   4.916
 1609WAT     H2 5070   3.439   7.774   4.808
 1610WAT      O 5071   2.959   2.494   2.202
 1610WAT     H1 5072   2.861   2.484   2.218
 1610WAT     H2 5073   2.975   2.568   2.137
 1611WAT      O 5074   4.798   1.278   1.932
 1611WAT     H1 5075   4.736   1.286   2.010
 1611WAT     H2 5076   4.795   1.362   1.879
 1612WAT      O 5077   4.794   5.055   2.329
 1612WAT     H1 5078   4.841   5.069   2.241
 1612WAT     H2 5079   4.825   5.125   2.394
 1613WAT      O 5080   4.353   9.491   2.704
 1613WAT     H1 5081   4.269   9.481   2.651
 1613WAT     H2 5082   4.330   9.517   2.798
 1614WAT      O 5083   7.487   9.612   6.925
 1614WAT     H1 5084   7.546   9.627   7.004
 1614WAT     H2 5085   7.540   9.622   6.841
 1615WAT      O 5086   3.214   0.782   7.524
 1615WAT     H1 5087   3.251   0.723   7.453
 1615WAT     H2 5088   3.205   0.875   7.489
 1616WAT      O 5089   0.407   1.206   1.768
 1616WAT     H1 5090   0.332   1.272   1.778
 1616WAT     H2 5091   0.405   1.142   1.845
 1617WAT      O 5092   5.260   7.770   5.431
 1617WAT     H1 5093   5.185   7.747   5.369
 1617WAT     H2 5094   5.228   7.766   5.526
 1618WAT      O 5095   8.491   9.520   0.245
 1618WAT     H1 5096   8.583   9.560   0.247
 1618WAT     H2 5097   8.434   9.570   0.181
 1619WAT      O 5098   8.016   2.710   8.494
 1619WAT     H1 5099   8.090   2.693   8.429
 1619WAT     H2 5100   7.992   2.807   8.494
 1620WAT      O 5101   7.977   8.911   2.872
 1620WAT     H1 5102   7.943   8.999   2.905
 1620WAT     H2 5103   7.984   8.913   2.773
 1621WAT      O 5104   6.345   1.652   7.421
 1621WAT     H1 5105   6.297   1.652   7.333
 1621WAT     H2 5106   6.416   1.580   7.420
 1622WAT      O 5107   9.098   5.720   1.905
 1622WAT     H1 5108   9.148   5.661   1.969
 1622WAT     H2 5109   9.121   5.694   1.811
 1623WAT      O 5110   7.095   2.143   0.715
 1623WAT     H1 5111   7.149   2.096   0.644
 1623WAT     H2 5112   7.004   2.162   0.679
 1624WAT      O 5113   5.951   5.732   1.917
 1624WAT     H1 5114   6.026   5.674   1.948
 1624WAT     H2 5115   5.954   5.741   1.818
 1625WAT      O 5116   0.261   9.417   9.140
 1625WAT     H1 5117   0.273   9.505   9.094
 1625WAT     H2 5118   0.196   9.428   9.215
 1626WAT      O 5119   9.201   0.426   8.674
 1626WAT     H1 5120   9.133   0.485   8.630
 1626WAT     H2 5121   9.165   0.333   8.679
 1627WAT      O 5122   7.329   1.984   4.204
 1627WAT     H1 5123   7.344   1.958   4.299
 1627WAT     H2 5124   7.295   1.905   4.153
 1628WAT      O 5125   7.244   3.887   2.182
 1628WAT     H1 5126   7.241   3.974   2.231
 1628WAT     H2 5127   7.208   3.899   2.090
 1629WAT      O 5128   1.610   3.818   6.269
 1629WAT     H1 5129   1.629   3.845   6.363
 1629WAT     H2 5130   1.520   3.775   6.264
 1630WAT      O 5131   1.113   1.260   2.084
 1630WAT     H1 5132   1.086   1.205   2.163
 1630WAT     H2 5133   1.038   1.321   2.058
 1631WAT      O 5134   2.240   6.717   1.774
 1631WAT     H1 5135   2.334   6.750   1.786
 1631WAT     H2 5136   2.188   6.785   1.721
 1632WAT      O 5137   1.133   7.362   4.412
 1632WAT     H1 5138   1.072   7.288   4.442
 1632WAT     H2 5139   1.207   7.373   4.479
 1633WAT      O 5140   7.774   0.836   4.431
 1633WAT     H1 5141   7.724   0.749   4.430
 1633WAT     H2 5142   7.709   0.912   4.427
 1634WAT      O 5143   0.091   3.007   7.991
 1634WAT     H1 5144   0.012   2.947   7.980
 1634WAT     H2 5145   0.082   3.086   7.929
 1635WAT      O 5146   3.680   3.149   5.210
 1635WAT     H1 5147   3.675   3.067   5.267
 1635WAT     H2 5148   3.645   3.129   5.119
 1636WAT      O 5149   2.693   3.679   0.680
 1636WAT     H1 5150   2.712   3.743   0.605
 1636WAT     H2 5151   2.688   3.586   0.644
 1637WAT      O 5152   3.153   0.402   5.919
 1637WAT     H1 5153   3.074   0.453   5.884
 1637WAT     H2 5154   3.196   0.454   5.993
 1638WAT      O 5155   2.720   2.217   0.854
 1638WAT     H1 5156   2.681   2.306   0.828
 1638WAT     H2 5157   2.820   2.222   0.851
 1639WAT      O 5158   8.726   3.645   4.938
 1639WAT     H1 5159   8.662   3.642   5.015
 1639WAT     H2 5160   8.810   3.598   4.963
 1640WAT      O 5161   4.653   8.299   3.439
 1640WAT     H1 5162   4.732   8.264   3.389
 1640WAT     H2 5163   4.683   8.333   3.528
 1641WAT      O 5164   8.343   2.740   5.549
 1641WAT     H1 5165   8.381   2.807   5.613
 1641WAT     H2 5166   8.379   2.649   5.571
 1642WAT      O 5167   6.557   0.652   7.697
 1642WAT     H1 5168   6.581   0.744   7.727
 1642WAT     H2 5169   6.613   0.628   7.617
 1643WAT      O 5170   3.459   3.214   7.412
 1643WAT     H1 5171   3.398   3.292   7.431
 1643WAT     H2 5172   3.460   3.153   7.491
 1644WAT      O 5173   0.242   0.311   2.928
 1644WAT     H1 5174   0.184   0.327   2.848
 1644WAT     H2 5175   0.310   0.384   2.935
 1645WAT      O 5176   2.944   2.818   0.871
 1645WAT     H1 5177   2.984   2.907   0.848
 1645WAT     H2 5178   2.854   2.830   0.912
 1646WAT      O 5179   8.980   2.523   1.201
 1646WAT     H1 5180   8.882   2.502   1.204
 1646WAT     H2 5181   9.022   2.473   1.126
 1647WAT      O 5182   3.917   4.479   8.015
 1647WAT     H1 5183   4.006   4.518   8.039
 1647WAT     H2 5184   3.844   4.536   8.053
 1648WAT      O 5185   9.886   0.164   6.804
 1648WAT     H1 5186   9.871   0.209   6.892
 1648WAT     H2 5187   9.821   0.088   6.794
 1649WAT      O 5188   5.855   8.466   7.793
 1649WAT     H1 5189   5.944   8.470   7.748
 1649WAT     H2 5190   5.856   8.523   7.875
 1650WAT      O 5191   0.123   0.057   2.291
 1650WAT     H1 5192   0.170  -0.030   2.304
 1650WAT     H2 5193   0.056   0.048   2.217
 1651WAT      O 5194   4.498   7.534   4.205
 1651WAT     H1 5195   4.477   7.558   4.110
 1651WAT     H2 5196   4.544   7.445   4.207
 1652WAT      O 5197   7.031   4.567   6.870
 1652WAT     H1 5198   7.003   4.602   6.959
 1652WAT     H2 5199   7.125   4.531   6.877
 1653WAT      O 5200   9.168   4.041   3.918
 1653WAT     H1 5201   9.092   4.066   3.977
 1653WAT     H2 5202   9.163   3.943   3.896
 1654WAT      O 5203   3.632   9.391   4.996
 1654WAT     H1 5204   3.566   9.317   5.005
 1654WAT     H2 5205   3.716   9.357   4.953
 1655WAT      O 5206   2.511   1.089   5.308
 1655WAT     H1 5207   2.479   1.032   5.233
 1655WAT     H2 5208   2.597   1.053   5.344
 1656WAT      O 5209   0.302   8.862   3.521
 1656WAT     H1 5210   0.299   8.957   3.552
 1656WAT     H2 5211   0.226   8.811   3.561
 1657WAT      O 5212   8.605   3.954   3.589
 1657WAT     H1 5213   8.628   3.976   3.494
 1657WAT     H2 5214   8.682   3.979   3.648
 1658WAT      O 5215   0.774   7.969   1.702
 1658WAT     H1 5216   0.697   8.020   1.662
 1658WAT     H2 5217   0.741   7.882   1.739
 1659WAT      O 5218   0.164   0.914   6.418
 1659WAT     H1 5219   0.214   0.998   6.398
 1659WAT     H2 5220   0.067   0.927   6.399
 1660WAT      O 5221   5.337   4.802   1.030
 1660WAT     H1 5222   5.379   4.841   0.949
 1660WAT     H2 5223   5.373   4.846   1.112
 1661WAT      O 5224   1.045   7.375   5.474
 1661WAT     H1 5225   0.998   7.457   5.440
 1661WAT     H2 5226   1.001   7.293   5.436
 1662WAT      O 5227   3.189   2.743   3.794
 1662WAT     H1 5228   3.148   2.781   3.711
 1662WAT     H2 5229   3.167   2.801   3.872
 1663WAT      O 5230   7.939   1.177   8.877
 1663WAT     H1 5231   7.975   1.240   8.947
 1663WAT     H2 5232   8.013   1.152   8.814
 1664WAT      O 5233   3.194   6.026   5.150
 1664WAT     H1 5234   3.174   5.989   5.059
 1664WAT     H2 5235   3.289   6.058   5.152
 1665WAT      O 5236   2.683   9.325   1.632
 1665WAT     H1 5237   2.633   9.402   1.594
 1665WAT     H2 5238   2.685   9.332   1.731
 1666WAT      O 5239   0.300   5.644   6.008
 1666WAT     H1 5240   0.284   5.737   5.973
 1666WAT     H2 5241   0.326   5.584   5.932
 1667WAT      O 5242   5.148   0.136   4.430
 1667WAT     H1 5243   5.197   0.052   4.407
 1667WAT     H2 5244   5.214   0.208   4.449
 1668WAT      O 5245   4.165   5.987   4.618
 1668WAT     H1 5246   4.142   5.896   4.651
 1668WAT     H2 5247   4.107   6.054   4.663
 1669WAT      O 5248   1.618   7.441   3.586
 1669WAT     H1 5249   1.661   7.529   3.608
 1669WAT     H2 5250   1.663   7.368   3.638
 1670WAT      O 5251   3.994   7.907   6.091
 1670WAT     H1 5252   4.024   7.970   6.163
 1670WAT     H2 5253   3.905   7.937   6.056
 1671WAT      O 5254   4.842   2.025   4.039
 1671WAT     H1 5255   4.771   1.971   4.084
 1671WAT     H2 5256   4.800   2.096   3.983
 1672WAT      O 5257   3.079   9.594   3.789
 1672WAT     H1 5258   3.027   9.595   3.704
 1672WAT     H2 5259   3.091   9.688   3.822
 1673WAT      O 5260   5.453   4.158   5.435
 1673WAT     H1 5261   5.401   4.213   5.370
 1673WAT     H2 5262   5.390   4.099   5.487
 1674WAT      O 5263   4.363   7.927   7.720
 1674WAT     H1 5264   4.338   7.878   7.804
 1674WAT     H2 5265   4.462   7.941   7.718
 1675WAT      O 5266   7.347   2.595   9.065
 1675WAT     H1 5267   7.349   2.557   9.158
 1675WAT     H2 5268   7.286   2.539   9.008
 1676WAT      O 5269   2.037   9.109   4.842
 1676WAT     H1 5270   2.106   9.044   4.874
 1676WAT     H2 5271   1.946   9.069   4.852
 1677WAT      O 5272   4.144   4.817   4.499
 1677WAT     H1 5273   4.137   4.739   4.562
 1677WAT     H2 5274   4.237   4.853   4.502
 1678WAT      O 5275   2.808   6.329   4.022
 1678WAT     H1 5276   2.723   6.375   3.998
 1678WAT     H2 5277   2.867   6.322   3.941
 1679WAT      O 5278   3.781   2.066   2.279
 1679WAT     H1 5279   3.852   2.020   2.332
 1679WAT     H2 5280   3.800   2.164   2.275
 1680WAT      O 5281   8.414   1.633   9.197
 1680WAT     H1 5282   8.431   1.731   9.206
 1680WAT     H2 5283   8.498   1.589   9.165
 1681WAT      O 5284   1.208   8.425   6.281
 1681WAT     H1 5285   1.172   8.336   6.309
 1681WAT     H2 5286   1.275   8.457   6.348
 1682WAT      O 5287   8.209   1.615   2.457
 1682WAT     H1 5288   8.139   1.569   2.512
 1682WAT     H2 5289   8.275   1.660   2.517
 1683WAT      O 5290   2.579   5.384   6.349
 1683WAT     H1 5291   2.519   5.464   6.343
 1683WAT     H2 5292   2.647   5.388   6.276
 1684WAT      O 5293   4.106   7.605   9.838
 1684WAT     H1 5294   4.071   7.564   9.754
 1684WAT     H2 5295   4.031   7.652   9.885
 1685WAT      O 5296   3.375   5.153   5.009
 1685WAT     H1 5297   3.308   5.102   5.062
 1685WAT     H2 5298   3.328   5.220   4.951
 1686WAT      O 5299   2.128   7.694   6.433
 1686WAT     H1 5300   2.043   7.697   6.485
 1686WAT     H2 5301   2.153   7.786   6.403
 1687WAT      O 5302   2.420   1.680   4.518
 1687WAT     H1 5303   2.499   1.623   4.542
 1687WAT     H2 5304   2.339   1.644   4.563
 1688WAT      O 5305   9.745   9.168   8.572
 1688WAT     H1 5306   9.702   9.087   8.611
 1688WAT     H2 5307   9.679   9.243   8.569
 1689WAT      O 5308   3.626   5.971   5.137
 1689WAT     H1 5309   3.701   5.998   5.197
 1689WAT     H2 5310   3.603   6.047   5.076
 1690WAT      O 5311   3.898   9.794   4.586
 1690WAT     H1 5312   3.897   9.869   4.652
 1690WAT     H2 5313   3.934   9.827   4.499
 1691WAT      O 5314   5.405   3.755   0.738
 1691WAT     H1 5315   5.439   3.849   0.744
 1691WAT     H2 5316   5.319   3.754   0.689
 1692WAT      O 5317   8.051   1.210   6.311
 1692WAT     H1 5318   8.016   1.210   6.405
 1692WAT     H2 5319   7.986   1.162   6.252
 1693WAT      O 5320   3.039   4.222   5.202
 1693WAT     H1 5321   2.942   4.202   5.216
 1693WAT     H2 5322   3.071   4.284   5.274
 1694WAT      O 5323   3.196   8.998   0.287
 1694WAT     H1 5324   3.275   9.051   0.318
 1694WAT     H2 5325   3.118   9.059   0.276
 1695WAT      O 5326   8.073   4.965   7.824
 1695WAT     H1 5327   8.035   5.034   7.885
 1695WAT     H2 5328   8.169   4.948   7.849
 1696WAT      O 5329   7.673   0.276   0.780
 1696WAT     H1 5330   7.656   0.328   0.696
 1696WAT     H2 5331   7.591   0.278   0.838
 1697WAT      O 5332   4.480   4.356   2.033
 1697WAT     H1 5333   4.536   4.316   2.106
 1697WAT     H2 5334   4.519   4.332   1.945
 1698WAT      O 5335   3.694   9.184   5.619
 1698WAT     H1 5336   3.692   9.146   5.527
 1698WAT     H2 5337   3.698   9.283   5.614
 1699WAT      O 5338   1.834   9.572   4.785
 1699WAT     H1 5339   1.850   9.477   4.761
 1699WAT     H2 5340   1.736   9.588   4.797
 1700WAT      O 5341   2.580   9.041   7.880
 1700WAT     H1 5342   2.503   9.104   7.870
 1700WAT     H2 5343   2.564   8.960   7.824
 1701WAT      O 5344   9.388   1.647   4.887
 1701WAT     H1 5345   9.408   1.562   4.838
 1701WAT     H2 5346   9.403   1.633   4.985
 1702WAT      O 5347   0.942   7.188   1.546
 1702WAT     H1 5348   0.972   7.181   1.451
 1702WAT     H2 5349   1.013   7.233   1.600
 1703WAT      O 5350   7.042   7.629   3.969
 1703WAT     H1 5351   7.120   7.633   3.907
 1703WAT     H2 5352   7.001   7.538   3.965
 1704WAT      O 5353   4.760   2.015   9.272
 1704WAT     H1 5354   4.841   2.073   9.264
 1704WAT     H2 5355   4.680   2.065   9.239
 1705WAT      O 5356   9.289   2.985   6.832
 1705WAT     H1 5357   9.345   2.912   6.793
 1705WAT     H2 5358   9.345   3.066   6.849
 1706WAT      O 5359   4.466   3.443   4.640
 1706WAT     H1 5360   4.372   3.419   4.619
 1706WAT     H2 5361   4.528   3.380   4.594
 1707WAT      O 5362   4.437   7.428   0.739
 1707WAT     H1 5363   4.476   7.473   0.820
 1707WAT     H2 5364   4.371   7.489   0.695
 1708WAT      O 5365   7.061   5.913   2.074
 1708WAT     H1 5366   7.062   5.940   2.170
 1708WAT     H2 5367   7.058   5.813   2.066
 1709WAT      O 5368   5.555   1.824   9.385
 1709WAT     H1 5369   5.485   1.867   9.443
 1709WAT     H2 5370   5.643   1.827   9.432
 1710WAT      O 5371   3.376   5.293   6.266
 1710WAT     H1 5372   3.382   5.311   6.168
 1710WAT     H2 5373   3.450   5.232   6.293
 1711WAT      O 5374   3.562   8.947   9.648
 1711WAT     H1 5375   3.571   8.848   9.643
 1711WAT     H2 5376   3.536   8.983   9.559
 1712WAT      O 5377   3.490   2.090   4.980
 1712WAT     H1 5378   3.559   2.027   4.944
 1712WAT     H2 5379   3.498   2.094   5.080
 1713WAT      O 5380   8.156   5.410   5.135
 1713WAT     H1 5381   8.247   5.401   5.177
 1713WAT     H2 5382   8.138   5.331   5.077
 1714WAT      O 5383   5.999   4.881   9.214
 1714WAT     H1 5384   6.041   4.796   9.183
 1714WAT     H2 5385   5.947   4.921   9.138
 1715WAT      O 5386   9.252   6.586   5.109
 1715WAT     H1 5387   9.216   6.662   5.164
 1715WAT     H2 5388   9.324   6.539   5.160
 1716WAT      O 5389   6.011   8.661   3.769
 1716WAT     H1 5390   5.979   8.567   3.765
 1716WAT     H2 5391   6.060   8.684   3.684
 1717WAT      O 5392   5.848   9.606   9.177
 1717WAT     H1 5393   5.816   9.512   9.187
 1717WAT     H2 5394   5.910   9.628   9.253
 1718WAT      O 5395   4.420   8.893   9.600
 1718WAT     H1 5396   4.410   8.839   9.516
 1718WAT     H2 5397   4.331   8.931   9.626
 1719WAT      O 5398   6.726   6.577   3.863
 1719WAT     H1 5399   6.632   6.602   3.837
 1719WAT     H2 5400   6.757   6.502   3.805
 1720WAT      O 5401   1.353   7.201   7.392
 1720WAT     H1 5402   1.317   7.122   7.342
 1720WAT     H2 5403   1.435   7.235   7.346
 1721WAT      O 5404   8.471   1.177   8.194
 1721WAT     H1 5405   8.460   1.277   8.192
 1721WAT     H2 5406   8.461   1.144   8.288
 1722WAT      O 5407   2.517   8.462   7.901
 1722WAT     H1 5408   2.424   8.476   7.935
 1722WAT     H2 5409   2.562   8.391   7.955
 1723WAT      O 5410   8.605   3.311   2.282
 1723WAT     H1 5411   8.508   3.291   2.296
 1723WAT     H2 5412   8.633   3.386   2.342
 1724WAT      O 5413   1.406   0.985   8.032
 1724WAT     H1 5414   1.386   1.047   8.108
 1724WAT     H2 5415   1.324   0.970   7.978
 1725WAT      O 5416   8.518   9.264   9.799
 1725WAT     H1 5417   8.563   9.222   9.878
 1725WAT     H2 5418   8.571   9.343   9.769
 1726WAT      O 5419   5.007   3.314   5.767
 1726WAT     H1 5420   4.917   3.309   5.810
 1726WAT     H2 5421   5.074   3.345   5.834
 1727WAT      O 5422   1.571   3.605   2.387
 1727WAT     H1 5423   1.599   3.680   2.327
 1727WAT     H2 5424   1.487   3.564   2.351
 1728WAT      O 5425   4.939   5.459   5.738
 1728WAT     H1 5426   4.939   5.444   5.640
 1728WAT     H2 5427   4.996   5.538   5.761
 1729WAT      O 5428   4.360   3.321   0.829
 1729WAT     H1 5429   4.379   3.240   0.885
 1729WAT     H2 5430   4.327   3.292   0.739
 1730WAT      O 5431   8.232   8.403   5.736
 1730WAT     H1 5432   8.145   8.371   5.774
 1730WAT     H2 5433   8.273   8.331   5.681
 1731WAT      O 5434   2.141   3.611   7.530
 1731WAT     H1 5435   2.203   3.681   7.564
 1731WAT     H2 5436   2.190   3.550   7.467
 1732WAT      O 5437   3.346   9.530   7.337
 1732WAT     H1 5438   3.255   9.553   7.302
 1732WAT     H2 5439   3.337   9.472   7.418
 1733WAT      O 5440   1.195   9.623   5.011
 1733WAT     H1 5441   1.142   9.539   5.007
 1733WAT     H2 5442   1.157   9.690   4.947
 1734WAT      O 5443   7.402   3.466   7.190
 1734WAT     H1 5444   7.440   3.553   7.223
 1734WAT     H2 5445   7.410   3.397   7.262
 1735WAT      O 5446   4.766   6.609   9.545
 1735WAT     H1 5447   4.716   6.644   9.625
 1735WAT     H2 5448   4.779   6.683   9.479
 1736WAT      O 5449   7.284   0.062   4.844
 1736WAT     H1 5450   7.283   0.152   4.801
 1736WAT     H2 5451   7.312   0.071   4.940
 1737WAT      O 5452   3.698   1.840   0.491
 1737WAT     H1 5453   3.655   1.797   0.412
 1737WAT     H2 5454   3.644   1.819   0.573
 1738WAT      O 5455   8.034   8.492   6.292
 1738WAT     H1 5456   8.121   8.473   6.246
 1738WAT     H2 5457   7.985   8.406   6.308
 1739WAT      O 5458   0.628   1.174   2.643
 1739WAT     H1 5459   0.667   1.211   2.559
 1739WAT     H2 5460   0.692   1.190   2.719
 1740WAT      O 5461   8.367   1.173   5.528
 1740WAT     H1 5462   8.396   1.148   5.435
 1740WAT     H2 5463   8.447   1.197   5.582
 1741WAT      O 5464   8.472   0.348   1.684
 1741WAT     H1 5465   8.456   0.290   1.604
 1741WAT     H2 5466   8.477   0.292   1.766
 1742WAT      O 5467   5.420   2.052   9.863
 1742WAT     H1 5468   5.410   2.031   9.765
 1742WAT     H2 5469   5.513   2.086   9.880
 1743WAT      O 5470   7.107   5.090   7.736
 1743WAT     H1 5471   7.166   5.044   7.669
 1743WAT     H2 5472   7.164   5.129   7.809
 1744WAT      O 5473   3.406   0.975   7.653
 1744WAT     H1 5474   3.374   1.008   7.565
 1744WAT     H2 5475   3.329   0.973   7.718
 1745WAT      O 5476   6.225   2.613   7.032
 1745WAT     H1 5477   6.291   2.674   6.987
 1745WAT     H2 5478   6.133   2.652   7.024
 1746WAT      O 5479   6.030   7.452   7.688
 1746WAT     H1 5480   6.089   7.481   7.764
 1746WAT     H2 5481   6.086   7.412   7.616
 1747WAT      O 5482   8.802   2.139   9.690
 1747WAT     H1 5483   8.732   2.175   9.751
 1747WAT     H2 5484   8.892   2.169   9.722
 1748WAT      O 5485   7.164   1.608   1.180
 1748WAT     H1 5486   7.203   1.694   1.148
 1748WAT     H2 5487   7.107   1.625   1.261
 1749WAT      O 5488   1.334   1.413   2.033
 1749WAT     H1 5489   1.417   1.373   1.994
 1749WAT     H2 5490   1.267   1.340   2.050
 1750WAT      O 5491   8.724   5.821   6.078
 1750WAT     H1 5492   8.819   5.814   6.107
 1750WAT     H2 5493   8.721   5.863   5.987
 1751WAT      O 5494   2.410   5.111   0.786
 1751WAT     H1 5495   2.325   5.059   0.779
 1751WAT     H2 5496   2.396   5.203   0.751
 1752WAT      O 5497   7.133   0.133   1.485
 1752WAT     H1 5498   7.229   0.149   1.507
 1752WAT     H2 5499   7.126   0.088   1.396
 1753WAT      O 5500   2.169   4.697   3.080
 1753WAT     H1 5501   2.199   4.678   2.987
 1753WAT     H2 5502   2.107   4.776   3.080
 1754WAT      O 5503   3.057   8.653   5.649
 1754WAT     H1 5504   3.108   8.581   5.601
 1754WAT     H2 5505   2.961   8.626   5.657
 1755WAT      O 5506   9.756   5.552   3.838
 1755WAT     H1 5507   9.704   5.627   3.879
 1755WAT     H2 5508   9.792   5.493   3.910
 1756WAT      O 5509   1.620   4.751   3.771
 1756WAT     H1 5510   1.610   4.824   3.704
 1756WAT     H2 5511   1.556   4.677   3.750
 1757WAT      O 5512   8.671   3.786   9.727
 1757WAT     H1 5513   8.684   3.795   9.826
 1757WAT     H2 5514   8.760   3.767   9.684
 1758WAT      O 5515   9.516   4.061   9.775
 1758WAT     H1 5516   9.615   4.062   9.763
 1758WAT     H2 5517   9.483   3.967   9.771
 1759WAT      O 5518   0.348   1.293   8.878
 1759WAT     H1 5519   0.346   1.379   8.828
 1759WAT     H2 5520   0.410   1.301   8.956
 1760WAT      O 5521   1.457   0.696   9.326
 1760WAT     H1 5522   1.516   0.748   9.388
 1760WAT     H2 5523   1.482   0.600   9.328
 1761WAT      O 5524   9.174   2.641   9.809
 1761WAT     H1 5525   9.222   2.554   9.806
 1761WAT     H2 5526   9.128   2.656   9.721
 1762WAT      O 5527   3.435   7.603   5.610
 1762WAT     H1 5528   3.429   7.515   5.563
 1762WAT     H2 5529   3.349   7.653   5.598
 1763WAT      O 5530   9.105   3.079   2.596
 1763WAT     H1 5531   9.110   3.170   2.637
 1763WAT     H2 5532   9.035   3.024   2.642
 1764WAT      O 5533   9.585   6.375   3.319
 1764WAT     H1 5534   9.559   6.279   3.326
 1764WAT     H2 5535   9.522   6.422   3.257
 1765WAT      O 5536   8.386   3.271   8.905
 1765WAT     H1 5537   8.353   3.350   8.955
 1765WAT     H2 5538   8.394   3.193   8.967
 1766WAT      O 5539   2.012   5.778   4.946
 1766WAT     H1 5540   2.031   5.739   4.855
 1766WAT     H2 5541   1.957   5.713   4.998
 1767WAT      O 5542   3.708   0.085   2.372
 1767WAT     H1 5543   3.621   0.104   2.326
 1767WAT     H2 5544   3.692   0.021   2.448
 1768WAT      O 5545   5.139   1.910   3.020
 1768WAT     H1 5546   5.060   1.863   3.060
 1768WAT     H2 5547   5.108   1.989   2.968
 1769WAT      O 5548   5.682   0.668   8.775
 1769WAT     H1 5549   5.730   0.737   8.721
 1769WAT     H2 5550   5.719   0.667   8.868
 1770WAT      O 5551   0.798   0.508   1.935
 1770WAT     H1 5552   0.791   0.487   1.838
 1770WAT     H2 5553   0.815   0.423   1.986
 1771WAT      O 5554   0.073   8.085   1.028
 1771WAT     H1 5555   0.060   7.990   1.000
 1771WAT     H2 5556   0.005   8.109   1.097
 1772WAT      O 5557   9.332   5.595   5.545
 1772WAT     H1 5558   9.260   5.641   5.493
 1772WAT     H2 5559   9.317   5.609   5.643
 1773WAT      O 5560   1.147   9.728   6.392
 1773WAT     H1 5561   1.088   9.656   6.355
 1773WAT     H2 5562   1.212   9.688   6.456
 1774WAT      O 5563   3.902   6.627   0.139
 1774WAT     H1 5564   3.968   6.552   0.143
 1774WAT     H2 5565   3.944   6.706   0.093
 1775WAT      O 5566   2.571   5.330   6.039
 1775WAT     H1 5567   2.544   5.419   6.002
 1775WAT     H2 5568   2.663   5.338   6.079
 1776WAT      O 5569   6.980   8.937   9.248
 1776WAT     H1 5570   6.947   9.011   9.189
 1776WAT     H2 5571   7.079   8.946   9.259
 1777WAT      O 5572   1.651   0.796   2.009
 1777WAT     H1 5573   1.589   0.780   1.932
 1777WAT     H2 5574   1.614   0.868   2.067
 1778WAT      O 5575   4.083   3.218   1.083
 1778WAT     H1 5576   4.173   3.181   1.061
 1778WAT     H2 5577   4.044   3.168   1.160
 1779WAT      O 5578   1.621   6.411   4.360
 1779WAT     H1 5579   1.559   6.333   4.349
 1779WAT     H2 5580   1.706   6.380   4.403
 1780WAT      O 5581   7.380   0.341   0.515
 1780WAT     H1 5582   7.322   0.288   0.453
 1780WAT     H2 5583   7.327   0.417   0.553
 1781WAT      O 5584   3.068   9.510   2.200
 1781WAT     H1 5585   3.072   9.510   2.101
 1781WAT     H2 5586   2.988   9.456   2.230
 1782WAT      O 5587   7.830   6.133   2.617
 1782WAT     H1 5588   7.744   6.147   2.665
 1782WAT     H2 5589   7.863   6.040   2.634
 1783WAT      O 5590   2.717   8.487   9.787
 1783WAT     H1 5591   2.803   8.440   9.805
 1783WAT     H2 5592   2.722   8.581   9.821
 1784WAT      O 5593   7.818   7.736   8.890
 1784WAT     H1 5594   7.867   7.769   8.809
 1784WAT     H2 5595   7.883   7.706   8.959
 1785WAT      O 5596   3.320   4.283   2.191
 1785WAT     H1 5597   3.331   4.189   2.224
 1785WAT     H2 5598   3.261   4.284   2.111
 1786WAT      O 5599   3.351   8.242   9.782
 1786WAT     H1 5600   3.327   8.247   9.685
 1786WAT     H2 5601   3.344   8.334   9.822
 1787WAT      O 5602   6.569   7.866   3.912
 1787WAT     H1 5603   6.518   7.787   3.877
 1787WAT     H2 5604   6.556   7.873   4.011
 1788WAT      O 5605   5.358   6.861   3.877
 1788WAT     H1 5606   5.327   6.953   3.854
 1788WAT     H2 5607   5.314   6.795   3.816
 1789WAT      O 5608   4.714   3.059   6.754
 1789WAT     H1 5609   4.665   2.991   6.809
 1789WAT     H2 5610   4.739   3.136   6.812
 1790WAT      O 5611   5.882   4.516   3.506
 1790WAT     H1 5612   5.940   4.457   3.449
 1790WAT     H2 5613   5.929   4.536   3.592
 1791WAT      O 5614   1.941   9.311   1.878
 1791WAT     H1 5615   1.949   9.211   1.889
 1791WAT     H2 5616   1.876   9.331   1.804
 1792WAT      O 5617   3.860   2.860   6.744
 1792WAT     H1 5618   3.934   2.850   6.678
 1792WAT     H2 5619   3.895   2.840   6.836
 1793WAT      O 5620   4.464   7.516   1.647
 1793WAT     H1 5621   4.391   7.582   1.629
 1793WAT     H2 5622   4.551   7.565   1.652
 1794WAT      O 5623   1.311   5.851   8.569
 1794WAT     H1 5624   1.274   5.830   8.659
 1794WAT     H2 5625   1.273   5.938   8.537
 1795WAT      O 5626   4.584   2.211   2.701
 1795WAT     H1 5627   4.669   2.184   2.657
 1795WAT     H2 5628   4.508   2.200   2.638
 1796WAT      O 5629   9.331   7.890   1.643
 1796WAT     H1 5630   9.238   7.855   1.651
 1796WAT     H2 5631   9.328   7.985   1.610
 1797WAT      O 5632   7.399   5.867   9.828
 1797WAT     H1 5633   7.338   5.792   9.855
 1797WAT     H2 5634   7.476   5.830   9.777
 1798WAT      O 5635   9.279   1.794   5.366
 1798WAT     H1 5636   9.238   1.819   5.278
 1798WAT     H2 5637   9.323   1.705   5.358
 1799WAT      O 5638   7.002   5.285   5.660
 1799WAT     H1 5639   7.058   5.326   5.589
 1799WAT     H2 5640   6.937   5.353   5.695
 1800WAT      O 5641   4.800   9.487   3.970
 1800WAT     H1 5642   4.712   9.534   3.971
 1800WAT     H2 5643   4.853   9.516   3.891
 1801WAT      O 5644   1.004   7.016   3.493
 1801WAT     H1 5645   1.071   7.053   3.428
 1801WAT     H2 5646   0.948   7.091   3.529
 1802WAT      O 5647   7.052   3.636   2.819
 1802WAT     H1 5648   7.029   3.660   2.724
 1802WAT     H2 5649   7.069   3.538   2.825
 1803WAT      O 5650   5.863   9.247   2.210
 1803WAT     H1 5651   5.907   9.337   2.200
 1803WAT     H2 5652   5.767   9.254   2.183
 1804WAT      O 5653   7.913   9.725   1.087
 1804WAT     H1 5654   7.824   9.744   1.129
 1804WAT     H2 5655   7.959   9.653   1.139
 1805WAT      O 5656   5.964   1.548   6.046
 1805WAT     H1 5657   5.864   1.549   6.041
 1805WAT     H2 5658   5.993   1.506   6.132
 1806WAT      O 5659   3.234   1.154   2.188
 1806WAT     H1 5660   3.324   1.193   2.169
 1806WAT     H2 5661   3.171   1.228   2.214
 1807WAT      O 5662   9.355   9.622   5.387
 1807WAT     H1 5663   9.319   9.660   5.302
 1807WAT     H2 5664   9.421   9.687   5.426
 1808WAT      O 5665   4.090   4.031   6.945
 1808WAT     H1 5666   4.184   4.005   6.969
 1808WAT     H2 5667   4.057   3.973   6.871
 1809WAT      O 5668   7.244   6.462   6.261
 1809WAT     H1 5669   7.159   6.414   6.243
 1809WAT     H2 5670   7.255   6.475   6.360
 1810WAT      O 5671   8.051   0.335   8.497
 1810WAT     H1 5672   7.977   0.398   8.518
 1810WAT     H2 5673   8.107   0.321   8.579
 1811WAT      O 5674   2.631   2.348   6.638
 1811WAT     H1 5675   2.584   2.407   6.572
 1811WAT     H2 5676   2.702   2.295   6.590
 1812WAT      O 5677   1.758   6.752   0.713
 1812WAT     H1 5678   1.815   6.828   0.742
 1812WAT     H2 5679   1.805   6.666   0.733
 1813WAT      O 5680   2.821   3.533   7.400
 1813WAT     H1 5681   2.824   3.511   7.303
 1813WAT     H2 5682   2.725   3.541   7.429
 1814WAT      O 5683   8.750   1.101   3.514
 1814WAT     H1 5684   8.663   1.096   3.563
 1814WAT     H2 5685   8.753   1.185   3.460
 1815WAT      O 5686   5.813   1.767   2.884
 1815WAT     H1 5687   5.907   1.784   2.853
 1815WAT     H2 5688   5.814   1.741   2.980
 1816WAT      O 5689   3.402   2.176   6.132
 1816WAT     H1 5690   3.405   2.223   6.043
 1816WAT     H2 5691   3.493   2.178   6.173
 1817WAT      O 5692   6.904   6.609   2.426
 1817WAT     H1 5693   6.817   6.629   2.380
 1817WAT     H2 5694   6.918   6.510   2.427
 1818WAT      O 5695   1.950   5.991   9.643
 1818WAT     H1 5696   1.879   5.945   9.589
 1818WAT     H2 5697   1.907   6.034   9.723
 1819WAT      O 5698   4.688   1.747   0.381
 1819WAT     H1 5699   4.657   1.810   0.452
 1819WAT     H2 5700   4.764   1.788   0.331
 1820WAT      O 5701   3.139   8.745   9.617
 1820WAT     H1 5702   3.079   8.685   9.564
 1820WAT     H2 5703   3.106   8.839   9.611
 1821WAT      O 5704   0.504   7.441   4.527
 1821WAT     H1 5705   0.420   7.393   4.502
 1821WAT     H2 5706   0.531   7.416   4.620
 1822WAT      O 5707   6.167   2.428   7.668
 1822WAT     H1 5708   6.100   2.368   7.711
 1822WAT     H2 5709   6.183   2.508   7.726
 1823WAT      O 5710   3.658   4.662   3.795
 1823WAT     H1 5711   3.576   4.679   3.741
 1823WAT     H2 5712   3.644   4.695   3.889
 1824WAT      O 5713   1.335   6.434   1.570
 1824WAT     H1 5714   1.376   6.523   1.591
 1824WAT     H2 5715   1.252   6.447   1.516
 1825WAT      O 5716   0.905   1.810   3.260
 1825WAT     H1 5717   0.925   1.867   3.339
 1825WAT     H2 5718   0.836   1.855   3.203
 1826WAT      O 5719   2.811   8.019   0.692
 1826WAT     H1 5720   2.905   7.987   0.685
 1826WAT     H2 5721   2.808   8.118   0.681
 1827WAT      O 5722   8.887   5.160   3.001
 1827WAT     H1 5723   8.967   5.124   3.050
 1827WAT     H2 5724   8.897   5.142   2.903
 1828WAT      O 5725   0.838   5.469   6.576
 1828WAT     H1 5726   0.768   5.492   6.644
 1828WAT     H2 5727   0.821   5.377   6.541
 1829WAT      O 5728   7.614   4.418   9.440
 1829WAT     H1 5729   7.612   4.429   9.540
 1829WAT     H2 5730   7.626   4.321   9.418
 1830WAT      O 5731   8.903   6.610   4.044
 1830WAT     H1 5732   8.863   6.519   4.036
 1830WAT     H2 5733   8.927   6.645   3.953
 1831WAT      O 5734   4.480   5.941   1.713
 1831WAT     H1 5735   4.554   5.973   1.653
 1831WAT     H2 5736   4.466   6.007   1.787
 1832WAT      O 5737   9.608   4.690   7.283
 1832WAT     H1 5738   9.694   4.681   7.333
 1832WAT     H2 5739   9.533   4.652   7.337
 1833WAT      O 5740   0.917   5.602   5.756
 1833WAT     H1 5741   1.012   5.627   5.736
 1833WAT     H2 5742   0.908   5.581   5.853
 1834WAT      O 5743   7.482   4.501   6.008
 1834WAT     H1 5744   7.425   4.512   5.927
 1834WAT     H2 5745   7.564   4.559   6.000
 1835WAT      O 5746   1.908   3.326   7.402
 1835WAT     H1 5747   1.971   3.352   7.329
 1835WAT     H2 5748   1.817   3.309   7.364
 1836WAT      O 5749   3.927   3.314   4.403
 1836WAT     H1 5750   3.849   3.340   4.460
 1836WAT     H2 5751   3.907   3.334   4.307
 1837WAT      O 5752   7.563   7.036   5.336
 1837WAT     H1 5753   7.468   7.052   5.365
 1837WAT     H2 5754   7.567   6.952   5.282
 1838WAT      O 5755   8.347   2.000   4.779
 1838WAT     H1 5756   8.409   2.072   4.810
 1838WAT     H2 5757   8.292   1.967   4.855
 1839WAT      O 5758   0.650   6.080   3.617
 1839WAT     H1 5759   0.561   6.090   3.573
 1839WAT     H2 5760   0.638   6.065   3.715
 1840WAT      O 5761   9.880   8.206   0.790
 1840WAT     H1 5762   9.848   8.299   0.803
 1840WAT     H2 5763   9.925   8.174   0.874
 1841WAT      O 5764   8.176   6.574   1.709
 1841WAT     H1 5765   8.184   6.490   1.655
 1841WAT     H2 5766   8.115   6.558   1.787
 1842WAT      O 5767   3.844   5.529   5.265
 1842WAT     H1 5768   3.811   5.591   5.194
 1842WAT     H2 5769   3.807   5.557   5.354
 1843WAT      O 5770   6.087   7.967   1.395
 1843WAT     H1 5771   6.134   7.888   1.356
 1843WAT     H2 5772   6.001   7.982   1.345
 1844WAT      O 5773   9.752   2.044   0.494
 1844WAT     H1 5774   9.654   2.027   0.494
 1844WAT     H2 5775   9.798   1.971   0.546
 1845WAT      O 5776   1.372   8.302   9.141
 1845WAT     H1 5777   1.307   8.374   9.116
 1845WAT     H2 5778   1.460   8.322   9.098
 1846WAT      O 5779   3.500   9.742   7.346
 1846WAT     H1 5780   3.450   9.656   7.334
 1846WAT     H2 5781   3.598   9.723   7.350
 1847WAT      O 5782   8.271   2.730   3.436
 1847WAT     H1 5783   8.185   2.778   3.415
 1847WAT     H2 5784   8.318   2.709   3.350
 1848WAT      O 5785   4.148   1.619   7.380
 1848WAT     H1 5786   4.157   1.685   7.454
 1848WAT     H2 5787   4.097   1.539   7.412
 1849WAT      O 5788   3.668   5.508   9.370
 1849WAT     H1 5789   3.730   5.462   9.305
 1849WAT     H2 5790   3.596   5.444   9.397
 1850WAT      O 5791   5.262   8.037   8.368
 1850WAT     H1 5792   5.307   8.107   8.423
 1850WAT     H2 5793   5.228   7.964   8.427
 1851WAT      O 5794   8.950   6.898   3.374
 1851WAT     H1 5795   8.994   6.921   3.461
 1851WAT     H2 5796   8.853   6.922   3.379
 1852WAT      O 5797   4.135   6.088   6.771
 1852WAT     H1 5798   4.081   6.139   6.704
 1852WAT     H2 5799   4.120   6.128   6.862
 1853WAT      O 5800   4.697   8.755   1.940
 1853WAT     H1 5801   4.751   8.837   1.923
 1853WAT     H2 5802   4.738   8.677   1.892
 1854WAT      O 5803   4.603   8.523   3.897
 1854WAT     H1 5804   4.575   8.595   3.834
 1854WAT     H2 5805   4.671   8.464   3.852
 1855WAT      O 5806   7.239   5.109   9.322
 1855WAT     H1 5807   7.239   5.195   9.373
 1855WAT     H2 5808   7.145   5.083   9.299
 1856WAT      O 5809   6.233   2.070   4.723
 1856WAT     H1 5810   6.268   2.010   4.651
 1856WAT     H2 5811   6.135   2.054   4.734
 1857WAT      O 5812   0.141   5.509   7.629
 1857WAT     H1 5813   0.149   5.472   7.721
 1857WAT     H2 5814   0.051   5.487   7.592
 1858WAT      O 5815   9.770   8.432   7.909
 1858WAT     H1 5816   9.719   8.483   7.977
 1858WAT     H2 5817   9.747   8.334   7.916
 1859WAT      O 5818   7.956   2.180   4.221
 1859WAT     H1 5819   7.866   2.140   4.234
 1859WAT     H2 5820   7.975   2.188   4.123
 1860WAT      O 5821   8.020   2.269   8.478
 1860WAT     H1 5822   8.051   2.221   8.560
 1860WAT     H2 5823   8.099   2.297   8.424
 1861WAT      O 5824   0.606   3.243   3.002
 1861WAT     H1 5825   0.581   3.321   2.944
 1861WAT     H2 5826   0.610   3.273   3.097
 1862WAT      O 5827   5.280   1.868   7.024
 1862WAT     H1 5828   5.362   1.873   6.968
 1862WAT     H2 5829   5.238   1.959   7.030
 1863WAT      O 5830   8.715   9.030   4.130
 1863WAT     H1 5831   8.632   8.977   4.116
 1863WAT     H2 5832   8.722   9.055   4.227
 1864WAT      O 5833   5.570   8.458   6.682
 1864WAT     H1 5834   5.617   8.371   6.663
 1864WAT     H2 5835   5.632   8.534   6.662
 1865WAT      O 5836   9.455   5.587   7.691
 1865WAT     H1 5837   9.532   5.533   7.723
 1865WAT     H2 5838   9.412   5.541   7.613
 1866WAT      O 5839   4.640   1.180   0.728
 1866WAT     H1 5840   4.619   1.130   0.644
 1866WAT     H2 5841   4.718   1.240   0.712
 1867WAT      O 5842   9.169   4.805   4.089
 1867WAT     H1 5843   9.144   4.874   4.021
 1867WAT     H2 5844   9.168   4.845   4.180
 1868WAT      O 5845   5.028   6.139   4.925
 1868WAT     H1 5846   5.077   6.182   4.849
 1868WAT     H2 5847   4.976   6.060   4.891
 1869WAT      O 5848   9.611   9.303   9.005
 1869WAT     H1 5849   9.553   9.225   8.981
 1869WAT     H2 5850   9.586   9.381   8.947
 1870WAT      O 5851   2.842   6.227   7.414
 1870WAT     H1 5852   2.828   6.130   7.394
 1870WAT     H2 5853   2.764   6.262   7.466
 1871WAT      O 5854   4.787   9.578   5.582
 1871WAT     H1 5855   4.727   9.630   5.642
 1871WAT     H2 5856   4.818   9.635   5.506
 1872WAT      O 5857   8.806   4.261   7.597
 1872WAT     H1 5858   8.727   4.232   7.543
 1872WAT     H2 5859   8.861   4.325   7.543
 1873WAT      O 5860   6.223   4.633   0.811
 1873WAT     H1 5861   6.286   4.685   0.870
 1873WAT     H2 5862   6.186   4.693   0.740
 1874WAT      O 5863   9.151   0.208   0.804
 1874WAT     H1 5864   9.250   0.202   0.805
 1874WAT     H2 5865   9.111   0.119   0.825
 1875WAT      O 5866   1.082   7.421   0.512
 1875WAT     H1 5867   1.111   7.399   0.419
 1875WAT     H2 5868   1.127   7.504   0.543
 1876WAT      O 5869   9.467   9.495   4.456
 1876WAT     H1 5870   9.493   9.544   4.539
 1876WAT     H2 5871   9.539   9.430   4.432
 1877WAT      O 5872   9.478   7.742   2.778
 1877WAT     H1 5873   9.404   7.748   2.845
 1877WAT     H2 5874   9.506   7.647   2.768
 1878WAT      O 5875   6.945   0.327   0.014
 1878WAT     H1 5876   6.881   0.361  -0.055
 1878WAT     H2 5877   7.036   0.316  -0.028
 1879WAT      O 5878   5.723   0.875   6.803
 1879WAT     H1 5879   5.727   0.920   6.713
 1879WAT     H2 5880   5.777   0.791   6.801
 1880WAT      O 5881   5.924   0.287   0.247
 1880WAT     H1 5882   5.874   0.320   0.167
 1880WAT     H2 5883   5.859   0.250   0.314
 1881WAT      O 5884   8.910   4.005   4.051
 1881WAT     H1 5885   8.834   4.065   4.025
 1881WAT     H2 5886   8.881   3.910   4.046
 1882WAT      O 5887   2.312   3.417   8.222
 1882WAT     H1 5888   2.351   3.496   8.176
 1882WAT     H2 5889   2.213   3.429   8.232
 1883WAT      O 5890   1.923   1.495   7.145
 1883WAT     H1 5891   1.830   1.524   7.127
 1883WAT     H2 5892   1.969   1.475   7.058
 1884WAT      O 5893   9.742   2.865   5.175
 1884WAT     H1 5894   9.801   2.825   5.105
 1884WAT     H2 5895   9.755   2.965   5.175
 1885WAT      O 5896   4.505   2.256   4.643
 1885WAT     H1 5897   4.507   2.157   4.625
 1885WAT     H2 5898   4.554   2.276   4.727
 1886WAT      O 5899   0.888   3.029   7.943
 1886WAT     H1 5900   0.847   2.948   7.986
 1886WAT     H2 5901   0.860   3.111   7.992
 1887WAT      O 5902   1.516   6.865   5.742
 1887WAT     H1 5903   1.587   6.935   5.745
 1887WAT     H2 5904   1.429   6.906   5.712
 1888WAT      O 5905   5.539   4.397   0.855
 1888WAT     H1 5906   5.569   4.301   0.861
 1888WAT     H2 5907   5.610   4.456   0.894
 1889WAT      O 5908   8.052   2.992   0.837
 1889WAT     H1 5909   8.102   3.020   0.919
 1889WAT     H2 5910   7.954   2.988   0.857
 1890WAT      O 5911   1.205   3.274   6.020
 1890WAT     H1 5912   1.233   3.187   5.980
 1890WAT     H2 5913   1.151   3.325   5.952
 1891WAT      O 5914   9.785   7.067   9.431
 1891WAT     H1 5915   9.757   7.079   9.527
 1891WAT     H2 5916   9.885   7.074   9.425
 1892WAT      O 5917   2.832   3.689   5.412
 1892WAT     H1 5918   2.926   3.723   5.409
 1892WAT     H2 5919   2.785   3.717   5.328
 1893WAT      O 5920   5.887   6.014   1.845
 1893WAT     H1 5921   5.922   5.959   1.921
 1893WAT     H2 5922   5.876   5.955   1.764
 1894WAT      O 5923   2.201   5.026   9.550
 1894WAT     H1 5924   2.127   5.060   9.493
 1894WAT     H2 5925   2.185   5.052   9.646
 1895WAT      O 5926   5.563   9.137   8.847
 1895WAT     H1 5927   5.510   9.144   8.763
 1895WAT     H2 5928   5.520   9.071   8.908
 1896WAT      O 5929   6.715   9.454   3.837
 1896WAT     H1 5930   6.687   9.359   3.833
 1896WAT     H2 5931   6.815   9.460   3.831
 1897WAT      O 5932   0.350   3.738   7.676
 1897WAT     H1 5933   0.257   3.745   7.641
 1897WAT     H2 5934   0.411   3.707   7.603
 1898WAT      O 5935   0.491   5.339   9.735
 1898WAT     H1 5936   0.569   5.285   9.702
 1898WAT     H2 5937   0.447   5.291   9.811
 1899WAT      O 5938   7.586   7.725   4.163
 1899WAT     H1 5939   7.522   7.683   4.099
 1899WAT     H2 5940   7.599   7.666   4.242
 1900WAT      O 5941   4.184   8.459   9.795
 1900WAT     H1 5942   4.163   8.555   9.814
 1900WAT     H2 5943   4.281   8.442   9.812
 1901WAT      O 5944   2.191   0.905   1.476
 1901WAT     H1 5945   2.127   0.948   1.412
 1901WAT     H2 5946   2.269   0.869   1.426
 1902WAT      O 5947   8.100   8.919   6.743
 1902WAT     H1 5948   8.199   8.910   6.755
 1902WAT     H2 5949   8.078   9.011   6.713
 1903WAT      O 5950   0.033   0.297   6.397
 1903WAT     H1 5951   0.116   0.333   6.439
 1903WAT     H2 5952  -0.045   0.353   6.427
 1904WAT      O 5953   7.115   2.132   5.556
 1904WAT     H1 5954   7.037   2.176   5.601
 1904WAT     H2 5955   7.132   2.178   5.468
 1905WAT      O 5956   9.878   4.405   5.968
 1905WAT     H1 5957   9.927   4.381   5.884
 1905WAT     H2 5958   9.940   4.449   6.033
 1906WAT      O 5959   4.746   8.057   4.462
 1906WAT     H1 5960   4.681   8.000   4.412
 1906WAT     H2 5961   4.812   8.097   4.398
 1907WAT      O 5962   2.904   5.035   6.270
 1907WAT     H1 5963   2.923   5.132   6.286
 1907WAT     H2 5964   2.921   4.983   6.354
 1908WAT      O 5965   7.727   6.494   9.331
 1908WAT     H1 5966   7.634   6.487   9.368
 1908WAT     H2 5967   7.741   6.585   9.294
 1909WAT      O 5968   7.117   8.250   6.542
 1909WAT     H1 5969   7.137   8.213   6.632
 1909WAT     H2 5970   7.065   8.334   6.550
 1910WAT      O 5971   7.766   8.813   1.780
 1910WAT     H1 5972   7.854   8.824   1.735
 1910WAT     H2 5973   7.772   8.743   1.851
 1911WAT      O 5974   7.411   1.539   1.775
 1911WAT     H1 5975   7.474   1.484   1.719
 1911WAT     H2 5976   7.339   1.480   1.812
 1912WAT      O 5977   1.930   7.246   2.797
 1912WAT     H1 5978   1.944   7.335   2.754
 1912WAT     H2 5979   1.868   7.191   2.741
 1913WAT      O 5980   2.217   1.118   9.532
 1913WAT     H1 5981   2.309   1.079   9.541
 1913WAT     H2 5982   2.163   1.062   9.469
 1914WAT      O 5983   0.057   7.215   0.079
 1914WAT     H1 5984   0.104   7.208  -0.009
 1914WAT     H2 5985   0.035   7.124   0.112
 1915WAT      O 5986   0.526   1.716   6.668
 1915WAT     H1 5987   0.561   1.650   6.601
 1915WAT     H2 5988   0.445   1.762   6.630
 1916WAT      O 5989   5.129   7.527   6.246
 1916WAT     H1 5990   5.046   7.481   6.216
 1916WAT     H2 5991   5.106   7.595   6.317
 1917WAT      O 5992   3.857   9.242   2.758
 1917WAT     H1 5993   3.765   9.232   2.721
 1917WAT     H2 5994   3.873   9.337   2.783
 1918WAT      O 5995   2.607   7.302   6.243
 1918WAT     H1 5996   2.627   7.205   6.254
 1918WAT     H2 5997   2.677   7.344   6.185
 1919WAT      O 5998   4.537   8.564   2.660
 1919WAT     H1 5999   4.443   8.571   2.693
 1919WAT     H2 6000   4.592   8.515   2.727
 1920WAT      O 6001   2.448   8.335   6.321
 1920WAT     H1 6002   2.526   8.319   6.381
 1920WAT     H2 6003   2.414   8.428   6.336
 1921WAT      O 6004   9.101   4.405   2.821
 1921WAT     H1 6005   9.124   4.332   2.756
 1921WAT     H2 6006   9.004   4.399   2.845
 1922WAT      O 6007   1.940   4.498   5.486
 1922WAT     H1 6008   1.927   4.570   5.554
 1922WAT     H2 6009   1.939   4.539   5.394
 1923WAT      O 6010   9.339   7.367   6.942
 1923WAT     H1 6011   9.327   7.275   6.904
 1923WAT     H2 6012   9.427   7.404   6.914
 1924WAT      O 6013   1.623   9.840   8.587
 1924WAT     H1 6014   1.720   9.818   8.575
 1924WAT     H2 6015   1.604   9.928   8.544
 1925WAT      O 6016   0.245   0.282   2.325
 1925WAT     H1 6017   0.290   0.290   2.414
 1925WAT     H2 6018   0.207   0.190   2.316
 1926WAT      O 6019   1.791   9.431   7.069
 1926WAT     H1 6020   1.849   9.363   7.024
 1926WAT     H2 6021   1.777   9.509   7.007
 1927WAT      O 6022   5.481   1.096   9.800
 1927WAT     H1 6023   5.402   1.156   9.789
 1927WAT     H2 6024   5.497   1.080   9.898
 1928WAT      O 6025   2.497   6.204   4.794
 1928WAT     H1 6026   2.406   6.242   4.809
 1928WAT     H2 6027   2.494   6.105   4.807
 1929WAT      O 6028   7.400   3.637   6.210
 1929WAT     H1 6029   7.374   3.542   6.198
 1929WAT     H2 6030   7.320   3.696   6.197
 1930WAT      O 6031   2.699   6.030   0.278
 1930WAT     H1 6032   2.774   5.964   0.267
 1930WAT     H2 6033   2.618   5.982   0.311
 1931WAT      O 6034   1.185   8.946   0.737
 1931WAT     H1 6035   1.183   8.847   0.721
 1931WAT     H2 6036   1.230   8.964   0.824
 1932WAT      O 6037   9.064   8.009   0.069
 1932WAT     H1 6038   9.086   7.990  -0.027
 1932WAT     H2 6039   9.086   7.929   0.125
 1933WAT      O 6040   0.082   2.630   3.426
 1933WAT     H1 6041   0.037   2.566   3.489
 1933WAT     H2 6042   0.145   2.688   3.478
 1934WAT      O 6043   1.292   0.703   6.865
 1934WAT     H1 6044   1.346   0.622   6.888
 1934WAT     H2 6045   1.314   0.732   6.772
 1935WAT      O 6046   8.739   4.524   7.204
 1935WAT     H1 6047   8.804   4.449   7.219
 1935WAT     H2 6048   8.699   4.515   7.113
 1936WAT      O 6049   6.768   7.898   6.051
 1936WAT     H1 6050   6.813   7.952   6.122
 1936WAT     H2 6051   6.761   7.951   5.967
 1937WAT      O 6052   3.875   6.768   9.009
 1937WAT     H1 6053   3.885   6.723   9.097
 1937WAT     H2 6054   3.797   6.729   8.960
 1938WAT      O 6055   7.554   2.446   8.907
 1938WAT     H1 6056   7.506   2.495   8.833
 1938WAT     H2 6057   7.530   2.486   8.995
 1939WAT      O 6058   3.645   1.525   5.046
 1939WAT     H1 6059   3.570   1.460   5.058
 1939WAT     H2 6060   3.691   1.507   4.959
 1940WAT      O 6061   8.525   4.965   5.147
 1940WAT     H1 6062   8.526   5.062   5.169
 1940WAT     H2 6063   8.596   4.945   5.080
 1941WAT      O 6064   0.647   7.346   5.319
 1941WAT     H1 6065   0.734   7.302   5.343
 1941WAT     H2 6066   0.579   7.276   5.298
 1942WAT      O 6067   1.211   5.243   1.978
 1942WAT     H1 6068   1.238   5.267   2.071
 1942WAT     H2 6069   1.255   5.306   1.913
 1943WAT      O 6070   2.320   9.296   9.008
 1943WAT     H1 6071   2.288   9.220   9.065
 1943WAT     H2 6072   2.266   9.300   8.924
 1944WAT      O 6073   2.574   8.947   7.136
 1944WAT     H1 6074   2.534   8.882   7.072
 1944WAT     H2 6075   2.502   8.995   7.186
 1945WAT      O 6076   7.597   5.516   7.836
 1945WAT     H1 6077   7.596   5.501   7.737
 1945WAT     H2 6078   7.503   5.519   7.870
 1946WAT      O 6079   6.855   5.431   6.636
 1946WAT     H1 6080   6.876   5.362   6.705
 1946WAT     H2 6081   6.803   5.506   6.678
 1947WAT      O 6082   5.437   3.464   1.368
 1947WAT     H1 6083   5.506   3.428   1.431
 1947WAT     H2 6084   5.370   3.393   1.349
 1948WAT      O 6085   5.286   2.293   2.138
 1948WAT     H1 6086   5.383   2.309   2.120
 1948WAT     H2 6087   5.275   2.252   2.228
 1949WAT      O 6088   5.921   4.705   9.766
 1949WAT     H1 6089   5.874   4.793   9.775
 1949WAT     H2 6090   6.007   4.719   9.716
 1950WAT      O 6091   7.886   0.355   2.568
 1950WAT     H1 6092   7.974   0.307   2.573
 1950WAT     H2 6093   7.899   0.451   2.595
 1951WAT      O 6094   0.107   2.231   8.847
 1951WAT     H1 6095   0.053   2.190   8.921
 1951WAT     H2 6096   0.193   2.182   8.838
 1952WAT      O 6097   3.621   1.993   8.755
 1952WAT     H1 6098   3.572   2.071   8.794
 1952WAT     H2 6099   3.601   1.911   8.809
 1953WAT      O 6100   1.995   7.120   6.242
 1953WAT     H1 6101   1.951   7.201   6.203
 1953WAT     H2 6102   1.963   7.107   6.336
 1954WAT      O 6103   6.733   8.093   8.659
 1954WAT     H1 6104   6.680   8.017   8.696
 1954WAT     H2 6105   6.818   8.059   8.620
 1955WAT      O 6106   7.492   6.948   1.316
 1955WAT     H1 6107   7.532   7.030   1.358
 1955WAT     H2 6108   7.401   6.971   1.280
 1956WAT      O 6109   9.146   2.435   2.853
 1956WAT     H1 6110   9.093   2.363   2.897
 1956WAT     H2 6111   9.083   2.501   2.810
 1957WAT      O 6112   2.979   3.610   3.814
 1957WAT     H1 6113   3.044   3.658   3.754
 1957WAT     H2 6114   3.005   3.514   3.820
 1958WAT      O 6115   8.629   2.472   7.789
 1958WAT     H1 6116   8.629   2.374   7.771
 1958WAT     H2 6117   8.718   2.500   7.825
 1959WAT      O 6118   2.248   4.184   8.032
 1959WAT     H1 6119   2.159   4.178   8.078
 1959WAT     H2 6120   2.239   4.241   7.950
 1960WAT      O 6121   7.450   3.484   0.414
 1960WAT     H1 6122   7.385   3.507   0.341
 1960WAT     H2 6123   7.476   3.567   0.463
 1961WAT      O 6124   0.066   4.553   7.877
 1961WAT     H1 6125   0.105   4.473   7.922
 1961WAT     H2 6126  -0.025   4.572   7.914
 1962WAT      O 6127   6.614   7.499   0.373
 1962WAT     H1 6128   6.647   7.452   0.455
 1962WAT     H2 6129   6.581   7.590   0.397
 1963WAT      O 6130   8.997   4.307   5.755
 1963WAT     H1 6131   8.951   4.352   5.832
 1963WAT     H2 6132   8.928   4.264   5.697
 1964WAT      O 6133   0.716   7.135   8.249
 1964WAT     H1 6134   0.786   7.183   8.302
 1964WAT     H2 6135   0.626   7.152   8.289
 1965WAT      O 6136   4.596   0.901   1.336
 1965WAT     H1 6137   4.598   0.992   1.294
 1965WAT     H2 6138   4.521   0.848   1.297
 1966WAT      O 6139   6.575   6.954   9.316
 1966WAT     H1 6140   6.476   6.953   9.306
 1966WAT     H2 6141   6.600   6.926   9.409
 1967WAT      O 6142   2.982   7.092   7.436
 1967WAT     H1 6143   2.966   7.143   7.521
 1967WAT     H2 6144   3.038   7.011   7.457
 1968WAT      O 6145   0.275   7.162   4.714
 1968WAT     H1 6146   0.327   7.192   4.795
 1968WAT     H2 6147   0.212   7.235   4.687
 1969WAT      O 6148   9.515   3.200   5.344
 1969WAT     H1 6149   9.546   3.280   5.395
 1969WAT     H2 6150   9.418   3.212   5.320
 1970WAT      O 6151   1.776   1.408   2.185
 1970WAT     H1 6152   1.754   1.312   2.166
 1970WAT     H2 6153   1.783   1.421   2.284
 1971WAT      O 6154   0.795   2.327   8.330
 1971WAT     H1 6155   0.778   2.398   8.262
 1971WAT     H2 6156   0.756   2.240   8.298
 1972WAT      O 6157   4.100   0.806   6.921
 1972WAT     H1 6158   4.035   0.799   6.845
 1972WAT     H2 6159   4.143   0.896   6.920
 1973WAT      O 6160   3.133   7.956   4.840
 1973WAT     H1 6161   3.233   7.951   4.839
 1973WAT     H2 6162   3.095   7.867   4.866
 1974WAT      O 6163   1.303   5.231   0.843
 1974WAT     H1 6164   1.245   5.155   0.814
 1974WAT     H2 6165   1.331   5.217   0.938
 1975WAT      O 6166   1.682   3.780   7.074
 1975WAT     H1 6167   1.714   3.732   7.156
 1975WAT     H2 6168   1.702   3.877   7.082
 1976WAT      O 6169   1.108   2.256   6.327
 1976WAT     H1 6170   1.023   2.268   6.379
 1976WAT     H2 6171   1.186   2.283   6.384
 1977WAT      O 6172   2.572   9.250   9.092
 1977WAT     H1 6173   2.482   9.289   9.071
 1977WAT     H2 6174   2.633   9.323   9.124
 1978WAT      O 6175   1.786   7.941   2.593
 1978WAT     H1 6176   1.698   7.945   2.544
 1978WAT     H2 6177   1.774   7.892   2.679
 1979WAT      O 6178   2.056   2.084   2.844
 1979WAT     H1 6179   2.122   2.047   2.909
 1979WAT     H2 6180   2.068   2.038   2.755
 1980WAT      O 6181   0.166   2.017   8.342
 1980WAT     H1 6182   0.148   1.922   8.320
 1980WAT     H2 6183   0.255   2.044   8.303
 1981WAT      O 6184   0.505   6.808   4.001
 1981WAT     H1 6185   0.428   6.744   4.009
 1981WAT     H2 6186   0.476   6.890   3.952
 1982WAT      O 6187   0.491   2.839   4.070
 1982WAT     H1 6188   0.526   2.928   4.098
 1982WAT     H2 6189   0.403   2.850   4.023
 1983WAT      O 6190   8.161   9.244   5.164
 1983WAT     H1 6191   8.080   9.280   5.211
 1983WAT     H2 6192   8.242   9.293   5.196
 1984WAT      O 6193   3.931   2.944   0.934
 1984WAT     H1 6194   3.950   3.031   0.890
 1984WAT     H2 6195   4.008   2.918   0.992
 1985WAT      O 6196   2.564   7.553   7.675
 1985WAT     H1 6197   2.532   7.640   7.713
 1985WAT     H2 6198   2.575   7.486   7.749
 1986WAT      O 6199   6.483   6.159   9.219
 1986WAT     H1 6200   6.512   6.063   9.218
 1986WAT     H2 6201   6.408   6.172   9.154
 1987WAT      O 6202   4.778   6.475   5.928
 1987WAT     H1 6203   4.792   6.570   5.955
 1987WAT     H2 6204   4.866   6.428   5.922
 1988WAT      O 6205   4.246   0.559   9.757
 1988WAT     H1 6206   4.299   0.643   9.772
 1988WAT     H2 6207   4.300   0.495   9.702
 1989WAT      O 6208   7.941   0.547   6.109
 1989WAT     H1 6209   8.001   0.529   6.188
 1989WAT     H2 6210   7.960   0.480   6.037
 1990WAT      O 6211   0.452   2.427   7.722
 1990WAT     H1 6212   0.511   2.507   7.735
 1990WAT     H2 6213   0.378   2.429   7.789
 1991WAT      O 6214   7.648   3.304   0.472
 1991WAT     H1 6215   7.565   3.356   0.455
 1991WAT     H2 6216   7.699   3.294   0.386
 1992WAT      O 6217   8.110   1.999   2.429
 1992WAT     H1 6218   8.189   1.970   2.375
 1992WAT     H2 6219   8.039   1.929   2.424
 1993WAT      O 6220   0.485   8.750   4.749
 1993WAT     H1 6221   0.576   8.786   4.727
 1993WAT     H2 6222   0.494   8.673   4.812
 1994WAT      O 6223   7.062   4.084   3.684
 1994WAT     H1 6224   7.130   4.085   3.611
 1994WAT     H2 6225   7.064   3.996   3.731
 1995WAT      O 6226   9.092   8.562   6.002
 1995WAT     H1 6227   9.180   8.608   5.988
 1995WAT     H2 6228   9.105   8.485   6.065
 1996WAT      O 6229   2.074   1.776   5.529
 1996WAT     H1 6230   1.988   1.798   5.484
 1996WAT     H2 6231   2.093   1.678   5.518
 1997WAT      O 6232   6.023   6.175   6.194
 1997WAT     H1 6233   6.118   6.203   6.180
 1997WAT     H2 6234   6.003   6.099   6.131
 1998WAT      O 6235   5.841   9.314   4.749
 1998WAT     H1 6236   5.787   9.374   4.808
 1998WAT     H2 6237   5.855   9.358   4.661
 1999WAT      O 6238   6.829   2.965   3.553
 1999WAT     H1 6239   6.790   3.057   3.542
 1999WAT     H2 6240   6.763   2.906   3.598
 2000WAT      O 6241   5.809   2.514   9.415
 2000WAT     H1 6242   5.736   2.467   9.465
 2000WAT     H2 6243   5.802   2.491   9.318
 2001WAT      O 6244   7.998   6.869   4.405
 2001WAT     H1 6245   8.065   6.901   4.337
 2001WAT     H2 6246   7.939   6.944   4.432
 2002WAT      O 6247   0.058   4.793   1.355
 2002WAT     H1 6248   0.101   4.703   1.347
 2002WAT     H2 6249   0.116   4.854   1.409
 2003WAT      O 6250   9.602   7.863   1.142
 2003WAT     H1 6251   9.526   7.828   1.197
 2003WAT     H2 6252   9.585   7.959   1.118
 2004WAT      O 6253   9.033   1.333   0.742
 2004WAT     H1 6254   8.938   1.354   0.723
 2004WAT     H2 6255   9.046   1.320   0.840
 2005WAT      O 6256   9.292   9.688   0.154
 2005WAT     H1 6257   9.278   9.623   0.079
 2005WAT     H2 6258   9.361   9.755   0.126
 2006WAT      O 6259   8.472   2.512   8.506
 2006WAT     H1 6260   8.495   2.420   8.538
 2006WAT     H2 6261   8.545   2.546   8.447
 2007WAT      O 6262   6.538   7.826   6.218
 2007WAT     H1 6263   6.520   7.734   6.184
 2007WAT     H2 6264   6.606   7.870   6.159
 2008WAT      O 6265   1.412   5.545   0.025
 2008WAT     H1 6266   1.452   5.617  -0.032
 2008WAT     H2 6267   1.410   5.459  -0.026
 2009WAT      O 6268   6.677   3.440   4.902
 2009WAT     H1 6269   6.668   3.536   4.875
 2009WAT     H2 6270   6.768   3.424   4.938
 2010WAT      O 6271   7.177   9.375   2.176
 2010WAT     H1 6272   7.200   9.467   2.210
 2010WAT     H2 6273   7.139   9.383   2.084
 2011WAT      O 6274   1.277   2.811   1.392
 2011WAT     H1 6275   1.192   2.859   1.373
 2011WAT     H2 6276   1.307   2.832   1.486
 2012WAT      O 6277   1.254   7.886   1.856
 2012WAT     H1 6278   1.198   7.808   1.828
 2012WAT     H2 6279   1.199   7.948   1.912
 2013WAT      O 6280   4.359   4.164   2.343
 2013WAT     H1 6281   4.289   4.233   2.327
 2013WAT     H2 6282   4.444   4.192   2.297
 2014WAT      O 6283   1.148   4.870   2.685
 2014WAT     H1 6284   1.178   4.856   2.780
 2014WAT     H2 6285   1.187   4.799   2.627
 2015WAT      O 6286   8.045   0.626   4.334
 2015WAT     H1 6287   7.964   0.567   4.334
 2015WAT     H2 6288   8.033   0.699   4.401
 2016WAT      O 6289   3.454   6.706   7.459
 2016WAT     H1 6290   3.484   6.759   7.538
 2016WAT     H2 6291   3.444   6.767   7.380
 2017WAT      O 6292   3.283   7.518   1.488
 2017WAT     H1 6293   3.242   7.610   1.482
 2017WAT     H2 6294   3.348   7.506   1.413
 2018WAT      O 6295   7.240   3.897   7.088
 2018WAT     H1 6296   7.196   3.832   7.026
 2018WAT     H2 6297   7.206   3.990   7.070
 2019WAT      O 6298   5.677   0.312   7.082
 2019WAT     H1 6299   5.647   0.354   7.167
 2019WAT     H2 6300   5.644   0.365   7.004
 2020WAT      O 6301   3.758   9.171   2.501
 2020WAT     H1 6302   3.697   9.203   2.574
 2020WAT     H2 6303   3.804   9.250   2.460
 2021WAT      O 6304   7.817   6.951   5.112
 2021WAT     H1 6305   7.723   6.917   5.106
 2021WAT     H2 6306   7.878   6.877   5.141
 2022WAT      O 6307   8.145   3.622   3.655
 2022WAT     H1 6308   8.069   3.675   3.694
 2022WAT     H2 6309   8.221   3.622   3.718
 2023WAT      O 6310   6.577   0.138   6.235
 2023WAT     H1 6311   6.554   0.213   6.172
 2023WAT     H2 6312   6.635   0.071   6.187
 2024WAT      O 6313   1.437   8.152   4.926
 2024WAT     H1 6314   1.459   8.116   4.836
 2024WAT     H2 6315   1.416   8.077   4.988
 2025WAT      O 6316   1.845   5.083   3.683
 2025WAT     H1 6317   1.885   5.017   3.619
 2025WAT     H2 6318   1.866   5.176   3.652
 2026WAT      O 6319   2.270   6.686   0.221
 2026WAT     H1 6320   2.175   6.655   0.225
 2026WAT     H2 6321   2.302   6.683   0.126
 2027WAT      O 6322   2.639   1.686   5.359
 2027WAT     H1 6323   2.542   1.683   5.336
 2027WAT     H2 6324   2.676   1.777   5.341
 2028WAT      O 6325   3.580   4.183   8.557
 2028WAT     H1 6326   3.523   4.265   8.556
 2028WAT     H2 6327   3.536   4.111   8.503
 2029WAT      O 6328   7.767   0.938   7.393
 2029WAT     H1 6329   7.735   0.934   7.488
 2029WAT     H2 6330   7.867   0.934   7.391
 2030WAT      O 6331   8.269   4.400   4.741
 2030WAT     H1 6332   8.353   4.415   4.793
 2030WAT     H2 6333   8.279   4.319   4.684
 2031WAT      O 6334   5.560   6.250   0.303
 2031WAT     H1 6335   5.478   6.228   0.250
 2031WAT     H2 6336   5.568   6.349   0.313
 2032WAT      O 6337   5.020   0.847   2.677
 2032WAT     H1 6338   5.018   0.800   2.765
 2032WAT     H2 6339   5.093   0.915   2.677
 2033WAT      O 6340   3.844   7.943   2.709
 2033WAT     H1 6341   3.776   7.989   2.652
 2033WAT     H2 6342   3.911   7.897   2.651
 2034WAT      O 6343   7.058   2.935   7.067
 2034WAT     H1 6344   7.004   2.879   7.130
 2034WAT     H2 6345   7.053   3.031   7.093
 2035WAT      O 6346   5.425   9.658   6.992
 2035WAT     H1 6347   5.479   9.586   7.037
 2035WAT     H2 6348   5.482   9.703   6.924
 2036WAT      O 6349   0.286   8.317   4.495
 2036WAT     H1 6350   0.362   8.376   4.470
 2036WAT     H2 6351   0.221   8.368   4.551
 2037WAT      O 6352   0.181   6.679   2.106
 2037WAT     H1 6353   0.253   6.626   2.061
 2037WAT     H2 6354   0.192   6.673   2.205
 2038WAT      O 6355   6.000   3.318   7.990
 2038WAT     H1 6356   6.083   3.263   8.003
 2038WAT     H2 6357   6.024   3.414   7.976
 2039WAT      O 6358   8.252   7.839   9.386
 2039WAT     H1 6359   8.347   7.822   9.359
 2039WAT     H2 6360   8.246   7.848   9.485
 2040WAT      O 6361   4.015   7.521   8.123
 2040WAT     H1 6362   3.993   7.472   8.207
 2040WAT     H2 6363   3.956   7.601   8.115
 2041WAT      O 6364   2.586   9.063   8.890
 2041WAT     H1 6365   2.562   9.137   8.953
 2041WAT     H2 6366   2.682   9.069   8.865
 2042WAT      O 6367   8.531   7.784   9.343
 2042WAT     H1 6368   8.591   7.762   9.420
 2042WAT     H2 6369   8.568   7.862   9.292
 2043WAT      O 6370   6.672   1.056   2.508
 2043WAT     H1 6371   6.639   1.068   2.414
 2043WAT     H2 6372   6.611   1.104   2.571
 2044WAT      O 6373   4.689   3.919   4.807
 2044WAT     H1 6374   4.725   3.924   4.713
 2044WAT     H2 6375   4.745   3.975   4.867
 2045WAT      O 6376   6.013   3.750   8.269
 2045WAT     H1 6377   6.010   3.818   8.342
 2045WAT     H2 6378   5.923   3.706   8.261
 2046WAT      O 6379   7.061   5.930   1.779
 2046WAT     H1 6380   7.139   5.980   1.741
 2046WAT     H2 6381   7.064   5.936   1.879
 2047WAT      O 6382   1.967   3.949   1.759
 2047WAT     H1 6383   1.989   4.027   1.817
 2047WAT     H2 6384   2.008   3.866   1.797
 2048WAT      O 6385   1.783   4.047   9.696
 2048WAT     H1 6386   1.761   4.144   9.705
 2048WAT     H2 6387   1.754   3.998   9.779
 2049WAT      O 6388   2.658   1.820   6.672
 2049WAT     H1 6389   2.753   1.831   6.702
 2049WAT     H2 6390   2.605   1.776   6.744
 2050WAT      O 6391   1.430   6.176   7.042
 2050WAT     H1 6392   1.357   6.182   7.109
 2050WAT     H2 6393   1.485   6.259   7.045
 2051WAT      O 6394   3.373   1.086   5.315
 2051WAT     H1 6395   3.301   1.155   5.306
 2051WAT     H2 6396   3.449   1.111   5.254
 2052WAT      O 6397   6.938   2.211   4.745
 2052WAT     H1 6398   6.890   2.269   4.679
 2052WAT     H2 6399   6.876   2.190   4.821
 2053WAT      O 6400   6.206   8.221   8.936
 2053WAT     H1 6401   6.183   8.156   8.864
 2053WAT     H2 6402   6.227   8.172   9.020
 2054WAT      O 6403   7.168   1.626   5.074
 2054WAT     H1 6404   7.093   1.578   5.028
 2054WAT     H2 6405   7.227   1.559   5.119
 2055WAT      O 6406   9.164   8.848   7.887
 2055WAT     H1 6407   9.171   8.775   7.820
 2055WAT     H2 6408   9.068   8.862   7.911
 2056WAT      O 6409   5.342   0.346   4.458
 2056WAT     H1 6410   5.314   0.438   4.486
 2056WAT     H2 6411   5.424   0.319   4.508
 2057WAT      O 6412   5.105   0.034   8.675
 2057WAT     H1 6413   5.162  -0.043   8.644
 2057WAT     H2 6414   5.027  -0.002   8.726
 2058WAT      O 6415   6.750   0.107   6.647
 2058WAT     H1 6416   6.756   0.155   6.559
 2058WAT     H2 6417   6.660   0.064   6.655
 2059WAT      O 6418   1.986   7.512   0.293
 2059WAT     H1 6419   1.917   7.552   0.352
 2059WAT     H2 6420   2.019   7.580   0.228
 2060WAT      O 6421   2.768   3.307   3.468
 2060WAT     H1 6422   2.826   3.291   3.547
 2060WAT     H2 6423   2.709   3.386   3.485
 2061WAT      O 6424   7.509   7.134   1.078
 2061WAT     H1 6425   7.551   7.159   1.165
 2061WAT     H2 6426   7.430   7.075   1.095
 2062WAT      O 6427   2.720   4.079   9.592
 2062WAT     H1 6428   2.642   4.017   9.588
 2062WAT     H2 6429   2.715   4.144   9.516
 2063WAT      O 6430   7.374   9.384   8.146
 2063WAT     H1 6431   7.344   9.471   8.185
 2063WAT     H2 6432   7.387   9.394   8.047
 2064WAT      O 6433   7.029   5.994   6.375
 2064WAT     H1 6434   7.054   5.904   6.338
 2064WAT     H2 6435   6.944   5.986   6.427
 2065WAT      O 6436   9.215   9.698   1.654
 2065WAT     H1 6437   9.226   9.643   1.737
 2065WAT     H2 6438   9.238   9.643   1.574
 2066WAT      O 6439   2.648   9.821   6.737
 2066WAT     H1 6440   2.742   9.823   6.703
 2066WAT     H2 6441   2.644   9.865   6.827
 2067WAT      O 6442   3.197   6.655   2.248
 2067WAT     H1 6443   3.174   6.559   2.232
 2067WAT     H2 6444   3.126   6.696   2.306
 2068WAT      O 6445   8.916   9.644   2.225
 2068WAT     H1 6446   8.990   9.664   2.161
 2068WAT     H2 6447   8.915   9.547   2.247
 2069WAT      O 6448   0.807   9.831   3.809
 2069WAT     H1 6449   0.835   9.764   3.740
 2069WAT     H2 6450   0.725   9.878   3.777
 2070WAT      O 6451   2.409   1.425   4.019
 2070WAT     H1 6452   2.425   1.371   3.937
 2070WAT     H2 6453   2.470   1.505   4.019
 2071WAT      O 6454   5.604   6.914   1.359
 2071WAT     H1 6455   5.580   6.832   1.307
 2071WAT     H2 6456   5.568   6.995   1.313
 2072WAT      O 6457   8.754   7.101   4.986
 2072WAT     H1 6458   8.818   7.064   5.053
 2072WAT     H2 6459   8.800   7.112   4.898
 2073WAT      O 6460   5.623   6.997   2.397
 2073WAT     H1 6461   5.662   6.948   2.319
 2073WAT     H2 6462   5.543   7.049   2.367
 2074WAT      O 6463   0.727   5.828   0.322
 2074WAT     H1 6464   0.784   5.837   0.240
 2074WAT     H2 6465   0.748   5.742   0.368
 2075WAT      O 6466   8.528   3.456   3.050
 2075WAT     H1 6467   8.591   3.523   3.089
 2075WAT     H2 6468   8.436   3.495   3.048
 2076WAT      O 6469   0.959   8.928   5.229
 2076WAT     H1 6470   1.018   8.847   5.227
 2076WAT     H2 6471   0.949   8.960   5.323
 2077WAT      O 6472   2.898   3.451   2.981
 2077WAT     H1 6473   2.899   3.400   2.894
 2077WAT     H2 6474   2.842   3.533   2.970
 2078WAT      O 6475   2.249   8.099   0.870
 2078WAT     H1 6476   2.293   8.175   0.918
 2078WAT     H2 6477   2.319   8.039   0.831
 2079WAT      O 6478   1.167   3.529   3.213
 2079WAT     H1 6479   1.160   3.456   3.145
 2079WAT     H2 6480   1.088   3.590   3.205
 2080WAT      O 6481   8.645   3.311   8.737
 2080WAT     H1 6482   8.692   3.267   8.814
 2080WAT     H2 6483   8.548   3.322   8.760
 2081WAT      O 6484   5.628   9.326   2.135
 2081WAT     H1 6485   5.528   9.316   2.139
 2081WAT     H2 6486   5.651   9.403   2.075
 2082WAT      O 6487   1.780   1.698   7.746
 2082WAT     H1 6488   1.747   1.705   7.840
 2082WAT     H2 6489   1.880   1.700   7.746
 2083WAT      O 6490   8.987   3.640   3.158
 2083WAT     H1 6491   8.997   3.693   3.073
 2083WAT     H2 6492   8.942   3.695   3.227
 2084WAT      O 6493   6.599   0.995   5.260
 2084WAT     H1 6494   6.560   0.980   5.351
 2084WAT     H2 6495   6.615   1.092   5.246
 2085WAT      O 6496   0.902   9.562   3.371
 2085WAT     H1 6497   0.916   9.469   3.405
 2085WAT     H2 6498   0.806   9.573   3.344
 2086WAT      O 6499   1.682   3.823   8.085
 2086WAT     H1 6500   1.601   3.880   8.074
 2086WAT     H2 6501   1.734   3.822   7.999
 2087WAT      O 6502   9.654   4.324   7.952
 2087WAT     H1 6503   9.685   4.376   8.031
 2087WAT     H2 6504   9.583   4.259   7.980
 2088WAT      O 6505   7.981   3.688   0.332
 2088WAT     H1 6506   8.036   3.605   0.334
 2088WAT     H2 6507   7.887   3.664   0.306
 2089WAT      O 6508   6.550   9.437   5.227
 2089WAT     H1 6509   6.547   9.365   5.297
 2089WAT     H2 6510   6.645   9.465   5.212
 2090WAT      O 6511   6.324   5.542   9.824
 2090WAT     H1 6512   6.311   5.474   9.897
 2090WAT     H2 6513   6.264   5.521   9.747
 2091WAT      O 6514   9.714   5.128   9.469
 2091WAT     H1 6515   9.631   5.113   9.416
 2091WAT     H2 6516   9.764   5.207   9.432
 2092WAT      O 6517   8.471   4.499   6.045
 2092WAT     H1 6518   8.465   4.448   5.959
 2092WAT     H2 6519   8.553   4.556   6.044
 2093WAT      O 6520   4.637   6.858   1.702
 2093WAT     H1 6521   4.706   6.816   1.761
 2093WAT     H2 6522   4.652   6.829   1.607
 2094WAT      O 6523   3.788   1.978   3.028
 2094WAT     H1 6524   3.797   2.068   3.070
 2094WAT     H2 6525   3.690   1.956   3.018
 2095WAT      O 6526   3.141   0.135   4.922
 2095WAT     H1 6527   3.169   0.045   4.953
 2095WAT     H2 6528   3.162   0.146   4.825
 2096WAT      O 6529   2.108   9.269   6.279
 2096WAT     H1 6530   2.077   9.241   6.189
 2096WAT     H2 6531   2.050   9.342   6.314
 2097WAT      O 6532   4.438   3.549   7.310
 2097WAT     H1 6533   4.417   3.527   7.405
 2097WAT     H2 6534   4.536   3.567   7.301
 2098WAT      O 6535   6.101   0.681   8.753
 2098WAT     H1 6536   6.059   0.763   8.791
 2098WAT     H2 6537   6.072   0.601   8.806
 2099WAT      O 6538   3.898   5.857   9.597
 2099WAT     H1 6539   3.807   5.896   9.582
 2099WAT     H2 6540   3.916   5.851   9.696
 2100WAT      O 6541   1.024   8.476   1.294
 2100WAT     H1 6542   0.925   8.480   1.305
 2100WAT     H2 6543   1.063   8.417   1.365
 2101WAT      O 6544   7.467   0.821   9.247
 2101WAT     H1 6545   7.489   0.855   9.156
 2101WAT     H2 6546   7.546   0.776   9.286
 2102WAT      O 6547   5.278   4.238   7.084
 2102WAT     H1 6548   5.220   4.185   7.022
 2102WAT     H2 6549   5.305   4.323   7.040
 2103WAT      O 6550   2.913   3.449   6.236
 2103WAT     H1 6551   2.862   3.395   6.169
 2103WAT     H2 6552   2.859   3.528   6.263
 2104WAT      O 6553   0.071   5.371   2.692
 2104WAT     H1 6554   0.101   5.277   2.675
 2104WAT     H2 6555  -0.019   5.385   2.650
 2105WAT      O 6556   5.035   5.014   0.805
 2105WAT     H1 6557   4.937   5.036   0.810
 2105WAT     H2 6558   5.088   5.085   0.850
 2106WAT      O 6559   7.535   0.011   2.324
 2106WAT     H1 6560   7.540   0.079   2.397
 2106WAT     H2 6561   7.614  -0.049   2.329
 2107WAT      O 6562   8.685   3.488   6.479
 2107WAT     H1 6563   8.721   3.398   6.455
 2107WAT     H2 6564   8.748   3.559   6.446
 2108WAT      O 6565   0.367   7.289   6.670
 2108WAT     H1 6566   0.422   7.372   6.662
 2108WAT     H2 6567   0.421   7.217   6.715
 2109WAT      O 6568   9.324   2.155   9.699
 2109WAT     H1 6569   9.355   2.184   9.608
 2109WAT     H2 6570   9.324   2.055   9.703
 2110WAT      O 6571   0.786   2.989   7.096
 2110WAT     H1 6572   0.823   3.077   7.126
 2110WAT     H2 6573   0.687   2.987   7.113
 2111WAT      O 6574   1.570   7.114   1.040
 2111WAT     H1 6575   1.555   7.186   1.107
 2111WAT     H2 6576   1.504   7.123   0.966
 2112WAT      O 6577   0.727   4.461   6.941
 2112WAT     H1 6578   0.677   4.427   7.021
 2112WAT     H2 6579   0.684   4.545   6.908
 2113WAT      O 6580   1.799   9.021   4.921
 2113WAT     H1 6581   1.734   9.068   4.861
 2113WAT     H2 6582   1.782   9.048   5.016
 2114WAT      O 6583   4.673   4.193   6.970
 2114WAT     H1 6584   4.740   4.265   6.986
 2114WAT     H2 6585   4.593   4.231   6.924
 2115WAT      O 6586   3.701   3.629   7.510
 2115WAT     H1 6587   3.788   3.659   7.471
 2115WAT     H2 6588   3.628   3.643   7.443
 2116WAT      O 6589   7.680   4.171   2.977
 2116WAT     H1 6590   7.688   4.147   2.880
 2116WAT     H2 6591   7.708   4.093   3.033
 2117WAT      O 6592   4.788   0.218   9.416
 2117WAT     H1 6593   4.718   0.230   9.346
 2117WAT     H2 6594   4.858   0.289   9.407
 2118WAT      O 6595   5.025   5.408   6.794
 2118WAT     H1 6596   5.089   5.468   6.746
 2118WAT     H2 6597   5.045   5.313   6.772
 2119WAT      O 6598   0.438   8.109   4.674
 2119WAT     H1 6599   0.468   8.020   4.640
 2119WAT     H2 6600   0.408   8.165   4.597
 2120WAT      O 6601   6.334   9.520   3.945
 2120WAT     H1 6602   6.350   9.451   4.015
 2120WAT     H2 6603   6.241   9.555   3.953
 2121WAT      O 6604   7.199   7.669   6.872
 2121WAT     H1 6605   7.241   7.704   6.789
 2121WAT     H2 6606   7.173   7.574   6.859
 2122WAT      O 6607   7.044   8.493   1.473
 2122WAT     H1 6608   7.062   8.560   1.401
 2122WAT     H2 6609   7.127   8.478   1.527
 2123WAT      O 6610   9.184   6.067   3.271
 2123WAT     H1 6611   9.126   5.995   3.234
 2123WAT     H2 6612   9.149   6.156   3.243
 2124WAT      O 6613   7.832   5.719   5.229
 2124WAT     H1 6614   7.824   5.817   5.213
 2124WAT     H2 6615   7.804   5.669   5.147
 2125WAT      O 6616   5.096   9.278   6.517
 2125WAT     H1 6617   5.115   9.347   6.587
 2125WAT     H2 6618   5.170   9.276   6.451
 2126WAT      O 6619   1.708   8.110   0.857
 2126WAT     H1 6620   1.761   8.045   0.913
 2126WAT     H2 6621   1.767   8.186   0.829
 2127WAT      O 6622   5.645   2.584   1.415
 2127WAT     H1 6623   5.689   2.526   1.347
 2127WAT     H2 6624   5.639   2.536   1.502
 2128WAT      O 6625   4.250   2.084   4.721
 2128WAT     H1 6626   4.249   2.046   4.629
 2128WAT     H2 6627   4.183   2.157   4.728
 2129WAT      O 6628   4.591   7.781   0.593
 2129WAT     H1 6629   4.644   7.863   0.570
 2129WAT     H2 6630   4.572   7.729   0.509
 2130WAT      O 6631   2.608   0.926   8.322
 2130WAT     H1 6632   2.550   0.952   8.399
 2130WAT     H2 6633   2.583   0.980   8.241
 2131WAT      O 6634   5.429   7.194   2.827
 2131WAT     H1 6635   5.432   7.124   2.755
 2131WAT     H2 6636   5.366   7.266   2.800
 2132WAT      O 6637   3.826   8.301   8.863
 2132WAT     H1 6638   3.812   8.346   8.775
 2132WAT     H2 6639   3.839   8.203   8.849
 2133WAT      O 6640   3.068   4.567   9.468
 2133WAT     H1 6641   3.115   4.651   9.438
 2133WAT     H2 6642   2.999   4.590   9.536
 2134WAT      O 6643   7.512   5.685   3.239
 2134WAT     H1 6644   7.513   5.614   3.170
 2134WAT     H2 6645   7.534   5.773   3.197
 2135WAT      O 6646   1.687   9.009   0.987
 2135WAT     H1 6647   1.773   9.018   1.038
 2135WAT     H2 6648   1.707   8.992   0.891
 2136WAT      O 6649   4.419   3.443   3.536
 2136WAT     H1 6650   4.412   3.343   3.540
 2136WAT     H2 6651   4.465   3.476   3.619
 2137WAT      O 6652   6.524   1.464   5.541
 2137WAT     H1 6653   6.590   1.432   5.472
 2137WAT     H2 6654   6.463   1.389   5.566
 2138WAT      O 6655   2.454   0.616   0.343
 2138WAT     H1 6656   2.459   0.523   0.380
 2138WAT     H2 6657   2.447   0.612   0.244
 2139WAT      O 6658   6.891   6.686   2.700
 2139WAT     H1 6659   6.800   6.690   2.742
 2139WAT     H2 6660   6.882   6.662   2.604
 2140WAT      O 6661   5.783   7.706   6.046
 2140WAT     H1 6662   5.766   7.608   6.037
 2140WAT     H2 6663   5.877   7.720   6.079
 2141WAT      O 6664   6.900   8.301   0.148
 2141WAT     H1 6665   6.805   8.297   0.178
 2141WAT     H2 6666   6.953   8.360   0.209
 2142WAT      O 6667   9.611   2.160   0.732
 2142WAT     H1 6668   9.522   2.177   0.689
 2142WAT     H2 6669   9.680   2.148   0.662
 2143WAT      O 6670   3.071   2.523   5.004
 2143WAT     H1 6671   3.000   2.521   4.933
 2143WAT     H2 6672   3.110   2.615   5.011
 2144WAT      O 6673   4.786   0.837   5.639
 2144WAT     H1 6674   4.722   0.905   5.602
 2144WAT     H2 6675   4.740   0.749   5.649
 2145WAT      O 6676   5.798   7.365   3.235
 2145WAT     H1 6677   5.890   7.356   3.274
 2145WAT     H2 6678   5.778   7.462   3.219
 2146WAT      O 6679   5.969   5.905   7.935
 2146WAT     H1 6680   5.943   5.924   7.841
 2146WAT     H2 6681   5.897   5.851   7.980
 2147WAT      O 6682   4.941   5.865   5.082
 2147WAT     H1 6683   4.946   5.860   4.982
 2147WAT     H2 6684   5.028   5.902   5.117
 2148WAT      O 6685   0.206   6.292   3.870
 2148WAT     H1 6686   0.278   6.333   3.927
 2148WAT     H2 6687   0.218   6.320   3.775
 2149WAT      O 6688   1.592   3.630   8.431
 2149WAT     H1 6689   1.556   3.612   8.340
 2149WAT     H2 6690   1.568   3.724   8.458
 2150WAT      O 6691   1.493   6.164   4.304
 2150WAT     H1 6692   1.503   6.134   4.209
 2150WAT     H2 6693   1.420   6.112   4.348
 2151WAT      O 6694   5.901   1.476   8.009
 2151WAT     H1 6695   5.921   1.411   8.084
 2151WAT     H2 6696   5.921   1.569   8.040
 2152WAT      O 6697   9.079   4.989   4.281
 2152WAT     H1 6698   8.995   5.017   4.235
 2152WAT     H2 6699   9.065   4.990   4.380
 2153WAT      O 6700   2.831   7.743   2.860
 2153WAT     H1 6701   2.825   7.773   2.765
 2153WAT     H2 6702   2.781   7.657   2.872
 2154WAT      O 6703   4.834   3.429   3.290
 2154WAT     H1 6704   4.849   3.474   3.378
 2154WAT     H2 6705   4.773   3.351   3.302
 2155WAT      O 6706   4.097   0.241   3.091
 2155WAT     H1 6707   4.113   0.160   3.036
 2155WAT     H2 6708   4.150   0.236   3.176
 2156WAT      O 6709   1.737   3.728   0.959
 2156WAT     H1 6710   1.832   3.700   0.941
 2156WAT     H2 6711   1.724   3.822   0.926
 2157WAT      O 6712   7.583   5.685   6.152
 2157WAT     H1 6713   7.568   5.705   6.249
 2157WAT     H2 6714   7.666   5.732   6.121
 2158WAT      O 6715   4.580   3.888   9.106
 2158WAT     H1 6716   4.539   3.801   9.131
 2158WAT     H2 6717   4.665   3.872   9.056
 2159WAT      O 6718   6.269   2.213   7.922
 2159WAT     H1 6719   6.345   2.203   7.985
 2159WAT     H2 6720   6.296   2.275   7.848
 2160WAT      O 6721   1.723   0.618   1.509
 2160WAT     H1 6722   1.719   0.563   1.593
 2160WAT     H2 6723   1.746   0.713   1.532
 2161WAT      O 6724   7.939   4.126   4.168
 2161WAT     H1 6725   7.924   4.222   4.188
 2161WAT     H2 6726   8.001   4.117   4.090
 2162WAT      O 6727   0.362   0.034   6.189
 2162WAT     H1 6728   0.268  -0.002   6.191
 2162WAT     H2 6729   0.376   0.095   6.267
 2163WAT      O 6730   7.899   9.114   9.734
 2163WAT     H1 6731   7.974   9.048   9.746
 2163WAT     H2 6732   7.913   9.165   9.649
 2164WAT      O 6733   8.511   7.579   9.134
 2164WAT     H1 6734   8.533   7.651   9.200
 2164WAT     H2 6735   8.577   7.504   9.142
 2165WAT      O 6736   7.326   3.268   6.604
 2165WAT     H1 6737   7.243   3.287   6.657
 2165WAT     H2 6738   7.361   3.178   6.630
 2166WAT      O 6739   0.790   4.508   6.590
 2166WAT     H1 6740   0.716   4.575   6.597
 2166WAT     H2 6741   0.812   4.491   6.494
 2167WAT      O 6742   2.499   9.807   4.387
 2167WAT     H1 6743   2.521   9.736   4.454
 2167WAT     H2 6744   2.514   9.771   4.294
 2168WAT      O 6745   6.050   2.850   9.714
 2168WAT     H1 6746   6.120   2.881   9.649
 2168WAT     H2 6747   5.980   2.798   9.665
 2169WAT      O 6748   4.535   8.591   6.057
 2169WAT     H1 6749   4.482   8.612   5.975
 2169WAT     H2 6750   4.474   8.581   6.135
 2170WAT      O 6751   0.692   4.029   4.867
 2170WAT     H1 6752   0.605   4.043   4.820
 2170WAT     H2 6753   0.703   3.932   4.889
 2171WAT      O 6754   3.637   4.775   3.158
 2171WAT     H1 6755   3.664   4.791   3.253
 2171WAT     H2 6756   3.601   4.861   3.120
 2172WAT      O 6757   9.243   1.541   3.367
 2172WAT     H1 6758   9.217   1.620   3.423
 2172WAT     H2 6759   9.226   1.457   3.418
 2173WAT      O 6760   7.471   3.208   6.189
 2173WAT     H1 6761   7.450   3.124   6.240
 2173WAT     H2 6762   7.448   3.196   6.093
 2174WAT      O 6763   8.664   5.125   0.557
 2174WAT     H1 6764   8.744   5.179   0.531
 2174WAT     H2 6765   8.679   5.084   0.647
 2175WAT      O 6766   6.309   5.838   2.695
 2175WAT     H1 6767   6.301   5.739   2.681
 2175WAT     H2 6768   6.250   5.885   2.630
 2176WAT      O 6769   8.786   6.498   7.078
 2176WAT     H1 6770   8.688   6.496   7.099
 2176WAT     H2 6771   8.800   6.529   6.984
 2177WAT      O 6772   3.227   1.870   4.605
 2177WAT     H1 6773   3.179   1.789   4.572
 2177WAT     H2 6774   3.240   1.934   4.529
 2178WAT      O 6775   4.058   6.357   8.981
 2178WAT     H1 6776   4.090   6.418   8.908
 2178WAT     H2 6777   3.999   6.286   8.942
 2179WAT      O 6778   8.023   3.720   8.966
 2179WAT     H1 6779   8.095   3.744   9.031
 2179WAT     H2 6780   7.998   3.624   8.979
 2180WAT      O 6781   4.254   6.240   3.919
 2180WAT     H1 6782   4.346   6.204   3.937
 2180WAT     H2 6783   4.211   6.269   4.004
 2181WAT      O 6784   2.524   5.820   0.398
 2181WAT     H1 6785   2.565   5.740   0.356
 2181WAT     H2 6786   2.535   5.815   0.498
 2182WAT      O 6787   1.418   0.950   5.164
 2182WAT     H1 6788   1.446   1.044   5.182
 2182WAT     H2 6789   1.499   0.894   5.147
 2183WAT      O 6790   9.482   0.135   0.304
 2183WAT     H1 6791   9.416   0.139   0.380
 2183WAT     H2 6792   9.508   0.228   0.278
 2184WAT      O 6793   6.774   8.844   3.845
 2184WAT     H1 6794   6.791   8.940   3.869
 2184WAT     H2 6795   6.766   8.836   3.746
 2185WAT      O 6796   0.342   3.571   2.705
 2185WAT     H1 6797   0.342   3.661   2.748
 2185WAT     H2 6798   0.265   3.517   2.739
 2186WAT      O 6799   6.709   4.709   6.958
 2186WAT     H1 6800   6.764   4.639   7.005
 2186WAT     H2 6801   6.732   4.799   6.995
 2187WAT      O 6802   0.850   1.407   3.519
 2187WAT     H1 6803   0.807   1.365   3.439
 2187WAT     H2 6804   0.783   1.462   3.568
 2188WAT      O 6805   7.008   5.474   4.283
 2188WAT     H1 6806   6.947   5.541   4.326
 2188WAT     H2 6807   7.099   5.514   4.273
 2189WAT      O 6808   3.257   7.858   2.049
 2189WAT     H1 6809   3.340   7.803   2.054
 2189WAT     H2 6810   3.183   7.810   2.095
 2190WAT      O 6811   7.979   6.368   3.470
 2190WAT     H1 6812   8.006   6.276   3.500
 2190WAT     H2 6813   7.884   6.385   3.498
 2191WAT      O 6814   8.193   0.689   9.351
 2191WAT     H1 6815   8.242   0.653   9.431
 2191WAT     H2 6816   8.255   0.745   9.297
 2192WAT      O 6817   1.333   2.977   3.108
 2192WAT     H1 6818   1.351   2.935   3.196
 2192WAT     H2 6819   1.250   3.033   3.113
 2193WAT      O 6820   1.297   6.732   8.033
 2193WAT     H1 6821   1.215   6.690   7.993
 2193WAT     H2 6822   1.359   6.761   7.959
 2194WAT      O 6823   5.783   3.914   0.678
 2194WAT     H1 6824   5.704   3.893   0.622
 2194WAT     H2 6825   5.856   3.950   0.620
 2195WAT      O 6826   5.572   2.966   8.715
 2195WAT     H1 6827   5.500   3.033   8.733
 2195WAT     H2 6828   5.531   2.877   8.698
 2196WAT      O 6829   7.501   4.713   4.014
 2196WAT     H1 6830   7.523   4.675   3.925
 2196WAT     H2 6831   7.518   4.811   4.014
 2197WAT      O 6832   1.517   4.780   1.532
 2197WAT     H1 6833   1.579   4.817   1.602
 2197WAT     H2 6834   1.499   4.849   1.463
 2198WAT      O 6835   4.455   9.045   0.784
 2198WAT     H1 6836   4.360   9.074   0.796
 2198WAT     H2 6837   4.474   9.032   0.686
 2199WAT      O 6838   9.678   0.505   5.016
 2199WAT     H1 6839   9.647   0.589   5.061
 2199WAT     H2 6840   9.612   0.432   5.034
 2200WAT      O 6841   2.872   9.494   6.903
 2200WAT     H1 6842   2.818   9.523   6.824
 2200WAT     H2 6843   2.964   9.532   6.897
 2201WAT      O 6844   5.124   7.112   3.232
 2201WAT     H1 6845   5.194   7.058   3.186
 2201WAT     H2 6846   5.129   7.207   3.201
 2202WAT      O 6847   4.677   7.866   5.033
 2202WAT     H1 6848   4.648   7.948   4.983
 2202WAT     H2 6849   4.608   7.844   5.102
 2203WAT      O 6850   9.310   0.930   3.934
 2203WAT     H1 6851   9.276   0.876   3.857
 2203WAT     H2 6852   9.255   1.013   3.944
 2204WAT      O 6853   8.124   6.195   4.249
 2204WAT     H1 6854   8.125   6.269   4.317
 2204WAT     H2 6855   8.204   6.204   4.189
 2205WAT      O 6856   0.341   9.292   6.089
 2205WAT     H1 6857   0.350   9.386   6.056
 2205WAT     H2 6858   0.331   9.291   6.188
 2206WAT      O 6859   4.158   4.103   9.502
 2206WAT     H1 6860   4.252   4.124   9.474
 2206WAT     H2 6861   4.128   4.019   9.456
 2207WAT      O 6862   9.109   3.003   2.211
 2207WAT     H1 6863   9.152   3.063   2.143
 2207WAT     H2 6864   9.010   3.019   2.211
 2208WAT      O 6865   7.727   3.333   9.646
 2208WAT     H1 6866   7.773   3.392   9.578
 2208WAT     H2 6867   7.628   3.336   9.631
 2209WAT      O 6868   9.322   5.916   1.559
 2209WAT     H1 6869   9.352   6.001   1.603
 2209WAT     H2 6870   9.401   5.854   1.549
 2210WAT      O 6871   0.717   5.514   8.528
 2210WAT     H1 6872   0.639   5.487   8.585
 2210WAT     H2 6873   0.753   5.602   8.559
 2211WAT      O 6874   3.597   2.762   4.855
 2211WAT     H1 6875   3.646   2.842   4.824
 2211WAT     H2 6876   3.499   2.774   4.838
 2212WAT      O 6877   1.629   2.555   2.922
 2212WAT     H1 6878   1.704   2.494   2.948
 2212WAT     H2 6879   1.547   2.501   2.904
 2213WAT      O 6880   7.093   8.074   1.903
 2213WAT     H1 6881   7.110   8.022   1.819
 2213WAT     H2 6882   7.053   8.162   1.880
 2214WAT      O 6883   5.026   3.740   4.317
 2214WAT     H1 6884   5.038   3.798   4.397
 2214WAT     H2 6885   4.954   3.673   4.335
 2215WAT      O 6886   6.150   6.025   9.856
 2215WAT     H1 6887   6.202   6.104   9.887
 2215WAT     H2 6888   6.069   6.057   9.806
 2216WAT      O 6889   4.316   1.202   6.657
 2216WAT     H1 6890   4.322   1.243   6.748
 2216WAT     H2 6891   4.336   1.272   6.588
 2217WAT      O 6892   0.258   8.607   2.779
 2217WAT     H1 6893   0.338   8.598   2.719
 2217WAT     H2 6894   0.284   8.660   2.860
 2218WAT      O 6895   9.839   8.447   9.585
 2218WAT     H1 6896   9.886   8.475   9.668
 2218WAT     H2 6897   9.756   8.501   9.574
 2219WAT      O 6898   8.034   4.903   1.369
 2219WAT     H1 6899   8.134   4.912   1.375
 2219WAT     H2 6900   8.009   4.853   1.286
 2220WAT      O 6901   7.998   4.795   4.710
 2220WAT     H1 6902   7.952   4.732   4.772
 2220WAT     H2 6903   8.036   4.744   4.633
 2221WAT      O 6904   3.126   4.378   5.407
 2221WAT     H1 6905   3.070   4.364   5.488
 2221WAT     H2 6906   3.184   4.459   5.420
 2222WAT      O 6907   9.586   6.268   5.433
 2222WAT     H1 6908   9.669   6.323   5.422
 2222WAT     H2 6909   9.556   6.273   5.529
 2223WAT      O 6910   4.961   1.266   3.138
 2223WAT     H1 6911   4.935   1.188   3.081
 2223WAT     H2 6912   4.963   1.237   3.234
 2224WAT      O 6913   6.941   8.959   4.793
 2224WAT     H1 6914   7.014   8.963   4.725
 2224WAT     H2 6915   6.958   8.884   4.857
 2225WAT      O 6916   0.848   2.156   8.052
 2225WAT     H1 6917   0.903   2.112   7.980
 2225WAT     H2 6918   0.798   2.086   8.103
 2226WAT      O 6919   2.547   7.464   0.453
 2226WAT     H1 6920   2.563   7.452   0.551
 2226WAT     H2 6921   2.634   7.475   0.406
 2227WAT      O 6922   0.630   0.970   6.648
 2227WAT     H1 6923   0.651   1.066   6.634
 2227WAT     H2 6924   0.535   0.961   6.680
 2228WAT      O 6925   2.991   2.673   6.069
 2228WAT     H1 6926   2.907   2.631   6.104
 2228WAT     H2 6927   2.985   2.682   5.969
 2229WAT      O 6928   1.246   3.900   7.994
 2229WAT     H1 6929   1.258   3.834   8.068
 2229WAT     H2 6930   1.207   3.854   7.914
 2230WAT      O 6931   8.563   2.453   6.764
 2230WAT     H1 6932   8.469   2.473   6.735
 2230WAT     H2 6933   8.580   2.355   6.755
 2231WAT      O 6934   0.135   5.443   0.999
 2231WAT     H1 6935   0.074   5.365   0.983
 2231WAT     H2 6936   0.094   5.503   1.068
 2232WAT      O 6937   7.402   1.416   4.926
 2232WAT     H1 6938   7.402   1.431   5.025
 2232WAT     H2 6939   7.339   1.343   4.903
 2233WAT      O 6940   2.612   5.309   9.878
 2233WAT     H1 6941   2.687   5.314   9.943
 2233WAT     H2 6942   2.556   5.392   9.883
 2234WAT      O 6943   9.606   1.222   1.393
 2234WAT     H1 6944   9.620   1.300   1.454
 2234WAT     H2 6945   9.530   1.166   1.426
 2235WAT      O 6946   4.250   1.296   0.859
 2235WAT     H1 6947   4.260   1.211   0.808
 2235WAT     H2 6948   4.166   1.292   0.914
 2236WAT      O 6949   2.954   1.470   8.214
 2236WAT     H1 6950   2.885   1.408   8.174
 2236WAT     H2 6951   2.988   1.431   8.299
 2237WAT      O 6952   1.623   6.655   4.459
 2237WAT     H1 6953   1.558   6.712   4.410
 2237WAT     H2 6954   1.632   6.567   4.414
 2238WAT      O 6955   0.898   7.798   7.725
 2238WAT     H1 6956   0.819   7.836   7.675
 2238WAT     H2 6957   0.892   7.826   7.821
 2239WAT      O 6958   2.936   0.852   2.688
 2239WAT     H1 6959   2.884   0.766   2.691
 2239WAT     H2 6960   2.873   0.929   2.690
 2240WAT      O 6961   9.253   5.417   0.634
 2240WAT     H1 6962   9.239   5.486   0.705
 2240WAT     H2 6963   9.282   5.331   0.676
 2241WAT      O 6964   1.223   5.131   8.813
 2241WAT     H1 6965   1.216   5.229   8.796
 2241WAT     H2 6966   1.135   5.087   8.795
 2242WAT      O 6967   2.971   7.622   4.315
 2242WAT     H1 6968   2.919   7.697   4.272
 2242WAT     H2 6969   2.908   7.558   4.358
 2243WAT      O 6970   3.955   7.016   9.049
 2243WAT     H1 6971   3.912   6.928   9.030
 2243WAT     H2 6972   4.046   7.001   9.086
 2244WAT      O 6973   3.369   3.425   0.713
 2244WAT     H1 6974   3.341   3.345   0.767
 2244WAT     H2 6975   3.456   3.406   0.669
 2245WAT      O 6976   7.413   8.799   2.416
 2245WAT     H1 6977   7.506   8.790   2.380
 2245WAT     H2 6978   7.414   8.784   2.515
 2246WAT      O 6979   5.537   0.187   0.766
 2246WAT     H1 6980   5.611   0.255   0.765
 2246WAT     H2 6981   5.572   0.101   0.804
 2247WAT      O 6982   5.650   1.492   0.726
 2247WAT     H1 6983   5.670   1.397   0.700
 2247WAT     H2 6984   5.583   1.530   0.662
 2248WAT      O 6985   6.076   5.682   8.692
 2248WAT     H1 6986   6.153   5.653   8.750
 2248WAT     H2 6987   6.050   5.775   8.716
 2249WAT      O 6988   7.400   1.628   3.225
 2249WAT     H1 6989   7.326   1.650   3.161
 2249WAT     H2 6990   7.483   1.675   3.196
 2250WAT      O 6991   8.900   0.152   1.218
 2250WAT     H1 6992   8.918   0.069   1.165
 2250WAT     H2 6993   8.951   0.148   1.304
 2251WAT      O 6994   9.056   1.582   2.811
 2251WAT     H1 6995   9.077   1.514   2.881
 2251WAT     H2 6996   9.034   1.669   2.854
 2252WAT      O 6997   4.067   0.261   6.397
 2252WAT     H1 6998   4.149   0.252   6.340
 2252WAT     H2 6999   4.028   0.352   6.384
 2253WAT      O 7000   8.224   4.551   8.414
 2253WAT     H1 7001   8.157   4.548   8.488
 2253WAT     H2 7002   8.176   4.547   8.326
 2254WAT      O 7003   7.129   3.302   3.526
 2254WAT     H1 7004   7.049   3.310   3.467
 2254WAT     H2 7005   7.172   3.212   3.512
 2255WAT      O 7006   9.030   0.148   1.501
 2255WAT     H1 7007   9.087   0.230   1.509
 2255WAT     H2 7008   8.947   0.160   1.556
 2256WAT      O 7009   5.512   1.627   2.647
 2256WAT     H1 7010   5.482   1.605   2.554
 2256WAT     H2 7011   5.584   1.562   2.675
 2257WAT      O 7012   7.426   4.992   1.327
 2257WAT     H1 7013   7.361   4.935   1.376
 2257WAT     H2 7014   7.446   4.952   1.238
 2258WAT      O 7015   2.030   7.930   5.491
 2258WAT     H1 7016   1.959   7.863   5.469
 2258WAT     H2 7017   2.044   7.990   5.412
 2259WAT      O 7018   9.506   0.545   9.497
 2259WAT     H1 7019   9.589   0.527   9.444
 2259WAT     H2 7020   9.478   0.461   9.543
 2260WAT      O 7021   1.809   2.776   9.651
 2260WAT     H1 7022   1.880   2.804   9.716
 2260WAT     H2 7023   1.722   2.762   9.700
 2261WAT      O 7024   9.570   8.778   0.444
 2261WAT     H1 7025   9.647   8.775   0.507
 2261WAT     H2 7026   9.490   8.818   0.490
 2262WAT      O 7027   0.684   1.696   2.177
 2262WAT     H1 7028   0.711   1.771   2.238
 2262WAT     H2 7029   0.708   1.609   2.218
 2263WAT      O 7030   2.228   7.663   5.761
 2263WAT     H1 7031   2.225   7.594   5.689
 2263WAT     H2 7032   2.307   7.647   5.820
 2264WAT      O 7033   8.292   9.425   9.476
 2264WAT     H1 7034   8.349   9.498   9.437
 2264WAT     H2 7035   8.196   9.452   9.473
 2265WAT      O 7036   0.580   1.289   8.107
 2265WAT     H1 7037   0.503   1.232   8.077
 2265WAT     H2 7038   0.632   1.320   8.028
 2266WAT      O 7039   9.144   3.784   4.641
 2266WAT     H1 7040   9.079   3.714   4.610
 2266WAT     H2 7041   9.209   3.803   4.568
 2267WAT      O 7042   8.613   3.621   3.875
 2267WAT     H1 7043   8.631   3.650   3.781
 2267WAT     H2 7044   8.515   3.604   3.886
 2268WAT      O 7045   8.199   5.433   9.048
 2268WAT     H1 7046   8.172   5.418   8.953
 2268WAT     H2 7047   8.117   5.430   9.106
 2269WAT      O 7048   9.810   4.282   0.450
 2269WAT     H1 7049   9.908   4.294   0.466
 2269WAT     H2 7050   9.796   4.243   0.359
 2270WAT      O 7051   4.354   8.938   6.493
 2270WAT     H1 7052   4.411   8.940   6.411
 2270WAT     H2 7053   4.315   9.029   6.509
 2271WAT      O 7054   7.288   4.184   1.167
 2271WAT     H1 7055   7.199   4.158   1.128
 2271WAT     H2 7056   7.332   4.252   1.108
 2272WAT      O 7057   3.213   4.361   5.722
 2272WAT     H1 7058   3.247   4.455   5.724
 2272WAT     H2 7059   3.290   4.298   5.709
 2273WAT      O 7060   0.954   8.122   4.021
 2273WAT     H1 7061   0.908   8.045   3.979
 2273WAT     H2 7062   0.893   8.201   4.021
 2274WAT      O 7063   7.001   8.761   4.993
 2274WAT     H1 7064   7.041   8.795   5.078
 2274WAT     H2 7065   7.029   8.666   4.979
 2275WAT      O 7066   2.694   5.634   2.996
 2275WAT     H1 7067   2.775   5.679   3.034
 2275WAT     H2 7068   2.647   5.584   3.069
 2276WAT      O 7069   9.261   4.679   5.295
 2276WAT     H1 7070   9.207   4.644   5.372
 2276WAT     H2 7071   9.299   4.602   5.243
 2277WAT      O 7072   8.673   2.259   4.657
 2277WAT     H1 7073   8.726   2.183   4.618
 2277WAT     H2 7074   8.638   2.232   4.747
 2278WAT      O 7075   6.022   5.957   8.776
 2278WAT     H1 7076   6.119   5.973   8.794
 2278WAT     H2 7077   5.980   6.040   8.740
 2279WAT      O 7078   2.131   3.631   4.219
 2279WAT     H1 7079   2.033   3.651   4.212
 2279WAT     H2 7080   2.181   3.716   4.237
 2280WAT      O 7081   2.560   1.025   2.207
 2280WAT     H1 7082   2.572   1.070   2.119
 2280WAT     H2 7083   2.473   0.976   2.208
 2281WAT      O 7084   4.456   2.659   1.350
 2281WAT     H1 7085   4.419   2.589   1.289
 2281WAT     H2 7086   4.412   2.652   1.440
 2282WAT      O 7087   9.038   5.119   8.040
 2282WAT     H1 7088   9.131   5.103   8.071
 2282WAT     H2 7089   9.038   5.136   7.941
 2283WAT      O 7090   9.281   4.671   8.399
 2283WAT     H1 7091   9.184   4.659   8.381
 2283WAT     H2 7092   9.295   4.756   8.451
 2284WAT      O 7093   8.514   2.434   5.955
 2284WAT     H1 7094   8.481   2.440   6.050
 2284WAT     H2 7095   8.558   2.346   5.941
 2285WAT      O 7096   1.553   5.834   7.371
 2285WAT     H1 7097   1.521   5.794   7.284
 2285WAT     H2 7098   1.572   5.931   7.357
 2286WAT      O 7099   6.047   3.535   0.097
 2286WAT     H1 7100   6.000   3.450   0.076
 2286WAT     H2 7101   6.134   3.515   0.142
 2287WAT      O 7102   5.935   3.846   0.907
 2287WAT     H1 7103   5.886   3.873   0.824
 2287WAT     H2 7104   6.033   3.849   0.890
 2288WAT      O 7105   7.033   2.464   5.446
 2288WAT     H1 7106   7.126   2.479   5.480
 2288WAT     H2 7107   6.973   2.535   5.482
 2289WAT      O 7108   5.437   8.412   4.382
 2289WAT     H1 7109   5.472   8.328   4.424
 2289WAT     H2 7110   5.496   8.438   4.306
 2290WAT      O 7111   8.699   3.004   3.401
 2290WAT     H1 7112   8.635   2.927   3.397
 2290WAT     H2 7113   8.716   3.029   3.496
 2291WAT      O 7114   1.052   3.084   3.122
 2291WAT     H1 7115   0.988   3.020   3.080
 2291WAT     H2 7116   1.021   3.106   3.214
 2292WAT      O 7117   1.114   1.184   6.239
 2292WAT     H1 7118   1.071   1.264   6.198
 2292WAT     H2 7119   1.188   1.152   6.181
 2293WAT      O 7120   7.739   8.065   1.172
 2293WAT     H1 7121   7.776   7.975   1.151
 2293WAT     H2 7122   7.646   8.055   1.208
 2294WAT      O 7123   2.372   8.894   9.266
 2294WAT     H1 7124   2.438   8.832   9.225
 2294WAT     H2 7125   2.359   8.871   9.363
 2295WAT      O 7126   3.906   4.019   4.436
 2295WAT     H1 7127   3.807   4.020   4.452
 2295WAT     H2 7128   3.949   4.092   4.489
 2296WAT      O 7129   8.821   5.767   0.534
 2296WAT     H1 7130   8.733   5.726   0.509
 2296WAT     H2 7131   8.805   5.851   0.587
 2297WAT      O 7132   1.579   3.157   8.462
 2297WAT     H1 7133   1.608   3.203   8.378
 2297WAT     H2 7134   1.479   3.156   8.466
 2298WAT      O 7135   2.184   9.544   5.790
 2298WAT     H1 7136   2.225   9.519   5.702
 2298WAT     H2 7137   2.189   9.466   5.853
 2299WAT      O 7138   7.173   6.590   0.998
 2299WAT     H1 7139   7.170   6.572   0.899
 2299WAT     H2 7140   7.226   6.519   1.043
 2300WAT      O 7141   7.299   2.800   1.164
 2300WAT     H1 7142   7.269   2.788   1.258
 2300WAT     H2 7143   7.236   2.863   1.117
 2301WAT      O 7144   3.942   0.461   7.410
 2301WAT     H1 7145   3.982   0.531   7.351
 2301WAT     H2 7146   3.924   0.379   7.356
 2302WAT      O 7147   9.520   1.316   4.940
 2302WAT     H1 7148   9.572   1.239   4.977
 2302WAT     H2 7149   9.529   1.317   4.840
 2303WAT      O 7150   2.587   4.172   1.854
 2303WAT     H1 7151   2.502   4.126   1.876
 2303WAT     H2 7152   2.567   4.261   1.812
 2304WAT      O 7153   9.620   6.729   4.582
 2304WAT     H1 7154   9.550   6.691   4.642
 2304WAT     H2 7155   9.698   6.666   4.577
 2305WAT      O 7156   9.773   6.274   4.313
 2305WAT     H1 7157   9.768   6.174   4.317
 2305WAT     H2 7158   9.827   6.302   4.234
 2306WAT      O 7159   4.577   9.184   8.463
 2306WAT     H1 7160   4.490   9.145   8.434
 2306WAT     H2 7161   4.614   9.130   8.539
 2307WAT      O 7162   5.479   8.023   5.946
 2307WAT     H1 7163   5.578   8.020   5.963
 2307WAT     H2 7164   5.449   8.119   5.947
 2308WAT      O 7165   7.130   1.571   3.369
 2308WAT     H1 7166   7.219   1.567   3.415
 2308WAT     H2 7167   7.121   1.494   3.306
 2309WAT      O 7168   4.661   7.648   4.553
 2309WAT     H1 7169   4.625   7.555   4.551
 2309WAT     H2 7170   4.598   7.707   4.604
 2310WAT      O 7171   2.467   0.312   9.584
 2310WAT     H1 7172   2.387   0.261   9.551
 2310WAT     H2 7173   2.493   0.381   9.517
 2311WAT      O 7174   5.279   1.785   3.727
 2311WAT     H1 7175   5.313   1.784   3.633
 2311WAT     H2 7176   5.355   1.799   3.790
 2312WAT      O 7177   1.006   1.641   9.282
 2312WAT     H1 7178   1.098   1.624   9.318
 2312WAT     H2 7179   0.970   1.726   9.320
 2313WAT      O 7180   1.484   2.744   9.618
 2313WAT     H1 7181   1.395   2.715   9.655
 2313WAT     H2 7182   1.483   2.842   9.601
 2314WAT      O 7183   9.284   2.260   6.767
 2314WAT     H1 7184   9.356   2.272   6.699
 2314WAT     H2 7185   9.320   2.211   6.846
 2315WAT      O 7186   1.596   8.394   5.628
 2315WAT     H1 7187   1.632   8.376   5.720
 2315WAT     H2 7188   1.670   8.431   5.571
 2316WAT      O 7189   4.998   8.513   7.212
 2316WAT     H1 7190   4.941   8.503   7.131
 2316WAT     H2 7191   4.941   8.540   7.290
 2317WAT      O 7192   7.605   8.856   3.097
 2317WAT     H1 7193   7.694   8.885   3.131
 2317WAT     H2 7194   7.615   8.776   3.038
 2318WAT      O 7195   4.373   5.783   2.645
 2318WAT     H1 7196   4.380   5.764   2.743
 2318WAT     H2 7197   4.404   5.703   2.593
 2319WAT      O 7198   3.788   2.986   2.314
 2319WAT     H1 7199   3.785   3.085   2.302
 2319WAT     H2 7200   3.695   2.949   2.312
 2320WAT      O 7201   0.012   3.209   9.650
 2320WAT     H1 7202  -0.034   3.254   9.728
 2320WAT     H2 7203   0.110   3.205   9.668
 2321WAT      O 7204   8.802   9.369   5.716
 2321WAT     H1 7205   8.777   9.323   5.631
 2321WAT     H2 7206   8.733   9.348   5.786
 2322WAT      O 7207   6.880   7.540   7.942
 2322WAT     H1 7208   6.812   7.529   8.014
 2322WAT     H2 7209   6.933   7.624   7.958
 2323WAT      O 7210   5.788   8.788   0.403
 2323WAT     H1 7211   5.874   8.753   0.367
 2323WAT     H2 7212   5.737   8.714   0.447
 2324WAT      O 7213   7.515   5.471   5.363
 2324WAT     H1 7214   7.571   5.532   5.420
 2324WAT     H2 7215   7.457   5.527   5.303
 2325WAT      O 7216   4.290   3.732   0.351
 2325WAT     H1 7217   4.238   3.747   0.434
 2325WAT     H2 7218   4.325   3.819   0.316
 2326WAT      O 7219   4.464   9.464   2.344
 2326WAT     H1 7220   4.546   9.409   2.332
 2326WAT     H2 7221   4.466   9.510   2.432
 2327WAT      O 7222   7.565   9.217   4.355
 2327WAT     H1 7223   7.630   9.150   4.392
 2327WAT     H2 7224   7.600   9.309   4.370
 2328WAT      O 7225   5.895   5.694   8.287
 2328WAT     H1 7226   5.864   5.695   8.382
 2328WAT     H2 7227   5.993   5.671   8.284
 2329WAT      O 7228   1.503   0.180   9.702
 2329WAT     H1 7229   1.454   0.173   9.615
 2329WAT     H2 7230   1.440   0.165   9.777
 2330WAT      O 7231   8.033   2.385   2.545
 2330WAT     H1 7232   8.106   2.358   2.482
 2330WAT     H2 7233   7.945   2.385   2.497
 2331WAT      O 7234   8.186   0.635   2.206
 2331WAT     H1 7235   8.155   0.675   2.120
 2331WAT     H2 7236   8.285   0.623   2.203
 2332WAT      O 7237   6.277   1.917   9.447
 2332WAT     H1 7238   6.315   1.940   9.357
 2332WAT     H2 7239   6.201   1.979   9.468
 2333WAT      O 7240   5.038   9.190   3.885
 2333WAT     H1 7241   5.114   9.190   3.821
 2333WAT     H2 7242   4.980   9.110   3.868
 2334WAT      O 7243   0.196   2.279   3.017
 2334WAT     H1 7244   0.184   2.347   3.088
 2334WAT     H2 7245   0.144   2.306   2.936
 2335WAT      O 7246   8.327   2.767   8.413
 2335WAT     H1 7247   8.401   2.706   8.440
 2335WAT     H2 7248   8.277   2.726   8.337
 2336WAT      O 7249   1.341   7.285   6.397
 2336WAT     H1 7250   1.263   7.222   6.394
 2336WAT     H2 7251   1.424   7.234   6.420
 2337WAT      O 7252   3.221   1.118   1.492
 2337WAT     H1 7253   3.225   1.217   1.498
 2337WAT     H2 7254   3.243   1.078   1.581
 2338WAT      O 7255   7.321   6.554   8.614
 2338WAT     H1 7256   7.371   6.476   8.651
 2338WAT     H2 7257   7.249   6.581   8.678
 2339WAT      O 7258   1.287   1.803   5.697
 2339WAT     H1 7259   1.366   1.742   5.693
 2339WAT     H2 7260   1.204   1.749   5.710
 2340WAT      O 7261   9.227   0.558   9.151
 2340WAT     H1 7262   9.278   0.616   9.215
 2340WAT     H2 7263   9.147   0.520   9.197
 2341WAT      O 7264   3.000   4.676   0.204
 2341WAT     H1 7265   2.926   4.612   0.223
 2341WAT     H2 7266   3.025   4.724   0.289
 2342WAT      O 7267   6.886   9.025   0.508
 2342WAT     H1 7268   6.929   9.100   0.459
 2342WAT     H2 7269   6.798   9.004   0.466
 2343WAT      O 7270   6.428   2.416   5.770
 2343WAT     H1 7271   6.514   2.415   5.720
 2343WAT     H2 7272   6.352   2.423   5.706
 2344WAT      O 7273   8.084   7.563   2.471
 2344WAT     H1 7274   8.160   7.629   2.478
 2344WAT     H2 7275   8.108   7.480   2.521
 2345WAT      O 7276   5.239   3.537   7.356
 2345WAT     H1 7277   5.162   3.511   7.298
 2345WAT     H2 7278   5.222   3.627   7.396
 2346WAT      O 7279   7.597   1.837   4.578
 2346WAT     H1 7280   7.695   1.837   4.557
 2346WAT     H2 7281   7.584   1.816   4.675
 2347WAT      O 7282   9.389   8.439   7.202
 2347WAT     H1 7283   9.386   8.517   7.264
 2347WAT     H2 7284   9.482   8.425   7.169
 2348WAT      O 7285   4.133   7.152   5.086
 2348WAT     H1 7286   4.109   7.177   4.992
 2348WAT     H2 7287   4.218   7.198   5.112
 2349WAT      O 7288   5.599   3.333   4.505
 2349WAT     H1 7289   5.634   3.397   4.436
 2349WAT     H2 7290   5.668   3.321   4.577
 2350WAT      O 7291   9.246   2.978   0.361
 2350WAT     H1 7292   9.222   2.975   0.264
 2350WAT     H2 7293   9.166   2.956   0.416
 2351WAT      O 7294   6.277   8.860   2.880
 2351WAT     H1 7295   6.344   8.927   2.910
 2351WAT     H2 7296   6.318   8.798   2.813
 2352WAT      O 7297   8.957   1.481   6.532
 2352WAT     H1 7298   8.991   1.406   6.476
 2352WAT     H2 7299   8.998   1.476   6.623
 2353WAT      O 7300   3.300   9.366   7.548
 2353WAT     H1 7301   3.307   9.318   7.635
 2353WAT     H2 7302   3.206   9.359   7.514
 2354WAT      O 7303   3.251   7.133   6.316
 2354WAT     H1 7304   3.212   7.049   6.353
 2354WAT     H2 7305   3.350   7.132   6.329
 2355WAT      O 7306   3.818   6.059   3.013
 2355WAT     H1 7307   3.902   6.021   2.975
 2355WAT     H2 7308   3.748   6.063   2.942
 2356WAT      O 7309   9.465   4.029   1.937
 2356WAT     H1 7310   9.414   4.054   1.855
 2356WAT     H2 7311   9.415   4.059   2.018
 2357WAT      O 7312   4.416   4.090   8.153
 2357WAT     H1 7313   4.470   4.072   8.236
 2357WAT     H2 7314   4.452   4.035   8.078
 2358WAT      O 7315   0.325   5.133   7.483
 2358WAT     H1 7316   0.248   5.100   7.430
 2358WAT     H2 7317   0.404   5.074   7.469
 2359WAT      O 7318   9.632   4.333   6.044
 2359WAT     H1 7319   9.557   4.384   6.003
 2359WAT     H2 7320   9.719   4.365   6.007
 2360WAT      O 7321   8.814   1.468   8.669
 2360WAT     H1 7322   8.764   1.555   8.663
 2360WAT     H2 7323   8.890   1.469   8.604
 2361WAT      O 7324   2.973   7.275   1.942
 2361WAT     H1 7325   2.920   7.198   1.977
 2361WAT     H2 7326   2.944   7.298   1.849
 2362WAT      O 7327   8.734   8.808   3.785
 2362WAT     H1 7328   8.789   8.809   3.701
 2362WAT     H2 7329   8.712   8.714   3.809
 2363WAT      O 7330   5.176   5.281   1.550
 2363WAT     H1 7331   5.270   5.280   1.585
 2363WAT     H2 7332   5.164   5.204   1.487
 2364WAT      O 7333   7.551   6.193   0.845
 2364WAT     H1 7334   7.646   6.195   0.813
 2364WAT     H2 7335   7.508   6.108   0.813
 2365WAT      O 7336   2.649   5.403   7.702
 2365WAT     H1 7337   2.562   5.444   7.675
 2365WAT     H2 7338   2.637   5.350   7.786
 2366WAT      O 7339   0.267   5.773   9.740
 2366WAT     H1 7340   0.190   5.737   9.792
 2366WAT     H2 7341   0.314   5.698   9.693
 2367WAT      O 7342   2.485   5.191   2.882
 2367WAT     H1 7343   2.461   5.285   2.906
 2367WAT     H2 7344   2.515   5.143   2.964
 2368WAT      O 7345   0.915   3.359   2.468
 2368WAT     H1 7346   0.844   3.292   2.448
 2368WAT     H2 7347   1.004   3.313   2.475
 2369WAT      O 7348   3.114   5.946   3.504
 2369WAT     H1 7349   3.152   5.916   3.591
 2369WAT     H2 7350   3.048   6.020   3.520
 2370WAT      O 7351   5.807   0.267   6.238
 2370WAT     H1 7352   5.837   0.336   6.172
 2370WAT     H2 7353   5.765   0.312   6.317
 2371WAT      O 7354   1.195   0.399   2.138
 2371WAT     H1 7355   1.158   0.376   2.228
 2371WAT     H2 7356   1.151   0.482   2.104
 2372WAT      O 7357   5.503   5.233   4.182
 2372WAT     H1 7358   5.511   5.332   4.195
 2372WAT     H2 7359   5.567   5.203   4.112
 2373WAT      O 7360   9.205   4.266   6.627
 2373WAT     H1 7361   9.195   4.323   6.709
 2373WAT     H2 7362   9.148   4.184   6.637
 2374WAT      O 7363   5.005   5.717   2.117
 2374WAT     H1 7364   5.074   5.731   2.045
 2374WAT     H2 7365   5.034   5.764   2.200
 2375WAT      O 7366   6.832   4.508   6.459
 2375WAT     H1 7367   6.928   4.518   6.435
 2375WAT     H2 7368   6.801   4.590   6.507
 2376WAT      O 7369   6.627   0.086   5.055
 2376WAT     H1 7370   6.695   0.156   5.034
 2376WAT     H2 7371   6.573   0.114   5.135
 2377WAT      O 7372   1.933   4.281   1.023
 2377WAT     H1 7373   1.910   4.305   1.117
 2377WAT     H2 7374   1.962   4.186   1.019
 2378WAT      O 7375   3.235   3.486   1.989
 2378WAT     H1 7376   3.254   3.583   1.974
 2378WAT     H2 7377   3.313   3.443   2.034
 2379WAT      O 7378   3.541   6.699   4.302
 2379WAT     H1 7379   3.453   6.680   4.346
 2379WAT     H2 7380   3.576   6.787   4.332
 2380WAT      O 7381   5.034   1.157   1.883
 2380WAT     H1 7382   4.962   1.200   1.938
 2380WAT     H2 7383   5.118   1.152   1.937
 2381WAT      O 7384   2.941   7.899   6.189
 2381WAT     H1 7385   2.884   7.917   6.268
 2381WAT     H2 7386   2.956   7.984   6.138
 2382WAT      O 7387   3.344   6.262   8.970
 2382WAT     H1 7388   3.293   6.348   8.979
 2382WAT     H2 7389   3.302   6.206   8.899
 2383WAT      O 7390   6.347   1.192   5.129
 2383WAT     H1 7391   6.345   1.181   5.030
 2383WAT     H2 7392   6.434   1.235   5.156
 2384WAT      O 7393   6.770   7.044   6.412
 2384WAT     H1 7394   6.701   7.103   6.453
 2384WAT     H2 7395   6.853   7.045   6.469
 2385WAT      O 7396   8.946   4.392   7.424
 2385WAT     H1 7397   8.999   4.477   7.423
 2385WAT     H2 7398   8.953   4.347   7.335
 2386WAT      O 7399   6.775   0.420   9.712
 2386WAT     H1 7400   6.801   0.486   9.642
 2386WAT     H2 7401   6.681   0.388   9.695
 2387WAT      O 7402   4.049   0.618   2.947
 2387WAT     H1 7403   4.118   0.660   3.005
 2387WAT     H2 7404   3.967   0.599   3.001
 2388WAT      O 7405   2.555   8.711   9.193
 2388WAT     H1 7406   2.577   8.621   9.230
 2388WAT     H2 7407   2.504   8.700   9.107
 2389WAT      O 7408   1.753   2.314   4.394
 2389WAT     H1 7409   1.827   2.360   4.345
 2389WAT     H2 7410   1.783   2.290   4.486
 2390WAT      O 7411   5.500   5.960   4.834
 2390WAT     H1 7412   5.488   5.975   4.932
 2390WAT     H2 7413   5.576   6.015   4.800
 2391WAT      O 7414   8.459   8.075   6.925
 2391WAT     H1 7415   8.430   8.001   6.865
 2391WAT     H2 7416   8.477   8.039   7.017
 2392WAT      O 7417   4.228   0.055   6.023
 2392WAT     H1 7418   4.225   0.152   6.000
 2392WAT     H2 7419   4.258   0.002   5.943
 2393WAT      O 7420   5.331   7.579   6.027
 2393WAT     H1 7421   5.354   7.677   6.027
 2393WAT     H2 7422   5.278   7.557   6.108
 2394WAT      O 7423   6.944   0.127   2.077
 2394WAT     H1 7424   6.963   0.222   2.101
 2394WAT     H2 7425   6.849   0.119   2.047
 2395WAT      O 7426   3.405   7.690   2.859
 2395WAT     H1 7427   3.483   7.645   2.902
 2395WAT     H2 7428   3.437   7.757   2.792
 2396WAT      O 7429   6.096   9.487   1.406
 2396WAT     H1 7430   6.126   9.556   1.472
 2396WAT     H2 7431   6.133   9.510   1.316
 2397WAT      O 7432   6.566   5.659   4.824
 2397WAT     H1 7433   6.649   5.623   4.780
 2397WAT     H2 7434   6.494   5.589   4.821
 2398WAT      O 7435   1.877   7.690   3.027
 2398WAT     H1 7436   1.896   7.741   3.111
 2398WAT     H2 7437   1.909   7.596   3.037
 2399WAT      O 7438   5.309   5.329   9.461
 2399WAT     H1 7439   5.397   5.352   9.418
 2399WAT     H2 7440   5.269   5.251   9.414
 2400WAT      O 7441   7.114   1.183   2.892
 2400WAT     H1 7442   7.085   1.143   2.979
 2400WAT     H2 7443   7.192   1.243   2.907
 2401WAT      O 7444   1.038   3.902   8.810
 2401WAT     H1 7445   1.072   3.996   8.805
 2401WAT     H2 7446   1.059   3.864   8.900
 2402WAT      O 7447   6.144   0.801   9.279
 2402WAT     H1 7448   6.113   0.720   9.228
 2402WAT     H2 7449   6.104   0.800   9.370
 2403WAT      O 7450   2.141   4.017   5.782
 2403WAT     H1 7451   2.222   3.974   5.743
 2403WAT     H2 7452   2.129   4.107   5.742
 2404WAT      O 7453   8.231   8.169   4.187
 2404WAT     H1 7454   8.166   8.222   4.241
 2404WAT     H2 7455   8.225   8.073   4.211
 2405WAT      O 7456   9.704   3.868   5.955
 2405WAT     H1 7457   9.635   3.802   5.926
 2405WAT     H2 7458   9.666   3.927   6.026
 2406WAT      O 7459   9.155   9.358   3.850
 2406WAT     H1 7460   9.192   9.444   3.817
 2406WAT     H2 7461   9.226   9.306   3.897
 2407WAT      O 7462   1.897   1.282   0.357
 2407WAT     H1 7463   1.973   1.238   0.310
 2407WAT     H2 7464   1.831   1.317   0.291
 2408WAT      O 7465   7.812   5.215   2.674
 2408WAT     H1 7466   7.853   5.298   2.637
 2408WAT     H2 7467   7.716   5.210   2.644
 2409WAT      O 7468   4.981   3.929   5.287
 2409WAT     H1 7469   4.931   4.013   5.309
 2409WAT     H2 7470   4.956   3.857   5.350
 2410WAT      O 7471   5.385   2.680   9.531
 2410WAT     H1 7472   5.363   2.730   9.447
 2410WAT     H2 7473   5.304   2.675   9.589
 2411WAT      O 7474   6.310   1.160   4.841
 2411WAT     H1 7475   6.277   1.117   4.758
 2411WAT     H2 7476   6.391   1.216   4.820
 2412WAT      O 7477   6.296   1.056   0.414
 2412WAT     H1 7478   6.371   1.113   0.379
 2412WAT     H2 7479   6.300   0.966   0.371
 2413WAT      O 7480   8.853   8.356   5.327
 2413WAT     H1 7481   8.821   8.423   5.394
 2413WAT     H2 7482   8.816   8.378   5.237
 2414WAT      O 7483   3.366   0.690   0.590
 2414WAT     H1 7484   3.266   0.697   0.588
 2414WAT     H2 7485   3.404   0.774   0.630
 2415WAT      O 7486   6.937   8.124   9.841
 2415WAT     H1 7487   6.928   8.206   9.897
 2415WAT     H2 7488   7.032   8.114   9.812
 2416WAT      O 7489   6.673   0.218   2.271
 2416WAT     H1 7490   6.648   0.150   2.203
 2416WAT     H2 7491   6.723   0.293   2.227
 2417WAT      O 7492   5.037   7.073   4.255
 2417WAT     H1 7493   4.954   7.020   4.238
 2417WAT     H2 7494   5.090   7.080   4.171
 2418WAT      O 7495   1.260   3.201   9.153
 2418WAT     H1 7496   1.253   3.298   9.133
 2418WAT     H2 7497   1.351   3.168   9.127
 2419WAT      O 7498   6.183   0.670   3.422
 2419WAT     H1 7499   6.270   0.662   3.470
 2419WAT     H2 7500   6.108   0.645   3.484
 2420WAT      O 7501   5.240   0.156   4.075
 2420WAT     H1 7502   5.249   0.207   3.989
 2420WAT     H2 7503   5.260   0.216   4.152
 2421WAT      O 7504   7.748   6.392   0.302
 2421WAT     H1 7505   7.842   6.359   0.304
 2421WAT     H2 7506   7.717   6.400   0.208
 2422WAT      O 7507   3.865   6.675   6.895
 2422WAT     H1 7508   3.882   6.589   6.847
 2422WAT     H2 7509   3.802   6.732   6.841
 2423WAT      O 7510   3.742   2.664   5.995
 2423WAT     H1 7511   3.831   2.703   6.015
 2423WAT     H2 7512   3.684   2.732   5.951
 2424WAT      O 7513   8.751   0.247   0.259
 2424WAT     H1 7514   8.826   0.191   0.293
 2424WAT     H2 7515   8.689   0.270   0.334
 2425WAT      O 7516   6.927   4.841   4.839
 2425WAT     H1 7517   6.955   4.882   4.926
 2425WAT     H2 7518   6.980   4.757   4.823
 2426WAT      O 7519   1.297   6.343   0.289
 2426WAT     H1 7520   1.246   6.281   0.228
 2426WAT     H2 7521   1.355   6.403   0.234
 2427WAT      O 7522   8.550   1.047   7.982
 2427WAT     H1 7523   8.607   1.086   7.910
 2427WAT     H2 7524   8.556   1.104   8.064
 2428WAT      O 7525   5.733   8.523   3.485
 2428WAT     H1 7526   5.659   8.490   3.427
 2428WAT     H2 7527   5.699   8.596   3.544
 2429WAT      O 7528   8.321   7.055   2.568
 2429WAT     H1 7529   8.321   7.143   2.615
 2429WAT     H2 7530   8.368   7.065   2.480
 2430WAT      O 7531   4.653   2.613   5.642
 2430WAT     H1 7532   4.697   2.525   5.621
 2430WAT     H2 7533   4.723   2.682   5.657
 2431WAT      O 7534   8.013   7.849   7.062
 2431WAT     H1 7535   7.972   7.896   7.141
 2431WAT     H2 7536   7.957   7.769   7.038
 2432WAT      O 7537   1.428   7.243   0.768
 2432WAT     H1 7538   1.479   7.329   0.767
 2432WAT     H2 7539   1.330   7.263   0.766
 2433WAT      O 7540   5.882   8.698   2.867
 2433WAT     H1 7541   5.903   8.703   2.964
 2433WAT     H2 7542   5.933   8.770   2.818
 2434WAT      O 7543   8.844   0.553   8.093
 2434WAT     H1 7544   8.874   0.472   8.043
 2434WAT     H2 7545   8.913   0.579   8.160
 2435WAT      O 7546   5.745   9.342   0.750
 2435WAT     H1 7547   5.779   9.381   0.664
 2435WAT     H2 7548   5.763   9.243   0.751
 2436WAT      O 7549   2.793   0.634   3.525
 2436WAT     H1 7550   2.741   0.631   3.610
 2436WAT     H2 7551   2.810   0.541   3.493
 2437WAT      O 7552   6.450   9.334   4.209
 2437WAT     H1 7553   6.371   9.395   4.220
 2437WAT     H2 7554   6.509   9.341   4.289
 2438WAT      O 7555   4.805   8.578   1.779
 2438WAT     H1 7556   4.825   8.482   1.800
 2438WAT     H2 7557   4.812   8.592   1.680
 2439WAT      O 7558   6.285   8.473   1.343
 2439WAT     H1 7559   6.250   8.406   1.278
 2439WAT     H2 7560   6.384   8.481   1.332
 2440WAT      O 7561   9.368   2.983   8.815
 2440WAT     H1 7562   9.405   3.048   8.881
 2440WAT     H2 7563   9.319   3.034   8.744
 2441WAT      O 7564   2.253   7.922   1.486
 2441WAT     H1 7565   2.170   7.952   1.532
 2441WAT     H2 7566   2.323   7.902   1.554
 2442WAT      O 7567   9.473   4.729   1.432
 2442WAT     H1 7568   9.453   4.704   1.338
 2442WAT     H2 7569   9.405   4.795   1.465
 2443WAT      O 7570   2.773   0.716   0.180
 2443WAT     H1 7571   2.751   0.813   0.187
 2443WAT     H2 7572   2.765   0.673   0.269
 2444WAT      O 7573   6.626   4.494   0.747
 2444WAT     H1 7574   6.536   4.463   0.778
 2444WAT     H2 7575   6.617   4.581   0.700
 2445WAT      O 7576   5.106   9.258   0.416
 2445WAT     H1 7577   5.070   9.349   0.436
 2445WAT     H2 7578   5.200   9.251   0.452
 2446WAT      O 7579   1.048   8.596   3.920
 2446WAT     H1 7580   0.989   8.554   3.990
 2446WAT     H2 7581   1.139   8.611   3.959
 2447WAT      O 7582   3.675   0.877   9.681
 2447WAT     H1 7583   3.686   0.887   9.779
 2447WAT     H2 7584   3.666   0.967   9.638
 2448WAT      O 7585   6.081   0.440   7.223
 2448WAT     H1 7586   6.010   0.498   7.261
 2448WAT     H2 7587   6.171   0.482   7.238
 2449WAT      O 7588   5.737   1.574   5.015
 2449WAT     H1 7589   5.702   1.512   4.945
 2449WAT     H2 7590   5.837   1.579   5.007
 2450WAT      O 7591   6.249   5.955   5.639
 2450WAT     H1 7592   6.164   6.004   5.659
 2450WAT     H2 7593   6.297   6.001   5.564
 2451WAT      O 7594   9.261   4.907   1.464
 2451WAT     H1 7595   9.172   4.925   1.422
 2451WAT     H2 7596   9.255   4.923   1.563
 2452WAT      O 7597   7.879   8.700   7.744
 2452WAT     H1 7598   7.841   8.777   7.693
 2452WAT     H2 7599   7.962   8.730   7.791
 2453WAT      O 7600   8.590   8.886   5.192
 2453WAT     H1 7601   8.557   8.817   5.257
 2453WAT     H2 7602   8.655   8.845   5.129
 2454WAT      O 7603   7.575   3.706   8.974
 2454WAT     H1 7604   7.541   3.762   8.899
 2454WAT     H2 7605   7.499   3.676   9.031
 2455WAT      O 7606   0.159   7.088   8.385
 2455WAT     H1 7607   0.136   7.181   8.413
 2455WAT     H2 7608   0.080   7.028   8.402
 2456WAT      O 7609   3.343   6.241   4.635
 2456WAT     H1 7610   3.422   6.208   4.686
 2456WAT     H2 7611   3.369   6.324   4.584
 2457WAT      O 7612   7.094   7.077   6.138
 2457WAT     H1 7613   7.121   7.151   6.076
 2457WAT     H2 7614   6.999   7.090   6.166
 2458WAT      O 7615   3.223   9.183   5.791
 2458WAT     H1 7616   3.287   9.245   5.836
 2458WAT     H2 7617   3.257   9.089   5.800
 2459WAT      O 7618   5.438   1.316   3.418
 2459WAT     H1 7619   5.485   1.349   3.336
 2459WAT     H2 7620   5.423   1.217   3.410
 2460WAT      O 7621   4.195   8.955   4.679
 2460WAT     H1 7622   4.168   8.866   4.717
 2460WAT     H2 7623   4.123   8.988   4.618
 2461WAT      O 7624   8.626   7.667   3.646
 2461WAT     H1 7625   8.689   7.599   3.609
 2461WAT     H2 7626   8.590   7.634   3.733
 2462WAT      O 7627   6.053   7.508   4.878
 2462WAT     H1 7628   6.083   7.524   4.972
 2462WAT     H2 7629   6.011   7.592   4.842
 2463WAT      O 7630   6.774   2.124   5.958
 2463WAT     H1 7631   6.771   2.208   6.011
 2463WAT     H2 7632   6.861   2.078   5.973
 2464WAT      O 7633   4.738   5.095   0.807
 2464WAT     H1 7634   4.716   5.172   0.748
 2464WAT     H2 7635   4.677   5.018   0.785
 2465WAT      O 7636   4.662   9.198   4.702
 2465WAT     H1 7637   4.648   9.271   4.769
 2465WAT     H2 7638   4.573   9.163   4.670
 2466WAT      O 7639   4.945   7.582   2.790
 2466WAT     H1 7640   4.977   7.635   2.711
 2466WAT     H2 7641   5.020   7.570   2.854
 2467WAT      O 7642   1.582   2.154   2.245
 2467WAT     H1 7643   1.665   2.197   2.279
 2467WAT     H2 7644   1.571   2.063   2.287
 2468WAT      O 7645   9.264   2.498   6.422
 2468WAT     H1 7646   9.317   2.484   6.339
 2468WAT     H2 7647   9.322   2.538   6.493
 2469WAT      O 7648   7.468   9.369   3.248
 2469WAT     H1 7649   7.380   9.334   3.216
 2469WAT     H2 7650   7.503   9.436   3.184
 2470WAT      O 7651   9.560   4.941   7.139
 2470WAT     H1 7652   9.548   4.879   7.217
 2470WAT     H2 7653   9.619   4.897   7.071
 2471WAT      O 7654   2.149   5.069   3.608
 2471WAT     H1 7655   2.118   4.975   3.597
 2471WAT     H2 7656   2.178   5.105   3.519
 2472WAT      O 7657   8.084   5.621   3.633
 2472WAT     H1 7658   8.121   5.693   3.693
 2472WAT     H2 7659   8.005   5.579   3.678
 2473WAT      O 7660   5.138   6.317   1.348
 2473WAT     H1 7661   5.127   6.402   1.400
 2473WAT     H2 7662   5.135   6.239   1.412
 2474WAT      O 7663   8.935   6.651   9.148
 2474WAT     H1 7664   8.962   6.570   9.201
 2474WAT     H2 7665   9.015   6.692   9.105
 2475WAT      O 7666   7.641   3.461   2.580
 2475WAT     H1 7667   7.665   3.540   2.524
 2475WAT     H2 7668   7.548   3.472   2.614
 2476WAT      O 7669   5.915   9.700   7.374
 2476WAT     H1 7670   6.006   9.727   7.343
 2476WAT     H2 7671   5.903   9.727   7.469
 2477WAT      O 7672   3.117   2.921   6.948
 2477WAT     H1 7673   3.060   2.839   6.951
 2477WAT     H2 7674   3.200   2.903   6.896
 2478WAT      O 7675   9.646   4.663   3.158
 2478WAT     H1 7676   9.569   4.599   3.155
 2478WAT     H2 7677   9.612   4.757   3.156
 2479WAT      O 7678   3.335   3.422   4.726
 2479WAT     H1 7679   3.391   3.403   4.645
 2479WAT     H2 7680   3.384   3.485   4.786
 2480WAT      O 7681   9.055   9.099   6.887
 2480WAT     H1 7682   9.104   9.043   6.954
 2480WAT     H2 7683   9.081   9.195   6.899
 2481WAT      O 7684   2.743   3.638   9.492
 2481WAT     H1 7685   2.730   3.621   9.590
 2481WAT     H2 7686   2.664   3.603   9.441
 2482WAT      O 7687   5.604   7.889   0.361
 2482WAT     H1 7688   5.555   7.905   0.275
 2482WAT     H2 7689   5.559   7.940   0.434
 2483WAT      O 7690   3.278   8.734   6.838
 2483WAT     H1 7691   3.253   8.825   6.806
 2483WAT     H2 7692   3.377   8.730   6.855
 2484WAT      O 7693   5.709   6.557   8.813
 2484WAT     H1 7694   5.780   6.577   8.745
 2484WAT     H2 7695   5.680   6.462   8.803
 2485WAT      O 7696   1.598   9.663   9.682
 2485WAT     H1 7697   1.564   9.660   9.588
 2485WAT     H2 7698   1.669   9.733   9.689
 2486WAT      O 7699   9.183   1.278   7.975
 2486WAT     H1 7700   9.100   1.312   7.931
 2486WAT     H2 7701   9.162   1.253   8.070
 2487WAT      O 7702   1.415   3.941   3.817
 2487WAT     H1 7703   1.469   4.022   3.842
 2487WAT     H2 7704   1.360   3.913   3.896
 2488WAT      O 7705   6.705   2.694   1.303
 2488WAT     H1 7706   6.741   2.622   1.243
 2488WAT     H2 7707   6.614   2.667   1.336
 2489WAT      O 7708   5.549   3.285   1.874
 2489WAT     H1 7709   5.574   3.380   1.893
 2489WAT     H2 7710   5.490   3.250   1.947
 2490WAT      O 7711   1.774   4.080   4.097
 2490WAT     H1 7712   1.825   3.995   4.113
 2490WAT     H2 7713   1.839   4.156   4.092
 2491WAT      O 7714   0.172   2.979   5.380
 2491WAT     H1 7715   0.121   3.057   5.346
 2491WAT     H2 7716   0.174   2.981   5.480
 2492WAT      O 7717   0.511   8.922   5.726
 2492WAT     H1 7718   0.437   8.870   5.685
 2492WAT     H2 7719   0.599   8.887   5.694
 2493WAT      O 7720   5.781   2.395   9.148
 2493WAT     H1 7721   5.784   2.321   9.215
 2493WAT     H2 7722   5.703   2.382   9.087
 2494WAT      O 7723   0.907   9.534   3.882
 2494WAT     H1 7724   0.819   9.580   3.874
 2494WAT     H2 7725   0.969   9.590   3.937
 2495WAT      O 7726   9.319   4.096   8.622
 2495WAT     H1 7727   9.237   4.125   8.671
 2495WAT     H2 7728   9.339   4.161   8.549
 2496WAT      O 7729   4.961   0.691   0.322
 2496WAT     H1 7730   4.986   0.654   0.411
 2496WAT     H2 7731   5.033   0.753   0.290
 2497WAT      O 7732   4.232   1.183   2.759
 2497WAT     H1 7733   4.226   1.094   2.712
 2497WAT     H2 7734   4.282   1.247   2.701
 2498WAT      O 7735   1.648   4.059   7.577
 2498WAT     H1 7736   1.639   4.049   7.478
 2498WAT     H2 7737   1.560   4.041   7.620
 2499WAT      O 7738   9.843   2.451   1.877
 2499WAT     H1 7739   9.780   2.377   1.898
 2499WAT     H2 7740   9.792   2.530   1.841
 2500WAT      O 7741   2.683   3.262   2.808
 2500WAT     H1 7742   2.598   3.232   2.763
 2500WAT     H2 7743   2.660   3.311   2.892
 2501WAT      O 7744   3.653   1.096   3.433
 2501WAT     H1 7745   3.684   1.191   3.435
 2501WAT     H2 7746   3.722   1.037   3.475
 2502WAT      O 7747   8.994   8.271   9.116
 2502WAT     H1 7748   8.989   8.172   9.105
 2502WAT     H2 7749   8.929   8.315   9.054
 2503WAT      O 7750   3.240   3.533   7.286
 2503WAT     H1 7751   3.179   3.604   7.321
 2503WAT     H2 7752   3.240   3.535   7.186
 2504WAT      O 7753   6.429   3.498   8.896
 2504WAT     H1 7754   6.443   3.403   8.922
 2504WAT     H2 7755   6.489   3.557   8.950
 2505WAT      O 7756   4.930   8.625   9.329
 2505WAT     H1 7757   4.924   8.549   9.393
 2505WAT     H2 7758   4.887   8.600   9.243
 2506WAT      O 7759   7.975   3.355   0.159
 2506WAT     H1 7760   7.905   3.304   0.210
 2506WAT     H2 7761   8.065   3.317   0.180
 2507WAT      O 7762   7.345   0.713   2.169
 2507WAT     H1 7763   7.260   0.717   2.222
 2507WAT     H2 7764   7.417   0.671   2.224
 2508WAT      O 7765   3.225   4.289   3.044
 2508WAT     H1 7766   3.183   4.213   3.094
 2508WAT     H2 7767   3.322   4.270   3.032
 2509WAT      O 7768   4.616   2.193   8.350
 2509WAT     H1 7769   4.569   2.146   8.426
 2509WAT     H2 7770   4.560   2.185   8.267
 2510WAT      O 7771   1.938   7.174   5.880
 2510WAT     H1 7772   2.028   7.130   5.878
 2510WAT     H2 7773   1.948   7.270   5.857
 2511WAT      O 7774   6.313   6.239   6.141
 2511WAT     H1 7775   6.354   6.315   6.190
 2511WAT     H2 7776   6.326   6.155   6.194
 2512WAT      O 7777   5.094   1.406   2.356
 2512WAT     H1 7778   5.186   1.417   2.319
 2512WAT     H2 7779   5.030   1.389   2.282
 2513WAT      O 7780   2.655   6.844   2.773
 2513WAT     H1 7781   2.693   6.752   2.758
 2513WAT     H2 7782   2.717   6.897   2.831
 2514WAT      O 7783   9.687   5.501   9.159
 2514WAT     H1 7784   9.750   5.470   9.088
 2514WAT     H2 7785   9.681   5.601   9.156
 2515WAT      O 7786   3.257   3.016   2.757
 2515WAT     H1 7787   3.299   2.957   2.689
 2515WAT     H2 7788   3.258   2.970   2.846
 2516WAT      O 7789   2.678   0.747   1.309
 2516WAT     H1 7790   2.747   0.744   1.381
 2516WAT     H2 7791   2.694   0.826   1.250
 2517WAT      O 7792   8.352   8.920   2.710
 2517WAT     H1 7793   8.434   8.950   2.759
 2517WAT     H2 7794   8.281   8.897   2.776
 2518WAT      O 7795   1.634   7.262   8.717
 2518WAT     H1 7796   1.536   7.260   8.737
 2518WAT     H2 7797   1.650   7.293   8.624
 2519WAT      O 7798   2.832   3.797   6.875
 2519WAT     H1 7799   2.853   3.893   6.896
 2519WAT     H2 7800   2.907   3.739   6.907
 2520WAT      O 7801   8.847   4.305   3.886
 2520WAT     H1 7802   8.938   4.336   3.915
 2520WAT     H2 7803   8.779   4.374   3.911
 2521WAT      O 7804   1.618   8.659   0.580
 2521WAT     H1 7805   1.581   8.692   0.667
 2521WAT     H2 7806   1.546   8.610   0.530
 2522WAT      O 7807   2.547   5.619   4.597
 2522WAT     H1 7808   2.544   5.592   4.694
 2522WAT     H2 7809   2.616   5.690   4.584
 2523WAT      O 7810   6.475   8.620   7.282
 2523WAT     H1 7811   6.425   8.611   7.368
 2523WAT     H2 7812   6.417   8.590   7.206
 2524WAT      O 7813   5.298   4.667   9.117
 2524WAT     H1 7814   5.348   4.724   9.051
 2524WAT     H2 7815   5.218   4.717   9.150
 2525WAT      O 7816   1.017   7.803   3.334
 2525WAT     H1 7817   0.995   7.706   3.335
 2525WAT     H2 7818   0.995   7.841   3.244
 2526WAT      O 7819   6.231   1.509   4.503
 2526WAT     H1 7820   6.149   1.534   4.553
 2526WAT     H2 7821   6.312   1.526   4.560
 2527WAT      O 7822   4.948   8.079   1.007
 2527WAT     H1 7823   4.993   8.104   1.093
 2527WAT     H2 7824   4.972   8.145   0.936
 2528WAT      O 7825   8.906   5.104   6.821
 2528WAT     H1 7826   8.909   5.082   6.723
 2528WAT     H2 7827   8.851   5.036   6.869
 2529WAT      O 7828   0.458   2.251   2.864
 2529WAT     H1 7829   0.400   2.219   2.939
 2529WAT     H2 7830   0.400   2.297   2.796
 2530WAT      O 7831   9.504   3.495   1.849
 2530WAT     H1 7832   9.482   3.418   1.910
 2530WAT     H2 7833   9.575   3.552   1.891
 2531WAT      O 7834   0.178   7.262   5.642
 2531WAT     H1 7835   0.234   7.278   5.560
 2531WAT     H2 7836   0.182   7.165   5.666
 2532WAT      O 7837   9.793   5.926   1.457
 2532WAT     H1 7838   9.863   5.988   1.491
 2532WAT     H2 7839   9.827   5.877   1.377
 2533WAT      O 7840   3.684   1.913   4.884
 2533WAT     H1 7841   3.638   1.864   4.811
 2533WAT     H2 7842   3.667   1.866   4.971
 2534WAT      O 7843   3.542   1.960   2.378
 2534WAT     H1 7844   3.634   1.963   2.338
 2534WAT     H2 7845   3.518   1.866   2.398
 2535WAT      O 7846   7.562   4.551   3.346
 2535WAT     H1 7847   7.539   4.468   3.397
 2535WAT     H2 7848   7.481   4.609   3.339
 2536WAT      O 7849   3.010   7.047   7.180
 2536WAT     H1 7850   3.045   6.954   7.169
 2536WAT     H2 7851   2.993   7.065   7.277
 2537WAT      O 7852   4.913   7.308   4.186
 2537WAT     H1 7853   4.974   7.238   4.225
 2537WAT     H2 7854   4.933   7.318   4.089
 2538WAT      O 7855   5.894   2.559   6.158
 2538WAT     H1 7856   5.940   2.632   6.208
 2538WAT     H2 7857   5.926   2.559   6.063
 2539WAT      O 7858   2.735   0.451   1.264
 2539WAT     H1 7859   2.707   0.546   1.256
 2539WAT     H2 7860   2.656   0.392   1.244
 2540WAT      O 7861   7.444   3.247   4.510
 2540WAT     H1 7862   7.435   3.209   4.602
 2540WAT     H2 7863   7.367   3.217   4.454
 2541WAT      O 7864   5.074   2.361   0.441
 2541WAT     H1 7865   5.129   2.354   0.524
 2541WAT     H2 7866   5.127   2.409   0.371
 2542WAT      O 7867   4.128   6.039   8.977
 2542WAT     H1 7868   4.155   5.967   9.041
 2542WAT     H2 7869   4.175   6.124   9.002
 2543WAT      O 7870   2.791   9.426   1.947
 2543WAT     H1 7871   2.730   9.379   2.012
 2543WAT     H2 7872   2.869   9.367   1.926
 2544WAT      O 7873   6.314   6.697   2.070
 2544WAT     H1 7874   6.376   6.618   2.068
 2544WAT     H2 7875   6.269   6.705   1.981
 2545WAT      O 7876   1.721   7.157   2.653
 2545WAT     H1 7877   1.733   7.149   2.554
 2545WAT     H2 7878   1.655   7.230   2.673
 2546WAT      O 7879   6.377   0.850   3.171
 2546WAT     H1 7880   6.300   0.786   3.165
 2546WAT     H2 7881   6.411   0.852   3.265
 2547WAT      O 7882   7.614   7.286   8.258
 2547WAT     H1 7883   7.619   7.301   8.357
 2547WAT     H2 7884   7.559   7.358   8.216
 2548WAT      O 7885   5.840   4.125   9.854
 2548WAT     H1 7886   5.875   4.034   9.879
 2548WAT     H2 7887   5.864   4.144   9.759
 2549WAT      O 7888   0.783   9.177   0.847
 2549WAT     H1 7889   0.740   9.266   0.828
 2549WAT     H2 7890   0.713   9.113   0.879
 2550WAT      O 7891   3.347   1.958   0.357
 2550WAT     H1 7892   3.284   1.948   0.433
 2550WAT     H2 7893   3.426   2.013   0.386
 2551WAT      O 7894   7.424   0.008   0.488
 2551WAT     H1 7895   7.378   0.071   0.426
 2551WAT     H2 7896   7.368  -0.006   0.570
 2552WAT      O 7897   3.966   4.500   8.445
 2552WAT     H1 7898   3.872   4.536   8.443
 2552WAT     H2 7899   3.972   4.429   8.515
 2553WAT      O 7900   7.745   4.894   5.373
 2553WAT     H1 7901   7.824   4.853   5.420
 2553WAT     H2 7902   7.754   4.879   5.275
 2554WAT      O 7903   5.918   0.851   0.545
 2554WAT     H1 7904   5.913   0.778   0.477
 2554WAT     H2 7905   5.829   0.895   0.554
 2555WAT      O 7906   2.760   9.080   5.310
 2555WAT     H1 7907   2.732   9.029   5.391
 2555WAT     H2 7908   2.839   9.036   5.268
 2556WAT      O 7909   3.988   1.413   8.801
 2556WAT     H1 7910   3.975   1.452   8.710
 2556WAT     H2 7911   3.931   1.331   8.811
 2557WAT      O 7912   4.271   3.992   1.270
 2557WAT     H1 7913   4.360   4.023   1.237
 2557WAT     H2 7914   4.269   3.892   1.275
 2558WAT      O 7915   5.994   1.945   3.240
 2558WAT     H1 7916   5.965   1.855   3.207
 2558WAT     H2 7917   5.953   2.017   3.185
 2559WAT      O 7918   5.823   4.244   1.548
 2559WAT     H1 7919   5.854   4.213   1.458
 2559WAT     H2 7920   5.760   4.176   1.586
 2560WAT      O 7921   8.096   1.490   9.644
 2560WAT     H1 7922   8.041   1.410   9.665
 2560WAT     H2 7923   8.061   1.535   9.562
 2561WAT      O 7924   0.632   8.880   6.918
 2561WAT     H1 7925   0.687   8.856   6.838
 2561WAT     H2 7926   0.687   8.936   6.980
 2562WAT      O 7927   4.608   1.646   2.979
 2562WAT     H1 7928   4.605   1.553   3.015
 2562WAT     H2 7929   4.704   1.675   2.972
 2563WAT      O 7930   4.587   3.599   5.391
 2563WAT     H1 7931   4.492   3.612   5.362
 2563WAT     H2 7932   4.589   3.552   5.479
 2564WAT      O 7933   6.978   2.164   0.034
 2564WAT     H1 7934   7.068   2.194   0.066
 2564WAT     H2 7935   6.915   2.241   0.038
 2565WAT      O 7936   7.870   8.633   5.198
 2565WAT     H1 7937   7.955   8.631   5.144
 2565WAT     H2 7938   7.803   8.571   5.157
 2566WAT      O 7939   4.269   8.994   2.143
 2566WAT     H1 7940   4.349   9.031   2.097
 2566WAT     H2 7941   4.288   8.985   2.241
 2567WAT      O 7942   2.656   8.461   9.270
 2567WAT     H1 7943   2.591   8.385   9.266
 2567WAT     H2 7944   2.707   8.456   9.356
 2568WAT      O 7945   3.253   8.848   3.195
 2568WAT     H1 7946   3.200   8.853   3.279
 2568WAT     H2 7947   3.192   8.826   3.118
 2569WAT      O 7948   3.976   9.126   2.175
 2569WAT     H1 7949   4.074   9.119   2.194
 2569WAT     H2 7950   3.925   9.081   2.248
 2570WAT      O 7951   7.418   6.665   6.937
 2570WAT     H1 7952   7.510   6.661   6.901
 2570WAT     H2 7953   7.421   6.662   7.037
 2571WAT      O 7954   3.583   3.816   7.768
 2571WAT     H1 7955   3.617   3.779   7.681
 2571WAT     H2 7956   3.575   3.742   7.835
 2572WAT      O 7957   7.881   4.421   7.088
 2572WAT     H1 7958   7.972   4.386   7.111
 2572WAT     H2 7959   7.831   4.354   7.034
 2573WAT      O 7960   8.601   8.041   8.928
 2573WAT     H1 7961   8.657   8.118   8.897
 2573WAT     H2 7962   8.512   8.044   8.882
 2574WAT      O 7963   3.799   5.554   5.937
 2574WAT     H1 7964   3.855   5.636   5.948
 2574WAT     H2 7965   3.741   5.543   6.018
 2575WAT      O 7966   9.061   4.579   4.301
 2575WAT     H1 7967   9.088   4.483   4.297
 2575WAT     H2 7968   9.081   4.623   4.213
 2576WAT      O 7969   0.707   4.131   3.837
 2576WAT     H1 7970   0.676   4.188   3.760
 2576WAT     H2 7971   0.806   4.143   3.849
 2577WAT      O 7972   2.897   0.076   8.306
 2577WAT     H1 7973   2.955   0.116   8.235
 2577WAT     H2 7974   2.923   0.111   8.395
 2578WAT      O 7975   4.898   2.883   0.254
 2578WAT     H1 7976   4.989   2.852   0.282
 2578WAT     H2 7977   4.841   2.803   0.235
 2579WAT      O 7978   9.082   1.301   6.387
 2579WAT     H1 7979   9.078   1.231   6.316
 2579WAT     H2 7980   9.136   1.379   6.354
 2580WAT      O 7981   1.603   3.502   4.130
 2580WAT     H1 7982   1.653   3.551   4.059
 2580WAT     H2 7983   1.652   3.418   4.153
 2581WAT      O 7984   9.075   6.481   5.459
 2581WAT     H1 7985   9.083   6.447   5.553
 2581WAT     H2 7986   9.137   6.429   5.400
 2582WAT      O 7987   2.133   0.235   1.446
 2582WAT     H1 7988   2.136   0.333   1.462
 2582WAT     H2 7989   2.067   0.193   1.508
 2583WAT      O 7990   7.745   9.564   9.427
 2583WAT     H1 7991   7.661   9.577   9.478
 2583WAT     H2 7992   7.747   9.625   9.348
 2584WAT      O 7993   9.812   0.860   1.032
 2584WAT     H1 7994   9.856   0.935   0.983
 2584WAT     H2 7995   9.806   0.883   1.129
 2585WAT      O 7996   0.501   8.959   8.641
 2585WAT     H1 7997   0.448   8.899   8.700
 2585WAT     H2 7998   0.575   8.907   8.598
 2586WAT      O 7999   2.602   5.504   0.301
 2586WAT     H1 8000   2.569   5.515   0.207
 2586WAT     H2 8001   2.685   5.448   0.301
 2587WAT      O 8002   6.522   4.176   6.167
 2587WAT     H1 8003   6.449   4.225   6.215
 2587WAT     H2 8004   6.499   4.166   6.071
 2588WAT      O 8005   9.366   4.693   2.143
 2588WAT     H1 8006   9.395   4.597   2.150
 2588WAT     H2 8007   9.413   4.736   2.066
 2589WAT      O 8008   9.710   1.911   1.708
 2589WAT     H1 8009   9.802   1.877   1.725
 2589WAT     H2 8010   9.649   1.882   1.782
 2590WAT      O 8011   2.287   6.464   5.854
 2590WAT     H1 8012   2.383   6.447   5.832
 2590WAT     H2 8013   2.241   6.503   5.775
 2591WAT      O 8014   2.730   7.482   2.786
 2591WAT     H1 8015   2.679   7.464   2.869
 2591WAT     H2 8016   2.666   7.491   2.709
 2592WAT      O 8017   8.963   5.544   4.096
 2592WAT     H1 8018   9.005   5.600   4.167
 2592WAT     H2 8019   8.967   5.447   4.123
 2593WAT      O 8020   3.631   7.056   6.893
 2593WAT     H1 8021   3.661   7.143   6.856
 2593WAT     H2 8022   3.541   7.067   6.935
 2594WAT      O 8023   8.642   6.476   1.725
 2594WAT     H1 8024   8.574   6.549   1.729
 2594WAT     H2 8025   8.726   6.511   1.684
 2595WAT      O 8026   8.236   6.489   8.880
 2595WAT     H1 8027   8.150   6.494   8.829
 2595WAT     H2 8028   8.219   6.457   8.973
 2596WAT      O 8029   4.155   3.313   0.443
 2596WAT     H1 8030   4.065   3.304   0.487
 2596WAT     H2 8031   4.223   3.263   0.496
 2597WAT      O 8032   4.268   9.705   6.877
 2597WAT     H1 8033   4.302   9.744   6.963
 2597WAT     H2 8034   4.327   9.629   6.849
 2598WAT      O 8035   8.698   9.484   7.987
 2598WAT     H1 8036   8.638   9.448   8.058
 2598WAT     H2 8037   8.759   9.553   8.026
 2599WAT      O 8038   9.329   2.417   8.598
 2599WAT     H1 8039   9.378   2.449   8.679
 2599WAT     H2 8040   9.333   2.487   8.526
 2600WAT      O 8041   6.131   7.449   7.124
 2600WAT     H1 8042   6.047   7.484   7.167
 2600WAT     H2 8043   6.110   7.419   7.031
 2601WAT      O 8044   8.460   6.457   9.629
 2601WAT     H1 8045   8.456   6.556   9.648
 2601WAT     H2 8046   8.537   6.417   9.678
 2602WAT      O 8047   2.821   9.475   4.996
 2602WAT     H1 8048   2.796   9.380   4.979
 2602WAT     H2 8049   2.849   9.486   5.092
 2603WAT      O 8050   5.046   9.110   1.659
 2603WAT     H1 8051   5.124   9.056   1.692
 2603WAT     H2 8052   5.068   9.207   1.663
 2604WAT      O 8053   9.076   8.572   1.629
 2604WAT     H1 8054   9.014   8.552   1.554
 2604WAT     H2 8055   9.077   8.494   1.693
 2605WAT      O 8056   0.941   6.056   9.098
 2605WAT     H1 8057   1.034   6.094   9.093
 2605WAT     H2 8058   0.945   5.958   9.079
 2606WAT      O 8059   0.254   7.635   6.785
 2606WAT     H1 8060   0.283   7.694   6.861
 2606WAT     H2 8061   0.330   7.623   6.721
 2607WAT      O 8062   7.314   8.061   3.350
 2607WAT     H1 8063   7.217   8.069   3.375
 2607WAT     H2 8064   7.327   7.980   3.292
 2608WAT      O 8065   4.490   0.182   4.446
 2608WAT     H1 8066   4.502   0.274   4.408
 2608WAT     H2 8067   4.495   0.188   4.546
 2609WAT      O 8068   8.568   6.543   5.257
 2609WAT     H1 8069   8.558   6.610   5.183
 2609WAT     H2 8070   8.584   6.591   5.343
 2610WAT      O 8071   5.795   0.882   3.639
 2610WAT     H1 8072   5.889   0.895   3.667
 2610WAT     H2 8073   5.783   0.914   3.545
 2611WAT      O 8074   1.604   0.897   6.650
 2611WAT     H1 8075   1.589   0.995   6.642
 2611WAT     H2 8076   1.671   0.879   6.722
 2612WAT      O 8077   9.303   5.906   7.420
 2612WAT     H1 8078   9.272   6.001   7.433
 2612WAT     H2 8079   9.250   5.864   7.346
 2613WAT      O 8080   3.160   2.648   9.506
 2613WAT     H1 8081   3.210   2.666   9.591
 2613WAT     H2 8082   3.095   2.722   9.489
 2614WAT      O 8083   6.504   3.610   7.413
 2614WAT     H1 8084   6.576   3.642   7.476
 2614WAT     H2 8085   6.500   3.511   7.415
 2615WAT      O 8086   1.566   5.146   2.933
 2615WAT     H1 8087   1.630   5.081   2.893
 2615WAT     H2 8088   1.498   5.172   2.865
 2616WAT      O 8089   8.428   2.798   1.704
 2616WAT     H1 8090   8.498   2.830   1.639
 2616WAT     H2 8091   8.367   2.874   1.726
 2617WAT      O 8092   8.265   5.335   1.850
 2617WAT     H1 8093   8.195   5.402   1.825
 2617WAT     H2 8094   8.309   5.362   1.935
 2618WAT      O 8095   1.499   5.315   2.561
 2618WAT     H1 8096   1.434   5.268   2.620
 2618WAT     H2 8097   1.586   5.325   2.609
 2619WAT      O 8098   3.879   1.910   1.442
 2619WAT     H1 8099   3.915   1.960   1.520
 2619WAT     H2 8100   3.796   1.862   1.469
 2620WAT      O 8101   1.980   0.562   1.812
 2620WAT     H1 8102   1.881   0.553   1.826
 2620WAT     H2 8103   1.999   0.646   1.761
 2621WAT      O 8104   5.997   1.593   8.821
 2621WAT     H1 8105   6.041   1.541   8.894
 2621WAT     H2 8106   6.064   1.654   8.778
 2622WAT      O 8107   6.920   5.728   9.870
 2622WAT     H1 8108   6.821   5.723   9.881
 2622WAT     H2 8109   6.950   5.823   9.869
 2623WAT      O 8110   4.778   3.131   1.410
 2623WAT     H1 8111   4.711   3.062   1.438
 2623WAT     H2 8112   4.794   3.122   1.311
 2624WAT      O 8113   8.529   1.150   3.660
 2624WAT     H1 8114   8.501   1.241   3.627
 2624WAT     H2 8115   8.580   1.160   3.745
 2625WAT      O 8116   5.728   5.417   0.281
 2625WAT     H1 8117   5.662   5.371   0.221
 2625WAT     H2 8118   5.718   5.516   0.272
 2626WAT      O 8119   9.506   3.818   9.506
 2626WAT     H1 8120   9.487   3.827   9.604
 2626WAT     H2 8121   9.468   3.732   9.473
 2627WAT      O 8122   8.069   2.542   5.869
 2627WAT     H1 8123   8.006   2.486   5.815
 2627WAT     H2 8124   8.043   2.638   5.860
 2628WAT      O 8125   8.711   7.407   9.140
 2628WAT     H1 8126   8.774   7.423   9.063
 2628WAT     H2 8127   8.721   7.313   9.171
 2629WAT      O 8128   2.427   1.135   8.763
 2629WAT     H1 8129   2.475   1.134   8.851
 2629WAT     H2 8130   2.395   1.228   8.744
 2630WAT      O 8131   3.072   4.938   3.659
 2630WAT     H1 8132   3.021   4.947   3.745
 2630WAT     H2 8133   3.058   4.845   3.623
 2631WAT      O 8134   0.738   6.034   1.500
 2631WAT     H1 8135   0.811   5.966   1.503
 2631WAT     H2 8136   0.730   6.077   1.590
 2632WAT      O 8137   8.051   4.028   3.563
 2632WAT     H1 8138   8.079   3.985   3.477
 2632WAT     H2 8139   8.133   4.050   3.617
 2633WAT      O 8140   6.430   8.556   4.455
 2633WAT     H1 8141   6.424   8.458   4.435
 2633WAT     H2 8142   6.362   8.581   4.525
 2634WAT      O 8143   3.811   7.160   8.847
 2634WAT     H1 8144   3.864   7.244   8.835
 2634WAT     H2 8145   3.865   7.093   8.898
 2635WAT      O 8146   4.893   9.601   2.015
 2635WAT     H1 8147   4.857   9.535   2.081
 2635WAT     H2 8148   4.978   9.565   1.977
 2636WAT      O 8149   8.318   1.443   8.206
 2636WAT     H1 8150   8.240   1.381   8.196
 2636WAT     H2 8151   8.305   1.499   8.288
 2637WAT      O 8152   5.613   0.592   6.264
 2637WAT     H1 8153   5.585   0.532   6.189
 2637WAT     H2 8154   5.652   0.676   6.227
 2638WAT      O 8155   3.005   3.720   2.437
 2638WAT     H1 8156   3.047   3.661   2.506
 2638WAT     H2 8157   2.911   3.691   2.421
 2639WAT      O 8158   9.555   4.901   3.226
 2639WAT     H1 8159   9.622   4.971   3.251
 2639WAT     H2 8160   9.507   4.869   3.307
 2640WAT      O 8161   5.160   0.981   7.657
 2640WAT     H1 8162   5.238   1.041   7.640
 2640WAT     H2 8163   5.135   0.985   7.754
 2641WAT      O 8164   1.865   1.686   6.855
 2641WAT     H1 8165   1.863   1.586   6.860
 2641WAT     H2 8166   1.853   1.724   6.947
 2642WAT      O 8167   5.576   6.836   0.450
 2642WAT     H1 8168   5.496   6.811   0.396
 2642WAT     H2 8169   5.650   6.865   0.389
 2643WAT      O 8170   0.545   3.546   6.233
 2643WAT     H1 8171   0.588   3.519   6.147
 2643WAT     H2 8172   0.515   3.641   6.226
 2644WAT      O 8173   2.457   4.244   4.728
 2644WAT     H1 8174   2.468   4.342   4.710
 2644WAT     H2 8175   2.463   4.194   4.641
 2645WAT      O 8176   1.123   4.176   2.168
 2645WAT     H1 8177   1.031   4.142   2.185
 2645WAT     H2 8178   1.118   4.272   2.141
 2646WAT      O 8179   5.993   3.108   8.232
 2646WAT     H1 8180   5.993   3.198   8.275
 2646WAT     H2 8181   6.047   3.111   8.147
 2647WAT      O 8182   0.127   2.097   8.589
 2647WAT     H1 8183   0.037   2.108   8.631
 2647WAT     H2 8184   0.117   2.080   8.491
 2648WAT      O 8185   7.030   6.212   1.597
 2648WAT     H1 8186   6.967   6.144   1.561
 2648WAT     H2 8187   7.116   6.209   1.546
 2649WAT      O 8188   5.706   9.416   4.072
 2649WAT     H1 8189   5.721   9.498   4.128
 2649WAT     H2 8190   5.628   9.365   4.107
 2650WAT      O 8191   4.281   6.651   1.959
 2650WAT     H1 8192   4.327   6.567   1.986
 2650WAT     H2 8193   4.298   6.722   2.027
 2651WAT      O 8194   3.715   0.556   5.573
 2651WAT     H1 8195   3.703   0.630   5.506
 2651WAT     H2 8196   3.729   0.470   5.524
 2652WAT      O 8197   9.157   2.041   7.732
 2652WAT     H1 8198   9.193   2.037   7.825
 2652WAT     H2 8199   9.232   2.032   7.667
 2653WAT      O 8200   0.470   0.410   2.169
 2653WAT     H1 8201   0.399   0.353   2.210
 2653WAT     H2 8202   0.552   0.406   2.225
 2654WAT      O 8203   8.594   3.489   4.121
 2654WAT     H1 8204   8.625   3.525   4.034
 2654WAT     H2 8205   8.572   3.392   4.111
 2655WAT      O 8206   2.029   6.454   8.002
 2655WAT     H1 8207   2.100   6.402   7.955
 2655WAT     H2 8208   2.068   6.498   8.083
 2656WAT      O 8209   7.968   2.258   2.242
 2656WAT     H1 8210   7.997   2.306   2.159
 2656WAT     H2 8211   7.957   2.161   2.223
 2657WAT      O 8212   7.256   7.630   8.650
 2657WAT     H1 8213   7.229   7.575   8.729
 2657WAT     H2 8214   7.335   7.587   8.606
 2658WAT      O 8215   1.611   4.579   7.431
 2658WAT     H1 8216   1.539   4.522   7.391
 2658WAT     H2 8217   1.608   4.572   7.531
 2659WAT      O 8218   5.003   9.751   7.021
 2659WAT     H1 8219   5.061   9.812   6.967
 2659WAT     H2 8220   5.007   9.777   7.117
 2660WAT      O 8221   4.047   3.900   9.351
 2660WAT     H1 8222   4.054   3.906   9.252
 2660WAT     H2 8223   3.984   3.827   9.376
 2661WAT      O 8224   9.884   2.368   2.825
 2661WAT     H1 8225   9.909   2.464   2.841
 2661WAT     H2 8226   9.882   2.351   2.726
 2662WAT      O 8227   8.901   3.174   6.015
 2662WAT     H1 8228   8.894   3.200   5.918
 2662WAT     H2 8229   8.954   3.089   6.023
 2663WAT      O 8230   7.215   1.648   0.867
 2663WAT     H1 8231   7.247   1.725   0.923
 2663WAT     H2 8232   7.275   1.570   0.882
 2664WAT      O 8233   5.295   4.956   1.791
 2664WAT     H1 8234   5.323   4.973   1.886
 2664WAT     H2 8235   5.348   5.014   1.730
 2665WAT      O 8236   1.344   5.723   7.124
 2665WAT     H1 8237   1.299   5.637   7.098
 2665WAT     H2 8238   1.366   5.775   7.042
 2666WAT      O 8239   3.599   6.742   2.079
 2666WAT     H1 8240   3.632   6.797   2.003
 2666WAT     H2 8241   3.676   6.713   2.135
 2667WAT      O 8242   7.745   5.139   4.198
 2667WAT     H1 8243   7.731   5.118   4.295
 2667WAT     H2 8244   7.743   5.238   4.184
 2668WAT      O 8245   7.116   2.394   8.537
 2668WAT     H1 8246   7.204   2.435   8.514
 2668WAT     H2 8247   7.066   2.374   8.453
 2669WAT      O 8248   3.668   2.825   9.826
 2669WAT     H1 8249   3.592   2.882   9.797
 2669WAT     H2 8250   3.646   2.781   9.914
 2670WAT      O 8251   5.896   3.818   3.771
 2670WAT     H1 8252   5.918   3.916   3.773
 2670WAT     H2 8253   5.953   3.772   3.703
 2671WAT      O 8254   9.779   7.652   6.905
 2671WAT     H1 8255   9.850   7.691   6.963
 2671WAT     H2 8256   9.799   7.671   6.810
 2672WAT      O 8257   7.155   7.731   4.216
 2672WAT     H1 8258   7.108   7.686   4.140
 2672WAT     H2 8259   7.088   7.759   4.284
 2673WAT      O 8260   1.719   3.397   7.757
 2673WAT     H1 8261   1.675   3.416   7.669
 2673WAT     H2 8262   1.810   3.360   7.741
 2674WAT      O 8263   8.224   9.702   2.599
 2674WAT     H1 8264   8.308   9.723   2.548
 2674WAT     H2 8265   8.213   9.769   2.673
 2675WAT      O 8266   1.272   1.352   4.557
 2675WAT     H1 8267   1.210   1.363   4.635
 2675WAT     H2 8268   1.290   1.254   4.543
 2676WAT      O 8269   1.890   2.262   4.782
 2676WAT     H1 8270   1.799   2.245   4.744
 2676WAT     H2 8271   1.901   2.360   4.800
 2677WAT      O 8272   9.637   8.391   2.899
 2677WAT     H1 8273   9.589   8.467   2.942
 2677WAT     H2 8274   9.659   8.415   2.804
 2678WAT      O 8275   8.520   4.256   8.474
 2678WAT     H1 8276   8.551   4.161   8.479
 2678WAT     H2 8277   8.425   4.259   8.445
 2679WAT      O 8278   4.488   7.412   8.284
 2679WAT     H1 8279   4.560   7.470   8.246
 2679WAT     H2 8280   4.414   7.403   8.218
 2680WAT      O 8281   2.337   1.414   8.707
 2680WAT     H1 8282   2.296   1.447   8.622
 2680WAT     H2 8283   2.342   1.489   8.773
 2681WAT      O 8284   8.866   1.383   3.690
 2681WAT     H1 8285   8.804   1.461   3.691
 2681WAT     H2 8286   8.833   1.314   3.754
 2682WAT      O 8287   3.680   8.321   8.304
 2682WAT     H1 8288   3.638   8.233   8.281
 2682WAT     H2 8289   3.609   8.388   8.323
 2683WAT      O 8290   8.730   2.718   8.871
 2683WAT     H1 8291   8.732   2.619   8.866
 2683WAT     H2 8292   8.678   2.755   8.793
 2684WAT      O 8293   4.470   4.202   4.258
 2684WAT     H1 8294   4.558   4.156   4.243
 2684WAT     H2 8295   4.487   4.299   4.278
 2685WAT      O 8296   1.862   4.471   6.311
 2685WAT     H1 8297   1.881   4.447   6.406
 2685WAT     H2 8298   1.797   4.405   6.273
 2686WAT      O 8299   5.610   9.419   5.556
 2686WAT     H1 8300   5.630   9.498   5.613
 2686WAT     H2 8301   5.561   9.350   5.610
 2687WAT      O 8302   7.924   3.516   3.363
 2687WAT     H1 8303   8.018   3.514   3.396
 2687WAT     H2 8304   7.883   3.425   3.374
 2688WAT      O 8305   8.058   7.576   5.481
 2688WAT     H1 8306   8.053   7.650   5.549
 2688WAT     H2 8307   8.101   7.495   5.523
 2689WAT      O 8308   9.453   7.402   4.992
 2689WAT     H1 8309   9.452   7.453   5.077
 2689WAT     H2 8310   9.514   7.323   5.001
 2690WAT      O 8311   4.259   5.823   5.257
 2690WAT     H1 8312   4.315   5.876   5.321
 2690WAT     H2 8313   4.310   5.743   5.227
 2691WAT      O 8314   6.973   1.438   8.197
 2691WAT     H1 8315   6.965   1.396   8.288
 2691WAT     H2 8316   6.941   1.533   8.201
 2692WAT      O 8317   4.592   2.257   7.212
 2692WAT     H1 8318   4.530   2.336   7.209
 2692WAT     H2 8319   4.542   2.176   7.242
 2693WAT      O 8320   1.277   5.492   1.029
 2693WAT     H1 8321   1.358   5.508   1.086
 2693WAT     H2 8322   1.273   5.396   1.002
 2694WAT      O 8323   0.416   6.176   0.046
 2694WAT     H1 8324   0.456   6.139   0.130
 2694WAT     H2 8325   0.415   6.105  -0.025
 2695WAT      O 8326   8.557   2.805   6.638
 2695WAT     H1 8327   8.598   2.769   6.722
 2695WAT     H2 8328   8.545   2.731   6.572
 2696WAT      O 8329   1.493   9.753   4.233
 2696WAT     H1 8330   1.546   9.822   4.282
 2696WAT     H2 8331   1.507   9.664   4.276
 2697WAT      O 8332   6.926   6.318   7.495
 2697WAT     H1 8333   6.886   6.368   7.572
 2697WAT     H2 8334   6.927   6.377   7.414
 2698WAT      O 8335   3.246   0.758   2.684
 2698WAT     H1 8336   3.314   0.824   2.654
 2698WAT     H2 8337   3.154   0.794   2.669
 2699WAT      O 8338   4.138   3.177   8.757
 2699WAT     H1 8339   4.047   3.213   8.779
 2699WAT     H2 8340   4.195   3.180   8.839
 2700WAT      O 8341   8.148   2.623   7.226
 2700WAT     H1 8342   8.129   2.697   7.161
 2700WAT     H2 8343   8.229   2.573   7.195
 2701WAT      O 8344   8.188   1.618   8.418
 2701WAT     H1 8345   8.116   1.687   8.421
 2701WAT     H2 8346   8.147   1.527   8.433
 2702WAT      O 8347   5.996   5.327   4.990
 2702WAT     H1 8348   5.985   5.402   4.926
 2702WAT     H2 8349   5.953   5.245   4.952
 2703WAT      O 8350   5.893   4.412   6.511
 2703WAT     H1 8351   5.982   4.366   6.505
 2703WAT     H2 8352   5.906   4.510   6.502
 2704WAT      O 8353   1.583   3.090   3.672
 2704WAT     H1 8354   1.540   3.156   3.611
 2704WAT     H2 8355   1.614   3.136   3.755
 2705WAT      O 8356   2.591   1.756   2.447
 2705WAT     H1 8357   2.523   1.810   2.397
 2705WAT     H2 8358   2.650   1.708   2.382
 2706WAT      O 8359   8.212   6.913   3.607
 2706WAT     H1 8360   8.262   6.859   3.675
 2706WAT     H2 8361   8.276   6.973   3.559
 2707WAT      O 8362   3.136   3.389   6.089
 2707WAT     H1 8363   3.052   3.377   6.143
 2707WAT     H2 8364   3.150   3.487   6.072
 2708WAT      O 8365   3.553   1.452   0.570
 2708WAT     H1 8366   3.621   1.477   0.639
 2708WAT     H2 8367   3.538   1.353   0.574
 2709WAT      O 8368   7.520   2.999   3.893
 2709WAT     H1 8369   7.596   3.027   3.951
 2709WAT     H2 8370   7.434   3.033   3.933
 2710WAT      O 8371   2.044   7.153   2.303
 2710WAT     H1 8372   2.123   7.184   2.355
 2710WAT     H2 8373   1.960   7.189   2.343
 2711WAT      O 8374   5.413   3.635   9.441
 2711WAT     H1 8375   5.350   3.583   9.499
 2711WAT     H2 8376   5.362   3.675   9.364
 2712WAT      O 8377   7.739   6.978   6.336
 2712WAT     H1 8378   7.784   6.892   6.308
 2712WAT     H2 8379   7.670   7.002   6.269
 2713WAT      O 8380   5.807   0.721   6.526
 2713WAT     H1 8381   5.903   0.695   6.541
 2713WAT     H2 8382   5.747   0.650   6.562
 2714WAT      O 8383   6.527   3.899   8.837
 2714WAT     H1 8384   6.554   3.902   8.741
 2714WAT     H2 8385   6.580   3.966   8.889
 2715WAT      O 8386   8.972   9.126   3.616
 2715WAT     H1 8387   9.015   9.037   3.634
 2715WAT     H2 8388   8.981   9.185   3.696
 2716WAT      O 8389   7.687   5.023   8.138
 2716WAT     H1 8390   7.776   5.045   8.177
 2716WAT     H2 8391   7.698   4.998   8.042
 2717WAT      O 8392   5.126   2.768   3.153
 2717WAT     H1 8393   5.211   2.808   3.118
 2717WAT     H2 8394   5.146   2.714   3.235
 2718WAT      O 8395   0.935   7.097   6.622
 2718WAT     H1 8396   0.861   7.124   6.683
 2718WAT     H2 8397   0.910   7.013   6.574
 2719WAT      O 8398   9.762   9.476   6.271
 2719WAT     H1 8399   9.689   9.545   6.273
 2719WAT     H2 8400   9.747   9.414   6.194
 2720WAT      O 8401   8.577   4.724   3.590
 2720WAT     H1 8402   8.607   4.731   3.685
 2720WAT     H2 8403   8.561   4.628   3.567
 2721WAT      O 8404   0.903   7.248   2.840
 2721WAT     H1 8405   0.908   7.204   2.750
 2721WAT     H2 8406   0.811   7.283   2.855
 2722WAT      O 8407   2.095   9.561   8.465
 2722WAT     H1 8408   2.068   9.467   8.445
 2722WAT     H2 8409   2.148   9.598   8.388
 2723WAT      O 8410   6.220   3.924   6.578
 2723WAT     H1 8411   6.132   3.919   6.530
 2723WAT     H2 8412   6.292   3.885   6.520
 2724WAT      O 8413   2.365   6.631   7.907
 2724WAT     H1 8414   2.282   6.619   7.962
 2724WAT     H2 8415   2.443   6.591   7.955
 2725WAT      O 8416   7.110   7.329   0.226
 2725WAT     H1 8417   7.177   7.259   0.252
 2725WAT     H2 8418   7.083   7.380   0.308
 2726WAT      O 8419   7.533   2.201   4.726
 2726WAT     H1 8420   7.459   2.135   4.720
 2726WAT     H2 8421   7.508   2.273   4.791
 2727WAT      O 8422   9.019   1.467   8.465
 2727WAT     H1 8423   8.988   1.490   8.373
 2727WAT     H2 8424   9.059   1.548   8.508
 2728WAT      O 8425   6.007   4.911   3.926
 2728WAT     H1 8426   5.966   4.973   3.993
 2728WAT     H2 8427   6.088   4.868   3.965
 2729WAT      O 8428   7.925   7.512   0.046
 2729WAT     H1 8429   7.882   7.588   0.095
 2729WAT     H2 8430   8.005   7.480   0.096
 2730WAT      O 8431   1.778   2.055   6.333
 2730WAT     H1 8432   1.749   2.095   6.420
 2730WAT     H2 8433   1.739   2.107   6.258
 2731WAT      O 8434   2.093   5.970   0.278
 2731WAT     H1 8435   2.050   6.016   0.200
 2731WAT     H2 8436   2.022   5.931   0.336
 2732WAT      O 8437   9.862   5.380   4.507
 2732WAT     H1 8438   9.903   5.453   4.561
 2732WAT     H2 8439   9.764   5.375   4.526
 2733WAT      O 8440   2.088   2.401   2.440
 2733WAT     H1 8441   2.086   2.303   2.422
 2733WAT     H2 8442   2.159   2.422   2.508
 2734WAT      O 8443   7.263   2.076   0.930
 2734WAT     H1 8444   7.204   2.091   0.850
 2734WAT     H2 8445   7.318   2.157   0.947
 2735WAT      O 8446   4.998   9.307   4.741
 2735WAT     H1 8447   4.964   9.217   4.715
 2735WAT     H2 8448   5.066   9.337   4.674
 2736WAT      O 8449   0.415   5.568   6.806
 2736WAT     H1 8450   0.377   5.655   6.837
 2736WAT     H2 8451   0.384   5.495   6.866
 2737WAT      O 8452   4.642   5.052   9.633
 2737WAT     H1 8453   4.555   5.082   9.593
 2737WAT     H2 8454   4.661   4.958   9.605
 2738WAT      O 8455   5.056   7.410   6.715
 2738WAT     H1 8456   5.029   7.479   6.648
 2738WAT     H2 8457   5.156   7.404   6.720
 2739WAT      O 8458   0.758   0.714   4.730
 2739WAT     H1 8459   0.672   0.707   4.782
 2739WAT     H2 8460   0.812   0.790   4.767
 2740WAT      O 8461   1.973   6.117   9.135
 2740WAT     H1 8462   1.880   6.127   9.170
 2740WAT     H2 8463   1.992   6.020   9.119
 2741WAT      O 8464   3.678   3.162   4.913
 2741WAT     H1 8465   3.730   3.114   4.843
 2741WAT     H2 8466   3.587   3.121   4.920
 2742WAT      O 8467   0.782   7.379   2.464
 2742WAT     H1 8468   0.820   7.346   2.550
 2742WAT     H2 8469   0.715   7.451   2.481
 2743WAT      O 8470   6.449   3.433   7.136
 2743WAT     H1 8471   6.414   3.412   7.227
 2743WAT     H2 8472   6.436   3.530   7.116
 2744WAT      O 8473   3.942   5.244   4.169
 2744WAT     H1 8474   3.924   5.313   4.238
 2744WAT     H2 8475   3.874   5.171   4.175
 2745WAT      O 8476   2.888   9.264   1.470
 2745WAT     H1 8477   2.835   9.239   1.550
 2745WAT     H2 8478   2.828   9.300   1.399
 2746WAT      O 8479   6.992   5.484   6.005
 2746WAT     H1 8480   7.018   5.407   6.063
 2746WAT     H2 8481   7.070   5.544   5.992
 2747WAT      O 8482   8.068   0.550   0.702
 2747WAT     H1 8483   8.074   0.543   0.802
 2747WAT     H2 8484   8.102   0.465   0.661
 2748WAT      O 8485   2.187   1.799   8.066
 2748WAT     H1 8486   2.102   1.803   8.120
 2748WAT     H2 8487   2.176   1.852   7.982
 2749WAT      O 8488   7.037   4.179   3.282
 2749WAT     H1 8489   6.985   4.225   3.210
 2749WAT     H2 8490   6.987   4.185   3.369
 2750WAT      O 8491   0.440   7.161   1.821
 2750WAT     H1 8492   0.439   7.246   1.875
 2750WAT     H2 8493   0.491   7.091   1.871
 2751WAT      O 8494   5.538   7.524   2.986
 2751WAT     H1 8495   5.579   7.466   2.916
 2751WAT     H2 8496   5.573   7.617   2.977
 2752WAT      O 8497   7.618   4.477   6.420
 2752WAT     H1 8498   7.707   4.431   6.421
 2752WAT     H2 8499   7.578   4.476   6.512
 2753WAT      O 8500   7.432   3.382   9.388
 2753WAT     H1 8501   7.399   3.408   9.297
 2753WAT     H2 8502   7.484   3.458   9.428
 2754WAT      O 8503   4.897   6.323   2.267
 2754WAT     H1 8504   4.949   6.332   2.182
 2754WAT     H2 8505   4.944   6.373   2.340
 2755WAT      O 8506   0.923   2.776   5.667
 2755WAT     H1 8507   0.917   2.731   5.578
 2755WAT     H2 8508   0.836   2.764   5.716
 2756WAT      O 8509   4.655   1.632   8.563
 2756WAT     H1 8510   4.593   1.638   8.484
 2756WAT     H2 8511   4.698   1.721   8.578
 2757WAT      O 8512   0.231   1.222   7.426
 2757WAT     H1 8513   0.234   1.124   7.446
 2757WAT     H2 8514   0.320   1.251   7.392
 2758WAT      O 8515   1.357   8.615   2.381
 2758WAT     H1 8516   1.275   8.635   2.434
 2758WAT     H2 8517   1.429   8.681   2.405
 2759WAT      O 8518   5.972   3.164   3.024
 2759WAT     H1 8519   5.966   3.219   3.108
 2759WAT     H2 8520   6.067   3.140   3.007
 2760WAT      O 8521   0.212   3.873   8.391
 2760WAT     H1 8522   0.209   3.933   8.312
 2760WAT     H2 8523   0.123   3.829   8.403
 2761WAT      O 8524   3.728   4.426   0.337
 2761WAT     H1 8525   3.750   4.469   0.249
 2761WAT     H2 8526   3.812   4.389   0.378
 2762WAT      O 8527   4.192   2.118   6.616
 2762WAT     H1 8528   4.112   2.098   6.673
 2762WAT     H2 8529   4.275   2.117   6.672
 2763WAT      O 8530   0.103   1.583   2.531
 2763WAT     H1 8531   0.095   1.579   2.631
 2763WAT     H2 8532   0.187   1.631   2.506
 2764WAT      O 8533   0.381   0.959   2.453
 2764WAT     H1 8534   0.418   0.895   2.385
 2764WAT     H2 8535   0.447   1.032   2.470
 2765WAT      O 8536   5.833   4.457   9.584
 2765WAT     H1 8537   5.891   4.505   9.518
 2765WAT     H2 8538   5.738   4.488   9.573
 2766WAT      O 8539   9.398   1.863   3.947
 2766WAT     H1 8540   9.446   1.853   3.860
 2766WAT     H2 8541   9.349   1.951   3.948
 2767WAT      O 8542   3.721   5.345   1.819
 2767WAT     H1 8543   3.779   5.268   1.846
 2767WAT     H2 8544   3.769   5.431   1.837
 2768WAT      O 8545   1.716   1.201   0.867
 2768WAT     H1 8546   1.646   1.164   0.928
 2768WAT     H2 8547   1.759   1.126   0.816
 2769WAT      O 8548   6.494   9.288   5.737
 2769WAT     H1 8549   6.462   9.307   5.644
 2769WAT     H2 8550   6.578   9.234   5.732
 2770WAT      O 8551   0.987   9.800   4.035
 2770WAT     H1 8552   1.083   9.815   4.011
 2770WAT     H2 8553   0.928   9.837   3.963
 2771WAT      O 8554   9.089   6.160   0.762
 2771WAT     H1 8555   9.181   6.130   0.737
 2771WAT     H2 8556   9.093   6.219   0.842
 2772WAT      O 8557   7.479   5.036   5.704
 2772WAT     H1 8558   7.380   5.041   5.691
 2772WAT     H2 8559   7.525   5.033   5.615
 2773WAT      O 8560   7.442   9.249   6.443
 2773WAT     H1 8561   7.521   9.297   6.407
 2773WAT     H2 8562   7.443   9.154   6.413
 2774WAT      O 8563   2.215   1.602   9.764
 2774WAT     H1 8564   2.165   1.526   9.721
 2774WAT     H2 8565   2.185   1.688   9.724
 2775WAT      O 8566   6.572   1.419   0.761
 2775WAT     H1 8567   6.513   1.344   0.732
 2775WAT     H2 8568   6.626   1.450   0.682
 2776WAT      O 8569   1.213   2.701   9.734
 2776WAT     H1 8570   1.137   2.667   9.679
 2776WAT     H2 8571   1.183   2.779   9.790
 2777WAT      O 8572   7.532   0.098   7.326
 2777WAT     H1 8573   7.476   0.107   7.408
 2777WAT     H2 8574   7.566   0.189   7.299
 2778WAT      O 8575   6.211   3.818   0.494
 2778WAT     H1 8576   6.294   3.763   0.488
 2778WAT     H2 8577   6.145   3.786   0.426
 2779WAT      O 8578   3.253   1.413   1.530
 2779WAT     H1 8579   3.339   1.447   1.568
 2779WAT     H2 8580   3.242   1.446   1.437
 2780WAT      O 8581   1.319   9.147   9.337
 2780WAT     H1 8582   1.272   9.082   9.277
 2780WAT     H2 8583   1.376   9.098   9.402
 2781WAT      O 8584   9.759   3.350   8.033
 2781WAT     H1 8585   9.707   3.365   8.117
 2781WAT     H2 8586   9.857   3.361   8.053
 2782WAT      O 8587   8.965   5.979   0.111
 2782WAT     H1 8588   9.047   5.922   0.102
 2782WAT     H2 8589   8.912   5.949   0.191
 2783WAT      O 8590   5.316   5.027   5.173
 2783WAT     H1 8591   5.292   4.958   5.104
 2783WAT     H2 8592   5.339   5.113   5.127
 2784WAT      O 8593   9.218   8.354   6.144
 2784WAT     H1 8594   9.300   8.410   6.149
 2784WAT     H2 8595   9.189   8.329   6.236
 2785WAT      O 8596   9.788   8.289   6.811
 2785WAT     H1 8597   9.769   8.356   6.883
 2785WAT     H2 8598   9.779   8.333   6.722
 2786WAT      O 8599   7.205   5.767   3.300
 2786WAT     H1 8600   7.108   5.788   3.314
 2786WAT     H2 8601   7.235   5.703   3.371
 2787WAT      O 8602   4.939   5.901   1.832
 2787WAT     H1 8603   4.996   5.819   1.827
 2787WAT     H2 8604   4.846   5.879   1.802
 2788WAT      O 8605   5.777   7.256   0.552
 2788WAT     H1 8606   5.755   7.174   0.605
 2788WAT     H2 8607   5.725   7.255   0.467
 2789WAT      O 8608   1.704   8.994   3.481
 2789WAT     H1 8609   1.658   8.943   3.409
 2789WAT     H2 8610   1.773   8.936   3.524
 2790WAT      O 8611   9.750   8.538   7.532
 2790WAT     H1 8612   9.773   8.614   7.593
 2790WAT     H2 8613   9.699   8.573   7.453
 2791WAT      O 8614   7.082   2.287   2.463
 2791WAT     H1 8615   7.111   2.192   2.472
 2791WAT     H2 8616   7.138   2.332   2.392
 2792WAT      O 8617   7.539   5.347   4.539
 2792WAT     H1 8618   7.442   5.364   4.522
 2792WAT     H2 8619   7.593   5.380   4.461
 2793WAT      O 8620   3.207   6.852   0.538
 2793WAT     H1 8621   3.183   6.905   0.456
 2793WAT     H2 8622   3.150   6.770   0.542
 2794WAT      O 8623   7.447   4.546   2.333
 2794WAT     H1 8624   7.527   4.570   2.388
 2794WAT     H2 8625   7.369   4.529   2.394
 2795WAT      O 8626   1.059   4.008   0.140
 2795WAT     H1 8627   1.139   3.999   0.081
 2795WAT     H2 8628   1.007   4.089   0.114
 2796WAT      O 8629   9.519   4.514   8.377
 2796WAT     H1 8630   9.443   4.573   8.402
 2796WAT     H2 8631   9.539   4.525   8.279
 2797WAT      O 8632   0.320   4.104   4.114
 2797WAT     H1 8633   0.234   4.125   4.068
 2797WAT     H2 8634   0.326   4.155   4.200
 2798WAT      O 8635   1.956   6.768   5.558
 2798WAT     H1 8636   1.952   6.866   5.576
 2798WAT     H2 8637   1.868   6.726   5.580
 2799WAT      O 8638   6.398   3.691   8.272
 2799WAT     H1 8639   6.463   3.762   8.299
 2799WAT     H2 8640   6.335   3.673   8.347
 2800WAT      O 8641   8.882   5.453   7.176
 2800WAT     H1 8642   8.964   5.411   7.215
 2800WAT     H2 8643   8.845   5.393   7.104
 2801WAT      O 8644   0.682   0.489   6.611
 2801WAT     H1 8645   0.622   0.446   6.544
 2801WAT     H2 8646   0.692   0.586   6.589
 2802WAT      O 8647   2.152   5.587   1.224
 2802WAT     H1 8648   2.214   5.514   1.195
 2802WAT     H2 8649   2.058   5.561   1.203
 2803WAT      O 8650   7.728   1.859   9.832
 2803WAT     H1 8651   7.728   1.839   9.930
 2803WAT     H2 8652   7.634   1.870   9.800
 2804WAT      O 8653   4.255   3.702   6.872
 2804WAT     H1 8654   4.211   3.748   6.795
 2804WAT     H2 8655   4.312   3.766   6.922
 2805WAT      O 8656   1.001   0.335   4.404
 2805WAT     H1 8657   1.096   0.344   4.374
 2805WAT     H2 8658   0.975   0.413   4.460
 2806WAT      O 8659   9.054   5.942   5.141
 2806WAT     H1 8660   8.990   5.929   5.216
 2806WAT     H2 8661   9.071   5.855   5.096
 2807WAT      O 8662   0.815   3.347   3.715
 2807WAT     H1 8663   0.768   3.434   3.726
 2807WAT     H2 8664   0.747   3.273   3.718
 2808WAT      O 8665   3.558   4.295   0.508
 2808WAT     H1 8666   3.605   4.355   0.443
 2808WAT     H2 8667   3.468   4.332   0.529
 2809WAT      O 8668   0.546   8.435   4.481
 2809WAT     H1 8669   0.572   8.522   4.441
 2809WAT     H2 8670   0.616   8.405   4.547
 2810WAT      O 8671   9.547   6.626   0.831
 2810WAT     H1 8672   9.642   6.606   0.807
 2810WAT     H2 8673   9.504   6.545   0.870
 2811WAT      O 8674   6.949   5.073   5.462
 2811WAT     H1 8675   6.946   5.122   5.549
 2811WAT     H2 8676   7.037   5.088   5.417
 2812WAT      O 8677   3.923   6.601   8.306
 2812WAT     H1 8678   3.907   6.512   8.263
 2812WAT     H2 8679   4.021   6.616   8.315
 2813WAT      O 8680   6.858   3.638   0.637
 2813WAT     H1 8681   6.895   3.575   0.705
 2813WAT     H2 8682   6.913   3.633   0.553
 2814WAT      O 8683   7.753   9.468   7.059
 2814WAT     H1 8684   7.768   9.445   7.155
 2814WAT     H2 8685   7.719   9.387   7.010
 2815WAT      O 8686   6.220   6.456   5.638
 2815WAT     H1 8687   6.315   6.429   5.655
 2815WAT     H2 8688   6.168   6.377   5.606
 2816WAT      O 8689   3.131   5.978   1.624
 2816WAT     H1 8690   3.218   5.934   1.646
 2816WAT     H2 8691   3.148   6.063   1.574
 2817WAT      O 8692   1.418   5.211   1.095
 2817WAT     H1 8693   1.356   5.177   1.166
 2817WAT     H2 8694   1.476   5.282   1.133
 2818WAT      O 8695   9.757   7.941   4.105
 2818WAT     H1 8696   9.660   7.965   4.095
 2818WAT     H2 8697   9.789   7.968   4.195
 2819WAT      O 8698   4.735   9.778   6.428
 2819WAT     H1 8699   4.779   9.865   6.407
 2819WAT     H2 8700   4.793   9.726   6.491
 2820WAT      O 8701   4.165   6.712   7.514
 2820WAT     H1 8702   4.161   6.618   7.548
 2820WAT     H2 8703   4.166   6.712   7.414
 2821WAT      O 8704   4.674   0.353   1.989
 2821WAT     H1 8705   4.698   0.372   2.084
 2821WAT     H2 8706   4.610   0.422   1.956
 2822WAT      O 8707   2.014   0.316   6.269
 2822WAT     H1 8708   2.072   0.393   6.243
 2822WAT     H2 8709   2.010   0.308   6.368
 2823WAT      O 8710   7.831   8.215   5.600
 2823WAT     H1 8711   7.800   8.123   5.575
 2823WAT     H2 8712   7.827   8.274   5.519
 2824WAT      O 8713   5.207   8.486   7.563
 2824WAT     H1 8714   5.246   8.524   7.479
 2824WAT     H2 8715   5.124   8.536   7.586
 2825WAT      O 8716   1.998   1.112   3.677
 2825WAT     H1 8717   1.900   1.091   3.680
 2825WAT     H2 8718   2.011   1.208   3.652
 2826WAT      O 8719   2.109   5.790   9.748
 2826WAT     H1 8720   2.064   5.860   9.693
 2826WAT     H2 8721   2.071   5.700   9.725
 2827WAT      O 8722   4.027   8.692   4.140
 2827WAT     H1 8723   4.087   8.696   4.219
 2827WAT     H2 8724   4.074   8.650   4.063
 2828WAT      O 8725   8.138   6.357   9.859
 2828WAT     H1 8726   8.233   6.346   9.888
 2828WAT     H2 8727   8.126   6.445   9.814
 2829WAT      O 8728   7.226   7.592   3.319
 2829WAT     H1 8729   7.280   7.673   3.294
 2829WAT     H2 8730   7.185   7.553   3.236
 2830WAT      O 8731   8.715   0.574   2.364
 2830WAT     H1 8732   8.625   0.574   2.408
 2830WAT     H2 8733   8.786   0.559   2.433
 2831WAT      O 8734   7.093   0.539   6.017
 2831WAT     H1 8735   7.170   0.593   5.985
 2831WAT     H2 8736   7.109   0.442   5.998
 2832WAT      O 8737   2.109   1.225   8.735
 2832WAT     H1 8738   2.194   1.275   8.747
 2832WAT     H2 8739   2.057   1.264   8.660
 2833WAT      O 8740   8.285   9.480   6.505
 2833WAT     H1 8741   8.210   9.525   6.457
 2833WAT     H2 8742   8.247   9.413   6.569
 2834WAT      O 8743   8.987   3.982   1.431
 2834WAT     H1 8744   9.041   4.057   1.393
 2834WAT     H2 8745   9.049   3.914   1.471
 2835WAT      O 8746   5.527   2.225   0.752
 2835WAT     H1 8747   5.428   2.236   0.756
 2835WAT     H2 8748   5.558   2.169   0.828
 2836WAT      O 8749   7.156   0.690   0.980
 2836WAT     H1 8750   7.064   0.651   0.978
 2836WAT     H2 8751   7.150   0.790   0.979
 2837WAT      O 8752   2.371   6.083   7.349
 2837WAT     H1 8753   2.383   6.024   7.269
 2837WAT     H2 8754   2.434   6.054   7.422
 2838WAT      O 8755   3.064   7.893   2.896
 2838WAT     H1 8756   2.990   7.827   2.913
 2838WAT     H2 8757   3.054   7.932   2.805
 2839WAT      O 8758   4.082   0.179   0.459
 2839WAT     H1 8759   4.085   0.146   0.554
 2839WAT     H2 8760   4.165   0.231   0.439
 2840WAT      O 8761   3.748   8.733   7.141
 2840WAT     H1 8762   3.800   8.652   7.116
 2840WAT     H2 8763   3.744   8.796   7.063
 2841WAT      O 8764   7.635   2.032   0.850
 2841WAT     H1 8765   7.728   2.015   0.818
 2841WAT     H2 8766   7.636   2.058   0.947
 2842WAT      O 8767   7.664   2.333   3.714
 2842WAT     H1 8768   7.585   2.297   3.664
 2842WAT     H2 8769   7.632   2.395   3.786
 2843WAT      O 8770   6.397   2.008   5.328
 2843WAT     H1 8771   6.405   2.077   5.400
 2843WAT     H2 8772   6.433   1.921   5.362
 2844WAT      O 8773   0.190   0.912   6.070
 2844WAT     H1 8774   0.098   0.876   6.055
 2844WAT     H2 8775   0.255   0.836   6.075
 2845WAT      O 8776   4.187   3.034   5.927
 2845WAT     H1 8777   4.129   2.978   5.987
 2845WAT     H2 8778   4.281   3.032   5.962
 2846WAT      O 8779   0.580   9.391   2.995
 2846WAT     H1 8780   0.664   9.348   3.026
 2846WAT     H2 8781   0.509   9.381   3.065
 2847WAT      O 8782   7.639   7.144   3.484
 2847WAT     H1 8783   7.627   7.197   3.568
 2847WAT     H2 8784   7.728   7.099   3.486
 2848WAT      O 8785   3.305   0.790   9.199
 2848WAT     H1 8786   3.373   0.794   9.273
 2848WAT     H2 8787   3.256   0.703   9.204
 2849WAT      O 8788   4.802   1.941   1.574
 2849WAT     H1 8789   4.778   1.904   1.664
 2849WAT     H2 8790   4.726   1.925   1.511
 2850WAT      O 8791   0.947   8.202   3.514
 2850WAT     H1 8792   1.006   8.281   3.531
 2850WAT     H2 8793   0.980   8.153   3.433
 2851WAT      O 8794   7.192   1.141   9.715
 2851WAT     H1 8795   7.274   1.153   9.658
 2851WAT     H2 8796   7.218   1.096   9.801
 2852WAT      O 8797   8.904   3.331   4.549
 2852WAT     H1 8798   8.955   3.256   4.592
 2852WAT     H2 8799   8.922   3.331   4.451
 2853WAT      O 8800   3.972   0.031   7.437
 2853WAT     H1 8801   4.013   0.103   7.493
 2853WAT     H2 8802   3.994  -0.059   7.476
 2854WAT      O 8803   5.358   7.272   8.322
 2854WAT     H1 8804   5.360   7.362   8.277
 2854WAT     H2 8805   5.366   7.200   8.253
 2855WAT      O 8806   2.411   0.843   1.312
 2855WAT     H1 8807   2.497   0.793   1.329
 2855WAT     H2 8808   2.377   0.820   1.221
 2856WAT      O 8809   1.860   1.166   7.029
 2856WAT     H1 8810   1.794   1.213   7.088
 2856WAT     H2 8811   1.810   1.114   6.960
 2857WAT      O 8812   5.842   0.560   4.243
 2857WAT     H1 8813   5.922   0.619   4.240
 2857WAT     H2 8814   5.871   0.464   4.245
 2858WAT      O 8815   7.181   3.222   8.677
 2858WAT     H1 8816   7.111   3.151   8.684
 2858WAT     H2 8817   7.141   3.311   8.697
 2859WAT      O 8818   8.882   2.205   2.076
 2859WAT     H1 8819   8.894   2.230   1.980
 2859WAT     H2 8820   8.906   2.109   2.089
 2860WAT      O 8821   9.072   0.700   1.863
 2860WAT     H1 8822   8.973   0.719   1.863
 2860WAT     H2 8823   9.090   0.619   1.808
 2861WAT      O 8824   5.683   7.793   9.787
 2861WAT     H1 8825   5.621   7.823   9.859
 2861WAT     H2 8826   5.736   7.871   9.753
 2862WAT      O 8827   9.109   1.594   4.887
 2862WAT     H1 8828   9.097   1.499   4.916
 2862WAT     H2 8829   9.194   1.602   4.835
 2863WAT      O 8830   1.617   4.022   3.439
 2863WAT     H1 8831   1.602   4.079   3.520
 2863WAT     H2 8832   1.713   4.026   3.412
 2864WAT      O 8833   4.923   7.941   7.751
 2864WAT     H1 8834   4.933   7.984   7.841
 2864WAT     H2 8835   5.000   7.969   7.693
 2865WAT      O 8836   5.678   8.662   3.130
 2865WAT     H1 8837   5.617   8.741   3.143
 2865WAT     H2 8838   5.772   8.690   3.148
 2866WAT      O 8839   6.781   1.925   2.978
 2866WAT     H1 8840   6.744   1.872   3.055
 2866WAT     H2 8841   6.762   1.876   2.893
 2867WAT      O 8842   1.096   0.558   6.387
 2867WAT     H1 8843   1.119   0.527   6.295
 2867WAT     H2 8844   1.104   0.658   6.391
 2868WAT      O 8845   7.556   3.618   9.410
 2868WAT     H1 8846   7.522   3.711   9.396
 2868WAT     H2 8847   7.642   3.606   9.360
 2869WAT      O 8848   6.520   0.149   0.711
 2869WAT     H1 8849   6.459   0.080   0.750
 2869WAT     H2 8850   6.466   0.221   0.668
 2870WAT      O 8851   2.825   1.254   2.222
 2870WAT     H1 8852   2.788   1.311   2.295
 2870WAT     H2 8853   2.750   1.219   2.166
 2871WAT      O 8854   7.926   2.117   1.213
 2871WAT     H1 8855   7.985   2.091   1.290
 2871WAT     H2 8856   7.964   2.080   1.128
 2872WAT      O 8857   9.686   2.333   2.556
 2872WAT     H1 8858   9.640   2.261   2.608
 2872WAT     H2 8859   9.704   2.300   2.463
 2873WAT      O 8860   5.243   7.094   7.511
 2873WAT     H1 8861   5.333   7.129   7.485
 2873WAT     H2 8862   5.192   7.071   7.428
 2874WAT      O 8863   1.175   0.944   1.034
 2874WAT     H1 8864   1.195   1.036   0.998
 2874WAT     H2 8865   1.086   0.945   1.080
 2875WAT      O 8866   5.873   3.167   7.594
 2875WAT     H1 8867   5.932   3.121   7.527
 2875WAT     H2 8868   5.894   3.265   7.594
 2876WAT      O 8869   7.747   8.279   5.305
 2876WAT     H1 8870   7.820   8.223   5.266
 2876WAT     H2 8871   7.716   8.346   5.237
 2877WAT      O 8872   4.315   9.547   5.113
 2877WAT     H1 8873   4.373   9.627   5.129
 2877WAT     H2 8874   4.240   9.572   5.052
 2878WAT      O 8875   4.421   3.241   6.067
 2878WAT     H1 8876   4.362   3.204   6.139
 2878WAT     H2 8877   4.493   3.297   6.108
 2879WAT      O 8878   2.411   6.528   6.873
 2879WAT     H1 8879   2.472   6.494   6.945
 2879WAT     H2 8880   2.318   6.536   6.910
 2880WAT      O 8881   5.040   3.294   4.375
 2880WAT     H1 8882   5.023   3.195   4.369
 2880WAT     H2 8883   5.132   3.310   4.410
 2881WAT      O 8884   6.306   2.739   1.247
 2881WAT     H1 8885   6.230   2.675   1.258
 2881WAT     H2 8886   6.313   2.797   1.327
 2882WAT      O 8887   2.969   2.291   1.386
 2882WAT     H1 8888   2.913   2.226   1.437
 2882WAT     H2 8889   2.964   2.269   1.288
 2883WAT      O 8890   9.194   8.310   3.535
 2883WAT     H1 8891   9.201   8.330   3.632
 2883WAT     H2 8892   9.235   8.385   3.482
 2884WAT      O 8893   3.797   0.721   2.354
 2884WAT     H1 8894   3.729   0.706   2.426
 2884WAT     H2 8895   3.815   0.636   2.306
 2885WAT      O 8896   7.109   1.260   8.633
 2885WAT     H1 8897   7.032   1.223   8.579
 2885WAT     H2 8898   7.082   1.348   8.672
 2886WAT      O 8899   3.957   9.816   9.376
 2886WAT     H1 8900   4.024   9.742   9.382
 2886WAT     H2 8901   3.882   9.787   9.316
 2887WAT      O 8902   6.907   5.864   2.719
 2887WAT     H1 8903   6.926   5.941   2.780
 2887WAT     H2 8904   6.839   5.804   2.761
 2888WAT      O 8905   9.118   0.549   1.349
 2888WAT     H1 8906   9.093   0.623   1.286
 2888WAT     H2 8907   9.070   0.466   1.322
 2889WAT      O 8908   5.182   1.565   8.042
 2889WAT     H1 8909   5.149   1.593   7.953
 2889WAT     H2 8910   5.270   1.518   8.032
 2890WAT      O 8911   0.904   8.684   5.758
 2890WAT     H1 8912   0.986   8.629   5.741
 2890WAT     H2 8913   0.911   8.726   5.848
 2891WAT      O 8914   6.598   4.590   8.087
 2891WAT     H1 8915   6.596   4.687   8.112
 2891WAT     H2 8916   6.516   4.568   8.033
 2892WAT      O 8917   7.760   1.521   7.981
 2892WAT     H1 8918   7.856   1.512   8.007
 2892WAT     H2 8919   7.743   1.615   7.950
 2893WAT      O 8920   5.371   4.465   6.971
 2893WAT     H1 8921   5.315   4.539   7.009
 2893WAT     H2 8922   5.449   4.505   6.922
 2894WAT      O 8923   2.384   6.096   1.717
 2894WAT     H1 8924   2.403   6.095   1.619
 2894WAT     H2 8925   2.394   6.190   1.751
 2895WAT      O 8926   8.357   8.567   9.535
 2895WAT     H1 8927   8.287   8.635   9.513
 2895WAT     H2 8928   8.395   8.586   9.625
 2896WAT      O 8929   4.340   2.638   3.171
 2896WAT     H1 8930   4.371   2.629   3.077
 2896WAT     H2 8931   4.400   2.585   3.231
 2897WAT      O 8932   1.523   7.944   2.496
 2897WAT     H1 8933   1.503   7.986   2.585
 2897WAT     H2 8934   1.467   7.862   2.485
 2898WAT      O 8935   6.306   6.548   6.534
 2898WAT     H1 8936   6.340   6.573   6.444
 2898WAT     H2 8937   6.383   6.524   6.593
 2899WAT      O 8938   1.273   2.733   6.013
 2899WAT     H1 8939   1.299   2.762   6.105
 2899WAT     H2 8940   1.174   2.725   6.008
 2900WAT      O 8941   3.677   3.389   5.090
 2900WAT     H1 8942   3.659   3.297   5.055
 2900WAT     H2 8943   3.639   3.399   5.182
 2901WAT      O 8944   5.696   0.117   7.752
 2901WAT     H1 8945   5.734   0.127   7.843
 2901WAT     H2 8946   5.620   0.052   7.754
 2902WAT      O 8947   9.215   3.147   8.658
 2902WAT     H1 8948   9.253   3.171   8.569
 2902WAT     H2 8949   9.131   3.199   8.674
 2903WAT      O 8950   4.689   8.780   2.589
 2903WAT     H1 8951   4.604   8.728   2.600
 2903WAT     H2 8952   4.677   8.849   2.517
 2904WAT      O 8953   5.411   5.115   2.869
 2904WAT     H1 8954   5.322   5.141   2.831
 2904WAT     H2 8955   5.470   5.196   2.873
 2905WAT      O 8956   3.517   2.945   3.582
 2905WAT     H1 8957   3.581   2.953   3.506
 2905WAT     H2 8958   3.496   2.848   3.597
 2906WAT      O 8959   0.968   0.635   1.190
 2906WAT     H1 8960   0.979   0.548   1.237
 2906WAT     H2 8961   1.054   0.686   1.193
 2907WAT      O 8962   5.139   4.377   9.228
 2907WAT     H1 8963   5.068   4.359   9.297
 2907WAT     H2 8964   5.222   4.409   9.274
 2908WAT      O 8965   2.678   0.534   8.971
 2908WAT     H1 8966   2.743   0.481   9.026
 2908WAT     H2 8967   2.618   0.472   8.920
 2909WAT      O 8968   1.857   1.737   9.590
 2909WAT     H1 8969   1.773   1.762   9.637
 2909WAT     H2 8970   1.841   1.655   9.535
 2910WAT      O 8971   1.239   7.515   6.257
 2910WAT     H1 8972   1.289   7.429   6.270
 2910WAT     H2 8973   1.256   7.549   6.165
 2911WAT      O 8974   5.290   7.106   8.109
 2911WAT     H1 8975   5.351   7.092   8.031
 2911WAT     H2 8976   5.238   7.022   8.125
 2912WAT      O 8977   7.290   2.006   0.562
 2912WAT     H1 8978   7.331   2.003   0.471
 2912WAT     H2 8979   7.254   1.916   0.586
 2913WAT      O 8980   5.719   1.579   1.782
 2913WAT     H1 8981   5.765   1.543   1.863
 2913WAT     H2 8982   5.736   1.519   1.704
 2914WAT      O 8983   8.634   3.678   5.930
 2914WAT     H1 8984   8.539   3.666   5.899
 2914WAT     H2 8985   8.644   3.766   5.975
 2915WAT      O 8986   2.751   7.795   4.406
 2915WAT     H1 8987   2.764   7.776   4.504
 2915WAT     H2 8988   2.784   7.887   4.385
 2916WAT      O 8989   0.694   8.830   1.563
 2916WAT     H1 8990   0.678   8.795   1.655
 2916WAT     H2 8991   0.702   8.754   1.499
 2917WAT      O 8992   8.100   6.754   8.690
 2917WAT     H1 8993   8.125   6.799   8.776
 2917WAT     H2 8994   8.080   6.658   8.707
 2918WAT      O 8995   7.963   3.130   3.939
 2918WAT     H1 8996   7.979   3.191   3.862
 2918WAT     H2 8997   7.878   3.155   3.986
 2919WAT      O 8998   9.293   6.436   2.872
 2919WAT     H1 8999   9.363   6.506   2.856
 2919WAT     H2 9000   9.328   6.367   2.935
 2920WAT      O 9001   1.957   9.778   6.563
 2920WAT     H1 9002   1.982   9.788   6.467
 2920WAT     H2 9003   1.973   9.864   6.612
 2921WAT      O 9004   4.211   8.373   6.581
 2921WAT     H1 9005   4.178   8.466   6.568
 2921WAT     H2 9006   4.203   8.348   6.678
 2922WAT      O 9007   8.860   7.568   2.384
 2922WAT     H1 9008   8.858   7.658   2.342
 2922WAT     H2 9009   8.916   7.506   2.329
 2923WAT      O 9010   3.129   1.238   5.403
 2923WAT     H1 9011   3.060   1.260   5.334
 2923WAT     H2 9012   3.107   1.150   5.446
 2924WAT      O 9013   6.771   8.417   9.432
 2924WAT     H1 9014   6.695   8.480   9.448
 2924WAT     H2 9015   6.771   8.346   9.502
 2925WAT      O 9016   7.830   5.368   5.497
 2925WAT     H1 9017   7.911   5.343   5.444
 2925WAT     H2 9018   7.797   5.458   5.467
 2926WAT      O 9019   6.350   3.076   3.754
 2926WAT     H1 9020   6.260   3.098   3.790
 2926WAT     H2 9021   6.358   2.977   3.741
 2927WAT      O 9022   8.734   8.355   6.267
 2927WAT     H1 9023   8.748   8.450   6.296
 2927WAT     H2 9024   8.749   8.294   6.344
 2928WAT      O 9025   7.622   6.174   4.192
 2928WAT     H1 9026   7.608   6.273   4.187
 2928WAT     H2 9027   7.537   6.130   4.222
 2929WAT      O 9028   6.450   5.174   8.218
 2929WAT     H1 9029   6.416   5.263   8.187
 2929WAT     H2 9030   6.505   5.186   8.301
 2930WAT      O 9031   9.246   3.305   5.318
 2930WAT     H1 9032   9.269   3.299   5.416
 2930WAT     H2 9033   9.277   3.394   5.283
 2931WAT      O 9034   7.721   5.795   2.444
 2931WAT     H1 9035   7.708   5.837   2.354
 2931WAT     H2 9036   7.790   5.846   2.495
 2932WAT      O 9037   3.069   3.314   2.388
 2932WAT     H1 9038   3.086   3.410   2.411
 2932WAT     H2 9039   3.050   3.263   2.471
 2933WAT      O 9040   3.294   5.536   3.636
 2933WAT     H1 9041   3.374   5.586   3.669
 2933WAT     H2 9042   3.308   5.438   3.647
 2934WAT      O 9043   6.481   5.443   2.270
 2934WAT     H1 9044   6.447   5.352   2.291
 2934WAT     H2 9045   6.481   5.499   2.353
 2935WAT      O 9046   3.823   8.670   3.391
 2935WAT     H1 9047   3.750   8.601   3.387
 2935WAT     H2 9048   3.873   8.660   3.478
 2936WAT      O 9049   8.819   8.622   7.968
 2936WAT     H1 9050   8.892   8.572   8.015
 2936WAT     H2 9051   8.732   8.605   8.015
 2937WAT      O 9052   4.345   3.142   4.157
 2937WAT     H1 9053   4.262   3.144   4.211
 2937WAT     H2 9054   4.332   3.195   4.073
 2938WAT      O 9055   8.844   2.023   6.162
 2938WAT     H1 9056   8.943   2.033   6.176
 2938WAT     H2 9057   8.796   2.058   6.242
 2939WAT      O 9058   3.078   2.690   1.363
 2939WAT     H1 9059   3.168   2.650   1.377
 2939WAT     H2 9060   3.087   2.782   1.326
 2940WAT      O 9061   7.045   7.270   1.014
 2940WAT     H1 9062   7.011   7.363   1.031
 2940WAT     H2 9063   6.973   7.204   1.033
 2941WAT      O 9064   7.930   2.904   5.297
 2941WAT     H1 9065   7.861   2.877   5.365
 2941WAT     H2 9066   7.911   2.997   5.265
 2942WAT      O 9067   1.374   6.197   1.449
 2942WAT     H1 9068   1.377   6.290   1.486
 2942WAT     H2 9069   1.448   6.185   1.384
 2943WAT      O 9070   2.850   5.516   9.466
 2943WAT     H1 9071   2.934   5.462   9.459
 2943WAT     H2 9072   2.775   5.457   9.496
 2944WAT      O 9073   4.751   1.791   1.791
 2944WAT     H1 9074   4.667   1.814   1.841
 2944WAT     H2 9075   4.774   1.695   1.806
 2945WAT      O 9076   7.227   2.943   5.256
 2945WAT     H1 9077   7.173   2.859   5.251
 2945WAT     H2 9078   7.194   3.000   5.331
 2946WAT      O 9079   8.729   3.866   9.213
 2946WAT     H1 9080   8.680   3.947   9.181
 2946WAT     H2 9081   8.767   3.885   9.304
 2947WAT      O 9082   8.976   2.162   4.919
 2947WAT     H1 9083   8.902   2.209   4.966
 2947WAT     H2 9084   8.959   2.063   4.918
 2948WAT      O 9085   1.522   2.870   3.839
 2948WAT     H1 9086   1.527   2.958   3.792
 2948WAT     H2 9087   1.603   2.858   3.896
 2949WAT      O 9088   2.968   4.646   4.626
 2949WAT     H1 9089   3.005   4.726   4.578
 2949WAT     H2 9090   2.870   4.658   4.641
 2950WAT      O 9091   3.408   9.475   8.866
 2950WAT     H1 9092   3.498   9.517   8.859
 2950WAT     H2 9093   3.388   9.423   8.783
 2951WAT      O 9094   1.660   1.023   4.527
 2951WAT     H1 9095   1.686   0.985   4.616
 2951WAT     H2 9096   1.604   1.105   4.541
 2952WAT      O 9097   4.153   7.100   3.204
 2952WAT     H1 9098   4.180   7.006   3.181
 2952WAT     H2 9099   4.220   7.164   3.167
 2953WAT      O 9100   0.930   9.219   7.532
 2953WAT     H1 9101   0.983   9.230   7.448
 2953WAT     H2 9102   0.976   9.152   7.591
 2954WAT      O 9103   2.907   1.013   1.849
 2954WAT     H1 9104   2.942   1.106   1.841
 2954WAT     H2 9105   2.918   0.966   1.761
 2955WAT      O 9106   8.891   5.005   3.319
 2955WAT     H1 9107   8.955   5.007   3.396
 2955WAT     H2 9108   8.940   4.982   3.235
 2956WAT      O 9109   3.662   8.451   4.234
 2956WAT     H1 9110   3.613   8.537   4.235
 2956WAT     H2 9111   3.624   8.392   4.162
 2957WAT      O 9112   0.846   3.600   9.681
 2957WAT     H1 9113   0.786   3.537   9.633
 2957WAT     H2 9114   0.792   3.672   9.723
 2958WAT      O 9115   3.566   8.163   0.240
 2958WAT     H1 9116   3.592   8.087   0.298
 2958WAT     H2 9117   3.578   8.138   0.144
 2959WAT      O 9118   0.558   1.514   0.642
 2959WAT     H1 9119   0.609   1.519   0.555
 2959WAT     H2 9120   0.575   1.598   0.694
 2960WAT      O 9121   2.431   5.673   9.514
 2960WAT     H1 9122   2.357   5.708   9.456
 2960WAT     H2 9123   2.499   5.628   9.457
 2961WAT      O 9124   9.637   6.629   8.933
 2961WAT     H1 9125   9.684   6.621   9.021
 2961WAT     H2 9126   9.553   6.681   8.945
 2962WAT      O 9127   1.209   0.695   0.463
 2962WAT     H1 9128   1.158   0.610   0.479
 2962WAT     H2 9129   1.287   0.677   0.403
 2963WAT      O 9130   5.595   7.274   5.591
 2963WAT     H1 9131   5.643   7.361   5.604
 2963WAT     H2 9132   5.497   7.289   5.603
 2964WAT      O 9133   5.229   0.576   9.795
 2964WAT     H1 9134   5.185   0.528   9.871
 2964WAT     H2 9135   5.299   0.638   9.831
 2965WAT      O 9136   1.948   3.203   5.992
 2965WAT     H1 9137   1.950   3.286   6.048
 2965WAT     H2 9138   2.040   3.163   5.988
 2966WAT      O 9139   4.059   7.241   0.550
 2966WAT     H1 9140   4.022   7.148   0.558
 2966WAT     H2 9141   4.159   7.238   0.554
 2967WAT      O 9142   8.219   6.538   3.404
 2967WAT     H1 9143   8.181   6.626   3.376
 2967WAT     H2 9144   8.144   6.473   3.421
 2968WAT      O 9145   3.002   0.376   8.507
 2968WAT     H1 9146   3.058   0.388   8.425
 2968WAT     H2 9147   2.931   0.447   8.509
 2969WAT      O 9148   5.811   9.081   4.421
 2969WAT     H1 9149   5.903   9.114   4.441
 2969WAT     H2 9150   5.817   8.998   4.364
 2970WAT      O 9151   1.820   6.104   6.193
 2970WAT     H1 9152   1.800   6.102   6.291
 2970WAT     H2 9153   1.918   6.123   6.180
 2971WAT      O 9154   9.495   2.478   9.467
 2971WAT     H1 9155   9.488   2.518   9.559
 2971WAT     H2 9156   9.580   2.507   9.424
 2972WAT      O 9157   3.726   0.231   7.261
 2972WAT     H1 9158   3.688   0.175   7.187
 2972WAT     H2 9159   3.714   0.327   7.239
 2973WAT      O 9160   8.240   2.295   9.493
 2973WAT     H1 9161   8.274   2.260   9.406
 2973WAT     H2 9162   8.235   2.395   9.489
 2974WAT      O 9163   5.069   7.875   6.106
 2974WAT     H1 9164   4.980   7.832   6.089
 2974WAT     H2 9165   5.096   7.859   6.201
 2975WAT      O 9166   4.220   8.886   6.945
 2975WAT     H1 9167   4.291   8.862   7.011
 2975WAT     H2 9168   4.146   8.935   6.992
 2976WAT      O 9169   6.262   1.412   2.661
 2976WAT     H1 9170   6.171   1.374   2.645
 2976WAT     H2 9171   6.264   1.507   2.632
 2977WAT      O 9172   1.548   9.689   6.352
 2977WAT     H1 9173   1.508   9.599   6.335
 2977WAT     H2 9174   1.638   9.678   6.394
 2978WAT      O 9175   6.257   5.416   8.748
 2978WAT     H1 9176   6.213   5.440   8.835
 2978WAT     H2 9177   6.190   5.422   8.674
 2979WAT      O 9178   6.731   2.559   7.640
 2979WAT     H1 9179   6.643   2.516   7.624
 2979WAT     H2 9180   6.764   2.602   7.556
 2980WAT      O 9181   8.605   5.459   4.251
 2980WAT     H1 9182   8.666   5.411   4.188
 2980WAT     H2 9183   8.621   5.427   4.344
 2981WAT      O 9184   3.925   7.101   7.888
 2981WAT     H1 9185   3.952   7.197   7.899
 2981WAT     H2 9186   3.970   7.062   7.808
 2982WAT      O 9187   3.945   5.205   9.550
 2982WAT     H1 9188   3.875   5.213   9.621
 2982WAT     H2 9189   3.905   5.229   9.461
 2983WAT      O 9190   7.909   5.811   8.713
 2983WAT     H1 9191   7.886   5.908   8.705
 2983WAT     H2 9192   7.999   5.795   8.673
 2984WAT      O 9193   8.785   8.383   4.833
 2984WAT     H1 9194   8.805   8.288   4.808
 2984WAT     H2 9195   8.729   8.425   4.762
 2985WAT      O 9196   8.202   3.744   8.474
 2985WAT     H1 9197   8.201   3.843   8.465
 2985WAT     H2 9198   8.180   3.702   8.386
 2986WAT      O 9199   0.639   6.852   0.226
 2986WAT     H1 9200   0.672   6.908   0.150
 2986WAT     H2 9201   0.539   6.856   0.229
 2987WAT      O 9202   7.864   6.887   7.103
 2987WAT     H1 9203   7.954   6.929   7.120
 2987WAT     H2 9204   7.819   6.870   7.190
 2988WAT      O 9205   7.376   3.934   5.542
 2988WAT     H1 9206   7.346   3.947   5.448
 2988WAT     H2 9207   7.476   3.927   5.545
 2989WAT      O 9208   8.376   1.926   9.139
 2989WAT     H1 9209   8.290   1.976   9.147
 2989WAT     H2 9210   8.452   1.985   9.166
 2990WAT      O 9211   0.359   8.781   8.798
 2990WAT     H1 9212   0.337   8.685   8.813
 2990WAT     H2 9213   0.360   8.830   8.885
 2991WAT      O 9214   1.948   1.620   5.879
 2991WAT     H1 9215   1.961   1.718   5.889
 2991WAT     H2 9216   1.894   1.585   5.955
 2992WAT      O 9217   5.253   1.628   6.859
 2992WAT     H1 9218   5.259   1.695   6.933
 2992WAT     H2 9219   5.222   1.540   6.895
 2993WAT      O 9220   5.163   1.111   6.571
 2993WAT     H1 9221   5.101   1.087   6.646
 2993WAT     H2 9222   5.258   1.105   6.602
 2994WAT      O 9223   8.930   7.108   6.097
 2994WAT     H1 9224   9.027   7.134   6.098
 2994WAT     H2 9225   8.922   7.009   6.096
 2995WAT      O 9226   7.066   9.404   1.686
 2995WAT     H1 9227   7.051   9.475   1.618
 2995WAT     H2 9228   6.998   9.331   1.674
 2996WAT      O 9229   8.975   7.522   2.634
 2996WAT     H1 9230   8.915   7.569   2.569
 2996WAT     H2 9231   9.018   7.444   2.588
 2997WAT      O 9232   5.917   4.425   5.966
 2997WAT     H1 9233   5.891   4.514   5.927
 2997WAT     H2 9234   5.838   4.387   6.016
 2998WAT      O 9235   1.188   9.344   0.334
 2998WAT     H1 9236   1.225   9.430   0.370
 2998WAT     H2 9237   1.163   9.285   0.411
 2999WAT      O 9238   3.152   0.950   3.822
 2999WAT     H1 9239   3.167   1.031   3.765
 2999WAT     H2 9240   3.065   0.908   3.797
 3000WAT      O 9241   6.590   2.283   2.985
 3000WAT     H1 9242   6.551   2.261   3.075
 3000WAT     H2 9243   6.542   2.363   2.948
 3001WAT      O 9244   0.579   1.451   0.097
 3001WAT     H1 9245   0.644   1.403   0.038
 3001WAT     H2 9246   0.599   1.549   0.095
 3002WAT      O 9247   3.651   1.001   6.808
 3002WAT     H1 9248   3.564   1.045   6.786
 3002WAT     H2 9249   3.690   1.041   6.891
 3003WAT      O 9250   8.586   1.093   4.309
 3003WAT     H1 9251   8.556   1.160   4.377
 3003WAT     H2 9252   8.517   1.022   4.299
 3004WAT      O 9253   8.845   7.028   2.279
 3004WAT     H1 9254   8.943   7.029   2.296
 3004WAT     H2 9255   8.813   6.933   2.268
 3005WAT      O 9256   7.232   3.173   4.361
 3005WAT     H1 9257   7.164   3.106   4.390
 3005WAT     H2 9258   7.297   3.129   4.299
 3006WAT      O 9259   8.762   7.850   3.076
 3006WAT     H1 9260   8.687   7.811   3.022
 3006WAT     H2 9261   8.809   7.919   3.021
 3007WAT      O 9262   2.546   3.483   9.363
 3007WAT     H1 9263   2.595   3.416   9.307
 3007WAT     H2 9264   2.515   3.439   9.447
 3008WAT      O 9265   6.247   1.427   0.831
 3008WAT     H1 9266   6.273   1.371   0.753
 3008WAT     H2 9267   6.156   1.466   0.816
 3009WAT      O 9268   5.203   4.287   1.572
 3009WAT     H1 9269   5.286   4.309   1.624
 3009WAT     H2 9270   5.123   4.303   1.630
 3010WAT      O 9271   7.672   2.822   6.170
 3010WAT     H1 9272   7.664   2.738   6.225
 3010WAT     H2 9273   7.585   2.870   6.170
 3011WAT      O 9274   4.501   1.761   8.364
 3011WAT     H1 9275   4.439   1.832   8.398
 3011WAT     H2 9276   4.563   1.802   8.296
 3012WAT      O 9277   3.127   2.110   4.168
 3012WAT     H1 9278   3.084   2.164   4.240
 3012WAT     H2 9279   3.058   2.055   4.121
 3013WAT      O 9280   3.517   9.465   9.523
 3013WAT     H1 9281   3.601   9.447   9.471
 3013WAT     H2 9282   3.541   9.509   9.610
 3014WAT      O 9283   4.427   2.437   6.764
 3014WAT     H1 9284   4.520   2.403   6.774
 3014WAT     H2 9285   4.375   2.417   6.847
 3015WAT      O 9286   9.278   0.103   5.917
 3015WAT     H1 9287   9.208   0.034   5.903
 3015WAT     H2 9288   9.260   0.152   6.003
 3016WAT      O 9289   3.088   7.559   0.104
 3016WAT     H1 9290   3.131   7.469   0.100
 3016WAT     H2 9291   3.082   7.597   0.012
 3017WAT      O 9292   7.591   8.969   1.904
 3017WAT     H1 9293   7.655   9.044   1.921
 3017WAT     H2 9294   7.641   8.888   1.874
 3018WAT      O 9295   7.083   5.768   4.971
 3018WAT     H1 9296   7.037   5.741   5.056
 3018WAT     H2 9297   7.171   5.811   4.992
 3019WAT      O 9298   9.474   7.950   2.269
 3019WAT     H1 9299   9.514   7.862   2.242
 3019WAT     H2 9300   9.402   7.975   2.204
 3020WAT      O 9301   2.891   6.357   9.802
 3020WAT     H1 9302   2.845   6.435   9.759
 3020WAT     H2 9303   2.823   6.303   9.852
 3021WAT      O 9304   1.576   8.801   2.446
 3021WAT     H1 9305   1.612   8.775   2.357
 3021WAT     H2 9306   1.642   8.774   2.517
 3022WAT      O 9307   5.126   4.529   5.727
 3022WAT     H1 9308   5.027   4.522   5.715
 3022WAT     H2 9309   5.172   4.482   5.652
 3023WAT      O 9310   5.356   3.339   7.497
 3023WAT     H1 9311   5.409   3.293   7.426
 3023WAT     H2 9312   5.318   3.424   7.461
 3024WAT      O 9313   1.066   6.268   8.145
 3024WAT     H1 9314   1.064   6.168   8.149
 3024WAT     H2 9315   1.131   6.297   8.075
 3025WAT      O 9316   5.226   3.589   4.912
 3025WAT     H1 9317   5.179   3.644   4.982
 3025WAT     H2 9318   5.182   3.499   4.906
 3026WAT      O 9319   1.653   6.886   0.523
 3026WAT     H1 9320   1.699   6.817   0.580
 3026WAT     H2 9321   1.580   6.929   0.577
 3027WAT      O 9322   1.543   4.374   2.006
 3027WAT     H1 9323   1.583   4.288   1.975
 3027WAT     H2 9324   1.469   4.356   2.070
 3028WAT      O 9325   0.353   0.239   6.346
 3028WAT     H1 9326   0.443   0.279   6.331
 3028WAT     H2 9327   0.282   0.305   6.322
 3029WAT      O 9328   0.129   5.295   8.172
 3029WAT     H1 9329   0.133   5.213   8.116
 3029WAT     H2 9330   0.063   5.282   8.246
 3030WAT      O 9331   6.903   0.351   5.644
 3030WAT     H1 9332   6.906   0.408   5.726
 3030WAT     H2 9333   6.830   0.282   5.654
 3031WAT      O 9334   4.607   6.544   2.267
 3031WAT     H1 9335   4.697   6.579   2.240
 3031WAT     H2 9336   4.619   6.474   2.338
 3032WAT      O 9337   4.801   3.048   3.794
 3032WAT     H1 9338   4.725   3.006   3.743
 3032WAT     H2 9339   4.883   3.047   3.738
 3033WAT      O 9340   8.647   1.032   1.140
 3033WAT     H1 9341   8.725   0.976   1.108
 3033WAT     H2 9342   8.562   0.995   1.101
 3034WAT      O 9343   0.383   3.072   6.581
 3034WAT     H1 9344   0.446   3.146   6.606
 3034WAT     H2 9345   0.292   3.093   6.615
 3035WAT      O 9346   8.777   6.306   6.297
 3035WAT     H1 9347   8.686   6.263   6.297
 3035WAT     H2 9348   8.804   6.326   6.391
 3036WAT      O 9349   0.755   2.539   8.954
 3036WAT     H1 9350   0.796   2.448   8.945
 3036WAT     H2 9351   0.729   2.573   8.863
 3037WAT      O 9352   9.491   3.955   2.841
 3037WAT     H1 9353   9.490   4.014   2.922
 3037WAT     H2 9354   9.470   4.009   2.760
 3038WAT      O 9355   4.417   9.723   5.522
 3038WAT     H1 9356   4.392   9.787   5.449
 3038WAT     H2 9357   4.512   9.740   5.550
 3039WAT      O 9358   7.775   2.310   9.228
 3039WAT     H1 9359   7.851   2.360   9.187
 3039WAT     H2 9360   7.706   2.292   9.159
 3040WAT      O 9361   0.716   6.759   2.286
 3040WAT     H1 9362   0.668   6.817   2.220
 3040WAT     H2 9363   0.658   6.683   2.312
 3041WAT      O 9364   0.194   8.148   6.741
 3041WAT     H1 9365   0.109   8.129   6.791
 3041WAT     H2 9366   0.235   8.062   6.711
 3042WAT      O 9367   4.921   0.153   8.463
 3042WAT     H1 9368   4.939   0.250   8.448
 3042WAT     H2 9369   4.984   0.118   8.532
 3043WAT      O 9370   0.488   6.472   4.296
 3043WAT     H1 9371   0.439   6.436   4.216
 3043WAT     H2 9372   0.431   6.539   4.343
 3044WAT      O 9373   8.368   8.618   7.995
 3044WAT     H1 9374   8.335   8.546   8.056
 3044WAT     H2 9375   8.300   8.692   7.991
 3045WAT      O 9376   7.471   1.930   6.994
 3045WAT     H1 9377   7.497   1.929   6.898
 3045WAT     H2 9378   7.450   1.837   7.024
 3046WAT      O 9379   7.001   8.528   2.162
 3046WAT     H1 9380   7.061   8.573   2.228
 3046WAT     H2 9381   6.980   8.435   2.195
 3047WAT      O 9382   3.421   9.349   6.674
 3047WAT     H1 9383   3.369   9.342   6.759
 3047WAT     H2 9384   3.387   9.281   6.609
 3048WAT      O 9385   6.325   8.578   7.499
 3048WAT     H1 9386   6.371   8.649   7.552
 3048WAT     H2 9387   6.233   8.609   7.475
 3049WAT      O 9388   9.615   4.364   0.597
 3049WAT     H1 9389   9.692   4.329   0.544
 3049WAT     H2 9390   9.639   4.453   0.636
 3050WAT      O 9391   4.161   9.620   2.152
 3050WAT     H1 9392   4.110   9.534   2.140
 3050WAT     H2 9393   4.255   9.607   2.122
 3051WAT      O 9394   2.693   2.851   0.931
 3051WAT     H1 9395   2.676   2.944   0.965
 3051WAT     H2 9396   2.665   2.846   0.834
 3052WAT      O 9397   8.503   7.557   3.867
 3052WAT     H1 9398   8.499   7.474   3.811
 3052WAT     H2 9399   8.438   7.549   3.943
 3053WAT      O 9400   0.328   1.945   8.870
 3053WAT     H1 9401   0.366   1.852   8.868
 3053WAT     H2 9402   0.330   1.980   8.963
 3054WAT      O 9403   7.593   1.189   2.807
 3054WAT     H1 9404   7.554   1.248   2.877
 3054WAT     H2 9405   7.689   1.214   2.793
 3055WAT      O 9406   6.977   6.888   5.152
 3055WAT     H1 9407   6.970   6.988   5.153
 3055WAT     H2 9408   7.011   6.857   5.063
 3056WAT      O 9409   0.438   6.252   1.230
 3056WAT     H1 9410   0.521   6.307   1.224
 3056WAT     H2 9411   0.461   6.159   1.258
 3057WAT      O 9412   6.267   4.416   5.326
 3057WAT     H1 9413   6.231   4.382   5.239
 3057WAT     H2 9414   6.199   4.403   5.398
 3058WAT      O 9415   9.161   6.786   5.904
 3058WAT     H1 9416   9.229   6.724   5.942
 3058WAT     H2 9417   9.201   6.877   5.895
 3059WAT      O 9418   4.513   1.876   3.039
 3059WAT     H1 9419   4.429   1.866   3.093
 3059WAT     H2 9420   4.539   1.787   3.001
 3060WAT      O 9421   0.268   1.925   5.984
 3060WAT     H1 9422   0.297   2.013   6.021
 3060WAT     H2 9423   0.205   1.940   5.908
 3061WAT      O 9424   8.741   7.121   3.171
 3061WAT     H1 9425   8.705   7.214   3.177
 3061WAT     H2 9426   8.665   7.056   3.180
 3062WAT      O 9427   0.882   0.132   8.917
 3062WAT     H1 9428   0.962   0.129   8.977
 3062WAT     H2 9429   0.809   0.184   8.961
 3063WAT      O 9430   3.400   4.715   7.912
 3063WAT     H1 9431   3.432   4.807   7.890
 3063WAT     H2 9432   3.365   4.714   8.005
 3064WAT      O 9433   4.883   9.519   7.947
 3064WAT     H1 9434   4.881   9.581   7.869
 3064WAT     H2 9435   4.893   9.425   7.915
 3065WAT      O 9436   7.022   8.146   3.340
 3065WAT     H1 9437   6.929   8.112   3.354
 3065WAT     H2 9438   7.021   8.218   3.271
 3066WAT      O 9439   3.484   6.386   6.560
 3066WAT     H1 9440   3.428   6.304   6.566
 3066WAT     H2 9441   3.467   6.443   6.641
 3067WAT      O 9442   6.082   8.713   0.324
 3067WAT     H1 9443   6.078   8.624   0.369
 3067WAT     H2 9444   6.162   8.717   0.265
 3068WAT      O 9445   1.074   1.921   7.497
 3068WAT     H1 9446   1.054   1.895   7.403
 3068WAT     H2 9447   1.032   2.010   7.517
 3069WAT      O 9448   1.774   1.510   6.082
 3069WAT     H1 9449   1.729   1.592   6.118
 3069WAT     H2 9450   1.844   1.479   6.146
 3070WAT      O 9451   5.110   7.798   4.176
 3070WAT     H1 9452   5.052   7.764   4.102
 3070WAT     H2 9453   5.155   7.883   4.148
 3071WAT      O 9454   5.583   9.779   8.635
 3071WAT     H1 9455   5.572   9.832   8.551
 3071WAT     H2 9456   5.565   9.683   8.616
 3072WAT      O 9457   4.801   1.021   2.818
 3072WAT     H1 9458   4.714   0.982   2.790
 3072WAT     H2 9459   4.868   1.009   2.744
 3073WAT      O 9460   2.108   0.576   6.520
 3073WAT     H1 9461   2.145   0.599   6.430
 3073WAT     H2 9462   2.102   0.476   6.529
 3074WAT      O 9463   3.680   3.168   2.859
 3074WAT     H1 9464   3.625   3.164   2.776
 3074WAT     H2 9465   3.755   3.101   2.852
 3075WAT      O 9466   8.220   2.675   1.250
 3075WAT     H1 9467   8.134   2.719   1.276
 3075WAT     H2 9468   8.200   2.594   1.195
 3076WAT      O 9469   1.673   3.793   2.221
 3076WAT     H1 9470   1.761   3.839   2.211
 3076WAT     H2 9471   1.643   3.758   2.133
 3077WAT      O 9472   1.593   9.269   9.218
 3077WAT     H1 9473   1.521   9.203   9.242
 3077WAT     H2 9474   1.589   9.347   9.280
 3078WAT      O 9475   1.419   9.254   8.359
 3078WAT     H1 9476   1.349   9.300   8.305
 3078WAT     H2 9477   1.402   9.155   8.360
 3079WAT      O 9478   0.495   6.263   2.574
 3079WAT     H1 9479   0.569   6.204   2.606
 3079WAT     H2 9480   0.489   6.257   2.474
 3080WAT      O 9481   5.459   1.353   8.705
 3080WAT     H1 9482   5.543   1.299   8.711
 3080WAT     H2 9483   5.398   1.328   8.780
 3081WAT      O 9484   0.041   5.534   6.824
 3081WAT     H1 9485   0.094   5.469   6.771
 3081WAT     H2 9486   0.027   5.617   6.771
 3082WAT      O 9487   2.849   8.901   0.570
 3082WAT     H1 9488   2.855   8.802   0.557
 3082WAT     H2 9489   2.941   8.940   0.575
 3083WAT      O 9490   5.113   9.520   4.263
 3083WAT     H1 9491   5.082   9.594   4.204
 3083WAT     H2 9492   5.213   9.516   4.260
 3084WAT      O 9493   3.390   2.033   5.412
 3084WAT     H1 9494   3.369   2.110   5.352
 3084WAT     H2 9495   3.471   2.055   5.467
 3085WAT      O 9496   1.838   1.215   1.607
 3085WAT     H1 9497   1.851   1.314   1.608
 3085WAT     H2 9498   1.906   1.173   1.548
 3086WAT      O 9499   2.535   4.786   7.641
 3086WAT     H1 9500   2.493   4.876   7.647
 3086WAT     H2 9501   2.473   4.718   7.681
 3087WAT      O 9502   8.653   9.583   7.729
 3087WAT     H1 9503   8.717   9.649   7.689
 3087WAT     H2 9504   8.697   9.534   7.804
 3088WAT      O 9505   8.081   9.446   2.186
 3088WAT     H1 9506   8.010   9.516   2.176
 3088WAT     H2 9507   8.150   9.478   2.251
 3089WAT      O 9508   4.743   1.056   8.697
 3089WAT     H1 9509   4.801   1.057   8.615
 3089WAT     H2 9510   4.790   1.007   8.770
 3090WAT      O 9511   0.575   3.683   4.819
 3090WAT     H1 9512   0.590   3.711   4.724
 3090WAT     H2 9513   0.652   3.714   4.875
 3091WAT      O 9514   6.561   1.851   4.331
 3091WAT     H1 9515   6.496   1.927   4.338
 3091WAT     H2 9516   6.653   1.887   4.314
 3092WAT      O 9517   0.922   6.370   6.866
 3092WAT     H1 9518   0.872   6.284   6.866
 3092WAT     H2 9519   1.002   6.363   6.925
 3093WAT      O 9520   9.021   8.757   5.276
 3093WAT     H1 9521   9.088   8.813   5.324
 3093WAT     H2 9522   8.957   8.817   5.228
 3094WAT      O 9523   1.842   3.367   2.973
 3094WAT     H1 9524   1.757   3.420   2.968
 3094WAT     H2 9525   1.901   3.405   3.044
 3095WAT      O 9526   0.066   4.030   0.742
 3095WAT     H1 9527   0.061   4.124   0.776
 3095WAT     H2 9528   0.005   3.971   0.795
 3096WAT      O 9529   8.300   2.090   0.727
 3096WAT     H1 9530   8.259   2.003   0.755
 3096WAT     H2 9531   8.245   2.132   0.656
 3097WAT      O 9532   4.008   5.328   1.335
 3097WAT     H1 9533   4.043   5.252   1.390
 3097WAT     H2 9534   3.995   5.408   1.392
 3098WAT      O 9535   0.184   2.095   9.333
 3098WAT     H1 9536   0.153   2.082   9.427
 3098WAT     H2 9537   0.105   2.117   9.275
 3099WAT      O 9538   0.401   0.248   9.354
 3099WAT     H1 9539   0.447   0.161   9.369
 3099WAT     H2 9540   0.323   0.235   9.294
 3100WAT      O 9541   2.303   0.203   7.456
 3100WAT     H1 9542   2.317   0.240   7.548
 3100WAT     H2 9543   2.391   0.178   7.416
 3101WAT      O 9544   7.302   9.405   9.060
 3101WAT     H1 9545   7.376   9.417   9.127
 3101WAT     H2 9546   7.289   9.307   9.042
 3102WAT      O 9547   9.796   6.756   8.740
 3102WAT     H1 9548   9.771   6.740   8.836
 3102WAT     H2 9549   9.802   6.854   8.723
 3103WAT      O 9550   4.672   1.838   4.123
 3103WAT     H1 9551   4.704   1.775   4.194
 3103WAT     H2 9552   4.587   1.881   4.152
 3104WAT      O 9553   4.346   1.100   2.301
 3104WAT     H1 9554   4.383   1.067   2.215
 3104WAT     H2 9555   4.251   1.069   2.311
 3105WAT      O 9556   3.183   0.622   4.061
 3105WAT     H1 9557   3.254   0.609   3.991
 3105WAT     H2 9558   3.103   0.568   4.038
 3106WAT      O 9559   8.101   0.251   7.526
 3106WAT     H1 9560   8.045   0.211   7.453
 3106WAT     H2 9561   8.120   0.347   7.505
 3107WAT      O 9562   2.300   1.595   7.886
 3107WAT     H1 9563   2.305   1.617   7.983
 3107WAT     H2 9564   2.331   1.673   7.832
 3108WAT      O 9565   5.058   6.807   9.842
 3108WAT     H1 9566   5.052   6.822   9.744
 3108WAT     H2 9567   4.968   6.778   9.877
 3109WAT      O 9568   3.770   3.941   9.599
 3109WAT     H1 9569   3.722   3.924   9.513
 3109WAT     H2 9570   3.734   4.024   9.641
 3110WAT      O 9571   9.156   5.050   8.496
 3110WAT     H1 9572   9.191   5.132   8.452
 3110WAT     H2 9573   9.085   5.075   8.562
 3111WAT      O 9574   4.914   7.632   1.941
 3111WAT     H1 9575   4.890   7.726   1.916
 3111WAT     H2 9576   4.998   7.606   1.894
 3112WAT      O 9577   4.746   1.919   8.561
 3112WAT     H1 9578   4.797   1.911   8.476
 3112WAT     H2 9579   4.659   1.964   8.544
 3113WAT      O 9580   3.855   6.041   9.041
 3113WAT     H1 9581   3.948   6.047   9.006
 3113WAT     H2 9582   3.845   6.100   9.121
 3114WAT      O 9583   0.924   8.938   4.394
 3114WAT     H1 9584   0.993   8.903   4.331
 3114WAT     H2 9585   0.966   9.004   4.456
 3115WAT      O 9586   7.443   4.073   8.988
 3115WAT     H1 9587   7.364   4.117   8.945
 3115WAT     H2 9588   7.464   3.988   8.939
 3116WAT      O 9589   3.894   8.295   4.219
 3116WAT     H1 9590   3.818   8.359   4.212
 3116WAT     H2 9591   3.868   8.209   4.174
 3117WAT      O 9592   3.323   7.972   2.273
 3117WAT     H1 9593   3.309   7.958   2.175
 3117WAT     H2 9594   3.411   8.018   2.287
 3118WAT      O 9595   4.655   8.357   5.464
 3118WAT     H1 9596   4.632   8.417   5.387
 3118WAT     H2 9597   4.754   8.357   5.478
 3119WAT      O 9598   2.216   5.674   1.706
 3119WAT     H1 9599   2.279   5.735   1.753
 3119WAT     H2 9600   2.147   5.728   1.658
 3120WAT      O 9601   4.755   7.215   7.181
 3120WAT     H1 9602   4.728   7.202   7.277
 3120WAT     H2 9603   4.673   7.221   7.124
 3121WAT      O 9604   1.688   4.260   6.915
 3121WAT     H1 9605   1.787   4.266   6.902
 3121WAT     H2 9606   1.645   4.343   6.881
 3122WAT      O 9607   1.871   2.311   8.609
 3122WAT     H1 9608   1.929   2.286   8.686
 3122WAT     H2 9609   1.860   2.233   8.548
 3123WAT      O 9610   9.208   6.425   9.728
 3123WAT     H1 9611   9.125   6.373   9.747
 3123WAT     H2 9612   9.256   6.443   9.814
 3124WAT      O 9613   4.022   9.040   1.221
 3124WAT     H1 9614   4.017   8.986   1.137
 3124WAT     H2 9615   3.994   8.983   1.298
 3125WAT      O 9616   8.669   3.356   0.157
 3125WAT     H1 9617   8.598   3.422   0.181
 3125WAT     H2 9618   8.729   3.397   0.087
 3126WAT      O 9619   2.476   8.286   9.222
 3126WAT     H1 9620   2.393   8.274   9.277
 3126WAT     H2 9621   2.452   8.322   9.133
 3127WAT      O 9622   4.226   8.936   8.829
 3127WAT     H1 9623   4.249   8.841   8.851
 3127WAT     H2 9624   4.253   8.956   8.735
 3128WAT      O 9625   6.553   5.237   1.172
 3128WAT     H1 9626   6.501   5.197   1.097
 3128WAT     H2 9627   6.561   5.170   1.246
 3129WAT      O 9628   1.383   5.315   7.956
 3129WAT     H1 9629   1.299   5.267   7.981
 3129WAT     H2 9630   1.431   5.344   8.038
 3130WAT      O 9631   9.385   8.283   1.078
 3130WAT     H1 9632   9.371   8.382   1.071
 3130WAT     H2 9633   9.329   8.236   1.010
 3131WAT      O 9634   9.203   7.533   3.346
 3131WAT     H1 9635   9.127   7.595   3.326
 3131WAT     H2 9636   9.288   7.572   3.310
 3132WAT      O 9637   8.082   6.107   0.872
 3132WAT     H1 9638   8.109   6.035   0.936
 3132WAT     H2 9639   8.073   6.068   0.781
 3133WAT      O 9640   0.341   8.295   0.516
 3133WAT     H1 9641   0.386   8.293   0.605
 3133WAT     H2 9642   0.246   8.326   0.528
 3134WAT      O 9643   2.270   1.948   5.371
 3134WAT     H1 9644   2.177   1.983   5.379
 3134WAT     H2 9645   2.330   1.998   5.433
 3135WAT      O 9646   0.374   1.431   5.147
 3135WAT     H1 9647   0.316   1.510   5.162
 3135WAT     H2 9648   0.362   1.365   5.221
 3136WAT      O 9649   6.886   2.838   3.197
 3136WAT     H1 9650   6.844   2.828   3.287
 3136WAT     H2 9651   6.964   2.900   3.203
 3137WAT      O 9652   5.344   1.488   6.621
 3137WAT     H1 9653   5.442   1.498   6.603
 3137WAT     H2 9654   5.318   1.547   6.698
 3138WAT      O 9655   0.222   8.473   5.772
 3138WAT     H1 9656   0.142   8.414   5.776
 3138WAT     H2 9657   0.260   8.471   5.680
 3139WAT      O 9658   9.449   9.691   1.164
 3139WAT     H1 9659   9.390   9.711   1.086
 3139WAT     H2 9660   9.544   9.682   1.133
 3140WAT      O 9661   7.386   7.199   0.309
 3140WAT     H1 9662   7.465   7.146   0.278
 3140WAT     H2 9663   7.411   7.250   0.391
 3141WAT      O 9664   0.456   5.203   9.435
 3141WAT     H1 9665   0.397   5.148   9.493
 3141WAT     H2 9666   0.478   5.289   9.481
 3142WAT      O 9667   2.246   8.646   6.140
 3142WAT     H1 9668   2.171   8.670   6.077
 3142WAT     H2 9669   2.263   8.548   6.136
 3143WAT      O 9670   7.044   6.535   0.728
 3143WAT     H1 9671   6.976   6.606   0.745
 3143WAT     H2 9672   7.068   6.533   0.631
 3144WAT      O 9673   9.264   5.451   2.610
 3144WAT     H1 9674   9.321   5.424   2.688
 3144WAT     H2 9675   9.187   5.506   2.643
 3145WAT      O 9676   3.396   5.894   8.849
 3145WAT     H1 9677   3.371   5.919   8.942
 3145WAT     H2 9678   3.328   5.831   8.812
 3146WAT      O 9679   0.875   5.854   0.079
 3146WAT     H1 9680   0.868   5.953   0.093
 3146WAT     H2 9681   0.803   5.825   0.015
 3147WAT      O 9682   5.965   9.303   7.935
 3147WAT     H1 9683   6.011   9.214   7.940
 3147WAT     H2 9684   6.027   9.374   7.969
 3148WAT      O 9685   0.763   4.105   1.704
 3148WAT     H1 9686   0.706   4.162   1.646
 3148WAT     H2 9687   0.855   4.101   1.667
 3149WAT      O 9688   0.633   0.605   8.566
 3149WAT     H1 9689   0.587   0.621   8.653
 3149WAT     H2 9690   0.571   0.628   8.491
 3150WAT      O 9691   3.184   4.194   0.242
 3150WAT     H1 9692   3.146   4.280   0.207
 3150WAT     H2 9693   3.114   4.123   0.238
 3151WAT      O 9694   5.009   7.297   0.149
 3151WAT     H1 9695   5.067   7.371   0.183
 3151WAT     H2 9696   5.041   7.210   0.185
 3152WAT      O 9697   6.657   5.717   0.592
 3152WAT     H1 9698   6.703   5.638   0.550
 3152WAT     H2 9699   6.633   5.783   0.521
 3153WAT      O 9700   6.752   8.652   2.121
 3153WAT     H1 9701   6.722   8.557   2.124
 3153WAT     H2 9702   6.848   8.656   2.092
 3154WAT      O 9703   1.113   4.240   8.339
 3154WAT     H1 9704   1.191   4.273   8.393
 3154WAT     H2 9705   1.067   4.167   8.388
 3155WAT      O 9706   4.011   3.027   9.559
 3155WAT     H1 9707   4.060   2.997   9.641
 3155WAT     H2 9708   4.062   3.000   9.477
 3156WAT      O 9709   9.286   3.171   6.540
 3156WAT     H1 9710   9.368   3.162   6.596
 3156WAT     H2 9711   9.281   3.095   6.475
 3157WAT      O 9712   1.681   6.392   2.629
 3157WAT     H1 9713   1.644   6.306   2.664
 3157WAT     H2 9714   1.659   6.400   2.531
 3158WAT      O 9715   1.160   0.441   9.609
 3158WAT     H1 9716   1.222   0.435   9.530
 3158WAT     H2 9717   1.105   0.358   9.615
 3159WAT      O 9718   3.976   6.227   1.253
 3159WAT     H1 9719   4.072   6.201   1.262
 3159WAT     H2 9720   3.921   6.179   1.322
 3160WAT      O 9721   0.783   5.512   2.724
 3160WAT     H1 9722   0.856   5.496   2.791
 3160WAT     H2 9723   0.774   5.611   2.708
 3161WAT      O 9724   8.535   5.299   1.343
 3161WAT     H1 9725   8.498   5.390   1.359
 3161WAT     H2 9726   8.597   5.275   1.418
 3162WAT      O 9727   9.700   1.294   3.374
 3162WAT     H1 9728   9.609   1.253   3.374
 3162WAT     H2 9729   9.732   1.305   3.280
 3163WAT      O 9730   3.054   1.281   7.891
 3163WAT     H1 9731   2.963   1.300   7.854
 3163WAT     H2 9732   3.075   1.347   7.964
 3164WAT      O 9733   1.357   0.771   6.618
 3164WAT     H1 9734   1.315   0.790   6.529
 3164WAT     H2 9735   1.450   0.807   6.620
 3165WAT      O 9736   1.483   7.778   2.973
 3165WAT     H1 9737   1.448   7.684   2.980
 3165WAT     H2 9738   1.440   7.824   2.896
 3166WAT      O 9739   3.157   2.830   2.505
 3166WAT     H1 9740   3.100   2.792   2.577
 3166WAT     H2 9741   3.253   2.822   2.530
 3167WAT      O 9742   2.206   5.544   7.252
 3167WAT     H1 9743   2.176   5.452   7.227
 3167WAT     H2 9744   2.140   5.585   7.316
 3168WAT      O 9745   8.484   5.616   4.889
 3168WAT     H1 9746   8.409   5.602   4.824
 3168WAT     H2 9747   8.500   5.532   4.940
 3169WAT      O 9748   3.433   4.564   4.711
 3169WAT     H1 9749   3.382   4.538   4.630
 3169WAT     H2 9750   3.447   4.484   4.769
 3170WAT      O 9751   5.951   7.335   8.960
 3170WAT     H1 9752   5.987   7.274   9.030
 3170WAT     H2 9753   5.939   7.285   8.875
 3171WAT      O 9754   4.924   8.836   5.370
 3171WAT     H1 9755   4.923   8.888   5.285
 3171WAT     H2 9756   4.938   8.898   5.447
 3172WAT      O 9757   2.525   5.658   6.649
 3172WAT     H1 9758   2.501   5.590   6.719
 3172WAT     H2 9759   2.474   5.639   6.565
 3173WAT      O 9760   6.521   2.222   9.855
 3173WAT     H1 9761   6.497   2.280   9.777
 3173WAT     H2 9762   6.582   2.272   9.916
 3174WAT      O 9763   7.361   8.666   1.861
 3174WAT     H1 9764   7.445   8.635   1.906
 3174WAT     H2 9765   7.297   8.701   1.930
 3175WAT      O 9766   5.651   1.750   4.790
 3175WAT     H1 9767   5.728   1.710   4.739
 3175WAT     H2 9768   5.632   1.695   4.871
 3176WAT      O 9769   2.351   1.697   0.666
 3176WAT     H1 9770   2.288   1.624   0.639
 3176WAT     H2 9771   2.299   1.775   0.700
 3177WAT      O 9772   7.075   5.841   6.710
 3177WAT     H1 9773   7.119   5.755   6.684
 3177WAT     H2 9774   6.980   5.839   6.680
 3178WAT      O 9775   0.052   7.547   9.037
 3178WAT     H1 9776   0.042   7.645   9.025
 3178WAT     H2 9777   0.045   7.501   8.948
 3179WAT      O 9778   0.131   8.339   1.276
 3179WAT     H1 9779   0.220   8.384   1.269
 3179WAT     H2 9780   0.144   8.241   1.294
 3180WAT      O 9781   3.713   0.705   4.427
 3180WAT     H1 9782   3.618   0.710   4.398
 3180WAT     H2 9783   3.727   0.764   4.506
 3181WAT      O 9784   2.928   5.905   2.259
 3181WAT     H1 9785   2.894   5.866   2.345
 3181WAT     H2 9786   2.997   5.975   2.279
 3182WAT      O 9787   7.485   8.314   7.036
 3182WAT     H1 9788   7.555   8.306   6.965
 3182WAT     H2 9789   7.519   8.373   7.109
 3183WAT      O 9790   4.946   0.860   8.814
 3183WAT     H1 9791   4.916   0.800   8.740
 3183WAT     H2 9792   5.011   0.811   8.872
 3184WAT      O 9793   5.564   4.657   2.502
 3184WAT     H1 9794   5.591   4.561   2.504
 3184WAT     H2 9795   5.593   4.698   2.415
 3185WAT      O 9796   6.989   3.421   0.779
 3185WAT     H1 9797   7.058   3.464   0.838
 3185WAT     H2 9798   6.988   3.322   0.797
 3186WAT      O 9799   1.058   1.562   0.064
 3186WAT     H1 9800   1.107   1.628   0.007
 3186WAT     H2 9801   0.978   1.606   0.104
 3187WAT      O 9802   4.337   9.742   3.782
 3187WAT     H1 9803   4.298   9.810   3.720
 3187WAT     H2 9804   4.295   9.751   3.872
 3188WAT      O 9805   1.218   0.786   9.580
 3188WAT     H1 9806   1.185   0.849   9.651
 3188WAT     H2 9807   1.175   0.696   9.593
 3189WAT      O 9808   8.597   8.604   8.116
 3189WAT     H1 9809   8.520   8.609   8.053
 3189WAT     H2 9810   8.574   8.651   8.202
 3190WAT      O 9811   7.000   8.400   5.767
 3190WAT     H1 9812   6.956   8.323   5.812
 3190WAT     H2 9813   7.094   8.410   5.801
 3191WAT      O 9814   3.898   9.342   0.338
 3191WAT     H1 9815   3.880   9.293   0.253
 3191WAT     H2 9816   3.819   9.337   0.398
 3192WAT      O 9817   0.199   9.339   4.726
 3192WAT     H1 9818   0.153   9.306   4.809
 3192WAT     H2 9819   0.147   9.312   4.646
 3193WAT      O 9820   9.726   6.928   5.682
 3193WAT     H1 9821   9.641   6.958   5.639
 3193WAT     H2 9822   9.724   6.951   5.779
 3194WAT      O 9823   6.560   0.171   5.288
 3194WAT     H1 9824   6.596   0.261   5.314
 3194WAT     H2 9825   6.485   0.146   5.350
 3195WAT      O 9826   0.737   4.901   2.557
 3195WAT     H1 9827   0.792   4.961   2.500
 3195WAT     H2 9828   0.714   4.948   2.643
 3196WAT      O 9829   0.774   6.475   8.792
 3196WAT     H1 9830   0.693   6.428   8.827
 3196WAT     H2 9831   0.827   6.412   8.734
 3197WAT      O 9832   4.793   0.396   5.994
 3197WAT     H1 9833   4.829   0.473   6.046
 3197WAT     H2 9834   4.811   0.311   6.044
 3198WAT      O 9835   3.243   6.100   0.451
 3198WAT     H1 9836   3.180   6.054   0.513
 3198WAT     H2 9837   3.251   6.047   0.366
 3199WAT      O 9838   3.777   1.342   2.398
 3199WAT     H1 9839   3.802   1.250   2.368
 3199WAT     H2 9840   3.678   1.351   2.401
 3200WAT      O 9841   7.882   7.354   4.527
 3200WAT     H1 9842   7.926   7.352   4.617
 3200WAT     H2 9843   7.783   7.357   4.539
 3201WAT      O 9844   6.723   6.064   3.609
 3201WAT     H1 9845   6.791   6.005   3.651
 3201WAT     H2 9846   6.672   6.112   3.680
 3202WAT      O 9847   8.130   3.087   3.333
 3202WAT     H1 9848   8.135   3.130   3.242
 3202WAT     H2 9849   8.169   3.148   3.401
 3203WAT      O 9850   2.973   5.156   5.976
 3203WAT     H1 9851   3.009   5.092   6.044
 3203WAT     H2 9852   2.932   5.234   6.023
 3204WAT      O 9853   1.294   9.352   5.989
 3204WAT     H1 9854   1.302   9.278   6.056
 3204WAT     H2 9855   1.262   9.435   6.035
 3205WAT      O 9856   5.309   0.227   8.734
 3205WAT     H1 9857   5.238   0.156   8.730
 3205WAT     H2 9858   5.381   0.205   8.668
 3206WAT      O 9859   2.545   3.365   2.330
 3206WAT     H1 9860   2.478   3.357   2.404
 3206WAT     H2 9861   2.591   3.277   2.318
 3207WAT      O 9862   8.698   7.197   2.419
 3207WAT     H1 9863   8.670   7.275   2.363
 3207WAT     H2 9864   8.754   7.135   2.364
 3208WAT      O 9865   5.135   8.993   6.287
 3208WAT     H1 9866   5.065   9.041   6.340
 3208WAT     H2 9867   5.177   9.056   6.222
 3209WAT      O 9868   3.917   2.944   4.355
 3209WAT     H1 9869   3.905   2.874   4.285
 3209WAT     H2 9870   3.879   3.031   4.323
 3210WAT      O 9871   0.659   3.077   2.113
 3210WAT     H1 9872   0.560   3.069   2.116
 3210WAT     H2 9873   0.695   3.081   2.206
 3211WAT      O 9874   7.674   5.727   4.287
 3211WAT     H1 9875   7.583   5.755   4.258
 3211WAT     H2 9876   7.689   5.631   4.265
 3212WAT      O 9877   1.121   6.393   7.053
 3212WAT     H1 9878   1.101   6.300   7.087
 3212WAT     H2 9879   1.203   6.391   6.997
 3213WAT      O 9880   6.159   7.878   7.035
 3213WAT     H1 9881   6.166   7.823   7.118
 3213WAT     H2 9882   6.250   7.896   6.999
 3214WAT      O 9883   2.015   0.504   8.708
 3214WAT     H1 9884   2.106   0.543   8.700
 3214WAT     H2 9885   2.021   0.408   8.735
 3215WAT      O 9886   8.790   5.696   8.022
 3215WAT     H1 9887   8.804   5.761   7.948
 3215WAT     H2 9888   8.833   5.608   7.998
 3216WAT      O 9889   4.494   8.208   9.148
 3216WAT     H1 9890   4.556   8.183   9.222
 3216WAT     H2 9891   4.436   8.130   9.124
 3217WAT      O 9892   6.202   6.416   9.761
 3217WAT     H1 9893   6.275   6.470   9.718
 3217WAT     H2 9894   6.238   6.368   9.841
 3218WAT      O 9895   5.656   0.417   5.997
 3218WAT     H1 9896   5.730   0.474   5.961
 3218WAT     H2 9897   5.690   0.325   6.013
 3219WAT      O 9898   8.624   3.768   2.270
 3219WAT     H1 9899   8.659   3.823   2.346
 3219WAT     H2 9900   8.527   3.748   2.286
 3220WAT      O 9901   2.725   2.620   1.088
 3220WAT     H1 9902   2.808   2.566   1.075
 3220WAT     H2 9903   2.731   2.703   1.033
 3221WAT      O 9904   0.456   5.306   1.984
 3221WAT     H1 9905   0.451   5.217   2.028
 3221WAT     H2 9906   0.403   5.304   1.899
 3222WAT      O 9907   0.301   8.256   7.166
 3222WAT     H1 9908   0.388   8.206   7.169
 3222WAT     H2 9909   0.260   8.257   7.257
 3223WAT      O 9910   8.706   9.327   8.448
 3223WAT     H1 9911   8.683   9.244   8.396
 3223WAT     H2 9912   8.672   9.318   8.541
 3224WAT      O 9913   5.191   3.213   7.859
 3224WAT     H1 9914   5.281   3.192   7.823
 3224WAT     H2 9915   5.192   3.204   7.959
 3225WAT      O 9916   3.836   6.703   2.210
 3225WAT     H1 9917   3.932   6.732   2.211
 3225WAT     H2 9918   3.807   6.681   2.304
 3226WAT      O 9919   2.406   3.275   7.524
 3226WAT     H1 9920   2.398   3.176   7.513
 3226WAT     H2 9921   2.339   3.321   7.466
 3227WAT      O 9922   8.487   9.073   5.017
 3227WAT     H1 9923   8.568   9.104   4.968
 3227WAT     H2 9924   8.514   9.010   5.090
 3228WAT      O 9925   8.433   6.429   1.110
 3228WAT     H1 9926   8.397   6.522   1.111
 3228WAT     H2 9927   8.360   6.364   1.131
 3229WAT      O 9928   8.295   8.697   4.202
 3229WAT     H1 9929   8.213   8.749   4.176
 3229WAT     H2 9930   8.272   8.636   4.278
 3230WAT      O 9931   4.757   1.803   6.123
 3230WAT     H1 9932   4.701   1.787   6.204
 3230WAT     H2 9933   4.702   1.850   6.054
 3231WAT      O 9934   0.264   3.521   9.196
 3231WAT     H1 9935   0.239   3.607   9.242
 3231WAT     H2 9936   0.272   3.449   9.265
 3232WAT      O 9937   8.854   3.310   7.433
 3232WAT     H1 9938   8.945   3.290   7.470
 3232WAT     H2 9939   8.786   3.300   7.505
 3233WAT      O 9940   5.866   0.272   1.230
 3233WAT     H1 9941   5.861   0.183   1.184
 3233WAT     H2 9942   5.913   0.338   1.171
 3234WAT      O 9943   0.627   3.035   8.680
 3234WAT     H1 9944   0.580   2.975   8.745
 3234WAT     H2 9945   0.564   3.057   8.604
 3235WAT      O 9946   0.125   9.017   0.310
 3235WAT     H1 9947   0.135   8.949   0.383
 3235WAT     H2 9948   0.151   9.107   0.345
 3236WAT      O 9949   5.890   1.504   1.968
 3236WAT     H1 9950   5.893   1.407   1.992
 3236WAT     H2 9951   5.983   1.538   1.952
 3237WAT      O 9952   8.423   9.328   5.082
 3237WAT     H1 9953   8.401   9.371   4.994
 3237WAT     H2 9954   8.449   9.232   5.066
 3238WAT      O 9955   3.916   9.614   0.435
 3238WAT     H1 9956   3.898   9.517   0.416
 3238WAT     H2 9957   3.838   9.654   0.483
 3239WAT      O 9958   6.991   2.110   6.637
 3239WAT     H1 9959   6.926   2.083   6.566
 3239WAT     H2 9960   6.968   2.201   6.670
 3240WAT      O 9961   6.715   8.267   8.441
 3240WAT     H1 9962   6.669   8.222   8.364
 3240WAT     H2 9963   6.752   8.197   8.502
 3241WAT      O 9964   1.159   2.787   3.601
 3241WAT     H1 9965   1.129   2.732   3.679
 3241WAT     H2 9966   1.115   2.877   3.605
 3242WAT      O 9967   7.740   1.123   2.432
 3242WAT     H1 9968   7.829   1.103   2.391
 3242WAT     H2 9969   7.691   1.038   2.450
 3243WAT      O 9970   8.925   4.085   8.322
 3243WAT     H1 9971   8.963   3.996   8.345
 3243WAT     H2 9972   8.844   4.102   8.377
 3244WAT      O 9973   3.637   7.021   2.552
 3244WAT     H1 9974   3.544   7.057   2.545
 3244WAT     H2 9975   3.688   7.073   2.620
 3245WAT      O 9976   7.628   3.572   3.790
 3245WAT     H1 9977   7.680   3.561   3.705
 3245WAT     H2 9978   7.573   3.490   3.806
 3246WAT      O 9979   3.774   1.403   7.636
 3246WAT     H1 9980   3.869   1.411   7.667
 3246WAT     H2 9981   3.717   1.368   7.711
 3247WAT      O 9982   4.894   8.973   9.634
 3247WAT     H1 9983   4.811   9.027   9.622
 3247WAT     H2 9984   4.875   8.894   9.692
 3248WAT      O 9985   0.883   7.165   6.321
 3248WAT     H1 9986   0.920   7.237   6.263
 3248WAT     H2 9987   0.916   7.176   6.414
 3249WAT      O 9988   7.935   3.250   3.667
 3249WAT     H1 9989   7.854   3.191   3.658
 3249WAT     H2 9990   7.906   3.344   3.684
 3250WAT      O 9991   2.657   8.566   4.606
 3250WAT     H1 9992   2.671   8.662   4.632
 3250WAT     H2 9993   2.684   8.507   4.681
 3251WAT      O 9994   0.681   1.736   7.598
 3251WAT     H1 9995   0.666   1.709   7.503
 3251WAT     H2 9996   0.682   1.836   7.605
 3252WAT      O 9997   6.062   8.047   5.580
 3252WAT     H1 9998   6.014   8.135   5.577
 3252WAT     H2 9999   6.160   8.063   5.574
 3253WAT      O10000   4.235   2.151   4.237
 3253WAT     H110001   4.215   2.101   4.153
 3253WAT     H210002   4.179   2.233   4.241
 3254WAT      O10003   0.974   8.247   0.800
 3254WAT     H110004   0.941   8.335   0.765
 3254WAT     H210005   0.920   8.173   0.760
 3255WAT      O10006   1.853   6.593   5.945
 3255WAT     H110007   1.755   6.597   5.922
 3255WAT     H210008   1.894   6.683   5.929
 3256WAT      O10009   8.957   5.248   4.978
 3256WAT     H110010   8.998   5.181   5.040
 3256WAT     H210011   8.976   5.340   5.012
 3257WAT      O10012   6.892   4.241   1.701
 3257WAT     H110013   6.989   4.261   1.686
 3257WAT     H210014   6.850   4.214   1.614
 3258WAT      O10015   5.933   5.109   6.663
 3258WAT     H110016   6.007   5.163   6.704
 3258WAT     H210017   5.874   5.170   6.609
 3259WAT      O10018   7.831   5.132   4.889
 3259WAT     H110019   7.800   5.223   4.861
 3259WAT     H210020   7.753   5.070   4.895
 3260WAT      O10021   0.411   7.315   9.017
 3260WAT     H110022   0.445   7.400   9.057
 3260WAT     H210023   0.470   7.239   9.044
 3261WAT      O10024   0.251   5.047   9.527
 3261WAT     H110025   0.252   5.070   9.625
 3261WAT     H210026   0.201   4.962   9.513
 3262WAT      O10027   1.816   4.896   5.874
 3262WAT     H110028   1.789   4.952   5.796
 3262WAT     H210029   1.766   4.927   5.955
 3263WAT      O10030   2.538   4.138   6.185
 3263WAT     H110031   2.596   4.057   6.176
 3263WAT     H210032   2.507   4.146   6.280
 3264WAT      O10033   7.544   8.569   9.393
 3264WAT     H110034   7.527   8.579   9.491
 3264WAT     H210035   7.474   8.508   9.354
 3265WAT      O10036   0.337   1.651   3.910
 3265WAT     H110037   0.370   1.574   3.855
 3265WAT     H210038   0.413   1.689   3.962
 3266WAT      O10039   2.242   8.244   8.432
 3266WAT     H110040   2.285   8.331   8.458
 3266WAT     H210041   2.200   8.202   8.513
 3267WAT      O10042   5.757   8.835   4.300
 3267WAT     H110043   5.729   8.812   4.393
 3267WAT     H210044   5.678   8.834   4.240
 3268WAT      O10045   1.930   0.360   4.574
 3268WAT     H110046   2.018   0.343   4.618
 3268WAT     H210047   1.915   0.459   4.567
 3269WAT      O10048   3.132   4.346   3.893
 3269WAT     H110049   3.128   4.287   3.812
 3269WAT     H210050   3.080   4.430   3.876
 3270WAT      O10051   0.840   6.863   0.429
 3270WAT     H110052   0.824   6.948   0.479
 3270WAT     H210053   0.765   6.847   0.365
 3271WAT      O10054   7.514   1.096   7.530
 3271WAT     H110055   7.427   1.143   7.546
 3271WAT     H210056   7.518   1.014   7.587
 3272WAT      O10057   7.925   3.346   5.450
 3272WAT     H110058   7.962   3.315   5.537
 3272WAT     H210059   7.981   3.420   5.413
 3273WAT      O10060   7.254   2.760   3.155
 3273WAT     H110061   7.286   2.787   3.064
 3273WAT     H210062   7.196   2.679   3.146
 3274WAT      O10063   4.938   3.139   8.181
 3274WAT     H110064   4.923   3.052   8.228
 3274WAT     H210065   4.865   3.203   8.204
 3275WAT      O10066   5.852   7.461   1.747
 3275WAT     H110067   5.847   7.536   1.681
 3275WAT     H210068   5.852   7.497   1.840
 3276WAT      O10069   5.117   4.625   0.981
 3276WAT     H110070   5.162   4.538   0.963
 3276WAT     H210071   5.186   4.698   0.981
 3277WAT      O10072   8.182   4.862   3.189
 3277WAT     H110073   8.113   4.818   3.247
 3277WAT     H210074   8.269   4.813   3.198
 3278WAT      O10075   7.047   7.864   2.103
 3278WAT     H110076   7.065   7.932   2.033
 3278WAT     H210077   7.106   7.784   2.089
 3279WAT      O10078   6.103   4.349   7.332
 3279WAT     H110079   6.054   4.425   7.376
 3279WAT     H210080   6.066   4.336   7.239
 3280WAT      O10081   8.640   0.794   2.051
 3280WAT     H110082   8.663   0.845   2.134
 3280WAT     H210083   8.629   0.857   1.974
 3281WAT      O10084   1.938   9.006   6.550
 3281WAT     H110085   2.019   9.065   6.545
 3281WAT     H210086   1.922   8.964   6.461
 3282WAT      O10087   2.550   2.512   8.617
 3282WAT     H110088   2.581   2.423   8.583
 3282WAT     H210089   2.598   2.533   8.702
 3283WAT      O10090   3.067   3.849   1.581
 3283WAT     H110091   3.066   3.938   1.537
 3283WAT     H210092   3.004   3.787   1.534
 3284WAT      O10093   1.509   1.350   1.249
 3284WAT     H110094   1.512   1.378   1.345
 3284WAT     H210095   1.601   1.354   1.211
 3285WAT      O10096   4.301   2.835   9.041
 3285WAT     H110097   4.246   2.770   8.988
 3285WAT     H210098   4.258   2.850   9.130
 3286WAT      O10099   8.673   8.857   1.468
 3286WAT     H110100   8.672   8.944   1.419
 3286WAT     H210101   8.764   8.840   1.506
 3287WAT      O10102   9.096   7.288   3.913
 3287WAT     H110103   9.194   7.308   3.922
 3287WAT     H210104   9.051   7.364   3.867
 3288WAT      O10105   7.666   5.867   2.161
 3288WAT     H110106   7.752   5.823   2.137
 3288WAT     H210107   7.592   5.831   2.104
 3289WAT      O10108   9.414   4.741   4.522
 3289WAT     H110109   9.468   4.719   4.441
 3289WAT     H210110   9.347   4.812   4.499
 3290WAT      O10111   3.430   3.269   3.870
 3290WAT     H110112   3.398   3.359   3.839
 3290WAT     H210113   3.524   3.255   3.839
 3291WAT      O10114   1.565   4.321   1.173
 3291WAT     H110115   1.627   4.399   1.180
 3291WAT     H210116   1.510   4.328   1.089
 3292WAT      O10117   1.754   2.089   2.931
 3292WAT     H110118   1.744   2.070   3.029
 3292WAT     H210119   1.823   2.160   2.917
 3293WAT      O10120   6.551   8.914   7.012
 3293WAT     H110121   6.546   9.010   7.039
 3293WAT     H210122   6.511   8.903   6.921
 3294WAT      O10123   2.489   5.893   3.158
 3294WAT     H110124   2.580   5.935   3.152
 3294WAT     H210125   2.474   5.858   3.250
 3295WAT      O10126   0.610   8.459   1.657
 3295WAT     H110127   0.646   8.496   1.572
 3295WAT     H210128   0.639   8.515   1.734
 3296WAT      O10129   9.304   1.307   7.444
 3296WAT     H110130   9.249   1.263   7.372
 3296WAT     H210131   9.398   1.317   7.411
 3297WAT      O10132   5.114   6.460   4.305
 3297WAT     H110133   5.041   6.529   4.302
 3297WAT     H210134   5.152   6.447   4.214
 3298WAT      O10135   7.499   0.917   2.802
 3298WAT     H110136   7.549   1.004   2.810
 3298WAT     H210137   7.497   0.889   2.706
 3299WAT      O10138   8.628   0.494   7.009
 3299WAT     H110139   8.624   0.581   7.057
 3299WAT     H210140   8.596   0.505   6.915
 3300WAT      O10141   4.441   1.713   7.897
 3300WAT     H110142   4.456   1.809   7.872
 3300WAT     H210143   4.347   1.701   7.928
 3301WAT      O10144   5.602   0.638   4.145
 3301WAT     H110145   5.681   0.602   4.196
 3301WAT     H210146   5.536   0.677   4.210
 3302WAT      O10147   8.640   9.013   8.928
 3302WAT     H110148   8.594   8.929   8.955
 3302WAT     H210149   8.735   9.010   8.960
 3303WAT      O10150   9.573   6.579   7.198
 3303WAT     H110151   9.559   6.597   7.101
 3303WAT     H210152   9.520   6.646   7.251
 3304WAT      O10153   0.556   6.695   5.418
 3304WAT     H110154   0.478   6.634   5.409
 3304WAT     H210155   0.556   6.761   5.343
 3305WAT      O10156   2.474   1.998   6.560
 3305WAT     H110157   2.546   1.955   6.614
 3305WAT     H210158   2.397   1.935   6.550
 3306WAT      O10159   9.691   9.257   7.009
 3306WAT     H110160   9.723   9.178   6.956
 3306WAT     H210161   9.678   9.334   6.948
 3307WAT      O10162   3.180   1.791   2.092
 3307WAT     H110163   3.222   1.821   2.177
 3307WAT     H210164   3.189   1.691   2.084
 3308WAT      O10165   7.128   6.468   8.038
 3308WAT     H110166   7.143   6.391   7.976
 3308WAT     H210167   7.198   6.537   8.022
 3309WAT      O10168   0.276   1.792   4.981
 3309WAT     H110169   0.212   1.745   5.043
 3309WAT     H210170   0.261   1.891   4.987
 3310WAT      O10171   4.760   4.800   3.404
 3310WAT     H110172   4.830   4.797   3.333
 3310WAT     H210173   4.673   4.830   3.364
 3311WAT      O10174   0.587   9.143   5.927
 3311WAT     H110175   0.555   9.064   5.874
 3311WAT     H210176   0.509   9.185   5.975
 3312WAT      O10177   9.786   8.051   4.361
 3312WAT     H110178   9.745   8.118   4.423
 3312WAT     H210179   9.885   8.064   4.360
 3313WAT      O10180   9.042   3.646   6.885
 3313WAT     H110181   8.962   3.621   6.940
 3313WAT     H210182   9.035   3.604   6.795
 3314WAT      O10183   6.873   7.245   8.338
 3314WAT     H110184   6.937   7.233   8.414
 3314WAT     H210185   6.779   7.242   8.372
 3315WAT      O10186   8.290   5.459   1.431
 3315WAT     H110187   8.282   5.383   1.495
 3315WAT     H210188   8.201   5.504   1.422
 3316WAT      O10189   9.001   9.446   6.819
 3316WAT     H110190   8.922   9.486   6.864
 3316WAT     H210191   9.016   9.492   6.732
 3317WAT      O10192   8.037   5.943   5.497
 3317WAT     H110193   7.952   5.967   5.450
 3317WAT     H210194   8.019   5.928   5.594
 3318WAT      O10195   8.745   7.095   7.001
 3318WAT     H110196   8.803   7.017   7.026
 3318WAT     H210197   8.780   7.178   7.044
 3319WAT      O10198   9.230   9.485   0.794
 3319WAT     H110199   9.285   9.568   0.800
 3319WAT     H210200   9.162   9.485   0.867
 3320WAT      O10201   6.150   6.487   8.521
 3320WAT     H110202   6.159   6.545   8.440
 3320WAT     H210203   6.193   6.398   8.503
 3321WAT      O10204   8.615   5.641   6.837
 3321WAT     H110205   8.646   5.596   6.754
 3321WAT     H210206   8.581   5.732   6.815
 3322WAT      O10207   8.403   5.720   6.235
 3322WAT     H110208   8.397   5.673   6.147
 3322WAT     H210209   8.419   5.818   6.220
 3323WAT      O10210   3.030   7.479   7.003
 3323WAT     H110211   3.069   7.407   7.060
 3323WAT     H210212   3.023   7.446   6.909
 3324WAT      O10213   7.052   7.845   4.745
 3324WAT     H110214   6.957   7.847   4.777
 3324WAT     H210215   7.113   7.837   4.823
 3325WAT      O10216   9.559   8.689   2.027
 3325WAT     H110217   9.647   8.643   2.013
 3325WAT     H210218   9.538   8.693   2.125
 3326WAT      O10219   8.680   8.453   2.007
 3326WAT     H110220   8.759   8.469   1.947
 3326WAT     H210221   8.623   8.381   1.968
 3327WAT      O10222   9.164   2.718   5.817
 3327WAT     H110223   9.260   2.695   5.837
 3327WAT     H210224   9.140   2.685   5.725
 3328WAT      O10225   2.507   9.698   7.034
 3328WAT     H110226   2.490   9.625   7.099
 3328WAT     H210227   2.481   9.668   6.942
 3329WAT      O10228   6.264   4.685   7.329
 3329WAT     H110229   6.239   4.738   7.248
 3329WAT     H210230   6.335   4.619   7.306
 3330WAT      O10231   8.317   2.839   3.737
 3330WAT     H110232   8.265   2.787   3.669
 3330WAT     H210233   8.349   2.778   3.809
 3331WAT      O10234   1.530   3.507   9.874
 3331WAT     H110235   1.587   3.443   9.822
 3331WAT     H210236   1.454   3.457   9.916
 3332WAT      O10237   4.549   3.587   0.692
 3332WAT     H110238   4.588   3.645   0.763
 3332WAT     H210239   4.497   3.512   0.733
 3333WAT      O10240   6.324   7.964   7.888
 3333WAT     H110241   6.383   8.041   7.862
 3333WAT     H210242   6.256   7.994   7.954
 3334WAT      O10243   5.127   1.089   8.581
 3334WAT     H110244   5.110   1.078   8.679
 3334WAT     H210245   5.216   1.050   8.558
 3335WAT      O10246   5.128   3.538   9.680
 3335WAT     H110247   5.052   3.596   9.649
 3335WAT     H210248   5.097   3.443   9.687
 3336WAT      O10249   5.148   9.118   8.899
 3336WAT     H110250   5.110   9.133   8.808
 3336WAT     H210251   5.089   9.057   8.951
 3337WAT      O10252   3.502   0.291   7.552
 3337WAT     H110253   3.571   0.360   7.529
 3337WAT     H210254   3.538   0.200   7.528
 3338WAT      O10255   7.076   8.627   6.788
 3338WAT     H110256   6.988   8.593   6.755
 3338WAT     H210257   7.087   8.722   6.760
 3339WAT      O10258   2.085   3.120   1.231
 3339WAT     H110259   2.003   3.177   1.233
 3339WAT     H210260   2.063   3.029   1.264
 3340WAT      O10261   1.823   2.704   5.938
 3340WAT     H110262   1.784   2.653   6.015
 3340WAT     H210263   1.751   2.758   5.894
 3341WAT      O10264   4.722   8.610   9.658
 3341WAT     H110265   4.637   8.567   9.686
 3341WAT     H210266   4.751   8.675   9.728
 3342WAT      O10267   6.081   1.781   2.829
 3342WAT     H110268   6.124   1.721   2.761
 3342WAT     H210269   6.092   1.742   2.920
 3343WAT      O10270   5.580   9.489   8.750
 3343WAT     H110271   5.618   9.531   8.832
 3343WAT     H210272   5.654   9.449   8.696
 3344WAT      O10273   5.183   6.146   0.839
 3344WAT     H110274   5.104   6.193   0.877
 3344WAT     H210275   5.210   6.070   0.899
 3345WAT      O10276   0.014   5.467   5.958
 3345WAT     H110277   0.048   5.538   5.896
 3345WAT     H210278  -0.065   5.423   5.917
 3346WAT      O10279   9.372   0.808   4.870
 3346WAT     H110280   9.435   0.804   4.947
 3346WAT     H210281   9.378   0.899   4.827
 3347WAT      O10282   1.662   2.068   9.753
 3347WAT     H110283   1.746   2.061   9.699
 3347WAT     H210284   1.650   2.163   9.783
 3348WAT      O10285   6.271   4.655   3.469
 3348WAT     H110286   6.342   4.689   3.531
 3348WAT     H210287   6.189   4.633   3.522
 3349WAT      O10288   3.624   4.984   1.306
 3349WAT     H110289   3.718   4.993   1.272
 3349WAT     H210290   3.587   4.896   1.276
 3350WAT      O10291   3.228   7.030   9.384
 3350WAT     H110292   3.307   6.979   9.352
 3350WAT     H210293   3.182   7.073   9.307
 3351WAT      O10294   7.154   4.930   7.295
 3351WAT     H110295   7.056   4.913   7.304
 3351WAT     H210296   7.193   4.949   7.385
 3352WAT      O10297   7.948   0.115   8.118
 3352WAT     H110298   8.035   0.089   8.075
 3352WAT     H210299   7.955   0.103   8.217
 3353WAT      O10300   2.941   9.049   3.303
 3353WAT     H110301   2.937   8.952   3.325
 3353WAT     H210302   3.031   9.085   3.327
 3354WAT      O10303   7.202   4.203   8.864
 3354WAT     H110304   7.168   4.121   8.818
 3354WAT     H210305   7.234   4.269   8.796
 3355WAT      O10306   3.060   3.787   5.330
 3355WAT     H110307   3.104   3.781   5.241
 3355WAT     H210308   3.105   3.857   5.385
 3356WAT      O10309   0.930   8.764   8.650
 3356WAT     H110310   0.951   8.675   8.610
 3356WAT     H210311   0.940   8.759   8.749
 3357WAT      O10312   6.988   2.509   6.178
 3357WAT     H110313   7.061   2.447   6.149
 3357WAT     H210314   6.900   2.463   6.169
 3358WAT      O10315   0.452   8.388   3.658
 3358WAT     H110316   0.454   8.470   3.716
 3358WAT     H210317   0.480   8.412   3.565
 3359WAT      O10318   9.873   0.805   9.564
 3359WAT     H110319   9.887   0.711   9.535
 3359WAT     H210320   9.823   0.855   9.492
 3360WAT      O10321   1.347   0.722   4.115
 3360WAT     H110322   1.323   0.703   4.210
 3360WAT     H210323   1.300   0.656   4.056
 3361WAT      O10324   7.186   0.533   7.012
 3361WAT     H110325   7.154   0.449   6.968
 3361WAT     H210326   7.132   0.550   7.095
 3362WAT      O10327   2.284   7.474   6.683
 3362WAT     H110328   2.203   7.455   6.628
 3362WAT     H210329   2.318   7.566   6.662
 3363WAT      O10330   8.334   8.030   0.631
 3363WAT     H110331   8.405   7.964   0.609
 3363WAT     H210332   8.375   8.120   0.643
 3364WAT      O10333   7.992   4.623   1.846
 3364WAT     H110334   8.048   4.655   1.923
 3364WAT     H210335   7.977   4.699   1.782
 3365WAT      O10336   1.557   5.057   5.303
 3365WAT     H110337   1.518   5.075   5.213
 3365WAT     H210338   1.640   5.002   5.293
 3366WAT      O10339   6.135   0.332   3.331
 3366WAT     H110340   6.066   0.401   3.312
 3366WAT     H210341   6.090   0.246   3.357
 3367WAT      O10342   5.009   7.269   8.661
 3367WAT     H110343   5.084   7.251   8.597
 3367WAT     H210344   4.924   7.284   8.609
 3368WAT      O10345   7.167   0.951   0.889
 3368WAT     H110346   7.173   1.047   0.916
 3368WAT     H210347   7.083   0.935   0.838
 3369WAT      O10348   8.875   7.445   8.917
 3369WAT     H110349   8.817   7.435   8.836
 3369WAT     H210350   8.895   7.541   8.932
 3370WAT      O10351   9.574   1.498   2.532
 3370WAT     H110352   9.544   1.566   2.599
 3370WAT     H210353   9.644   1.440   2.573
 3371WAT      O10354   5.014   6.389   3.095
 3371WAT     H110355   5.071   6.445   3.036
 3371WAT     H210356   4.937   6.444   3.129
 3372WAT      O10357   3.090   3.795   1.133
 3372WAT     H110358   3.018   3.777   1.201
 3372WAT     H210359   3.132   3.884   1.153
 3373WAT      O10360   3.439   3.825   3.246
 3373WAT     H110361   3.402   3.734   3.263
 3373WAT     H210362   3.515   3.817   3.181
 3374WAT      O10363   1.496   8.886   4.565
 3374WAT     H110364   1.567   8.896   4.495
 3374WAT     H210365   1.527   8.821   4.635
 3375WAT      O10366   4.958   5.452   1.350
 3375WAT     H110367   5.002   5.393   1.417
 3375WAT     H210368   4.991   5.428   1.258
 3376WAT      O10369   7.045   7.824   0.078
 3376WAT     H110370   7.066   7.726   0.078
 3376WAT     H210371   6.981   7.844   0.152
 3377WAT      O10372   7.632   7.719   4.919
 3377WAT     H110373   7.653   7.713   5.016
 3377WAT     H210374   7.707   7.681   4.865
 3378WAT      O10375   3.012   0.462   1.187
 3378WAT     H110376   3.054   0.380   1.149
 3378WAT     H210377   2.914   0.446   1.201
 3379WAT      O10378   0.342   1.133   6.361
 3379WAT     H110379   0.377   1.202   6.425
 3379WAT     H210380   0.309   1.177   6.278
 3380WAT      O10381   4.902   4.378   6.125
 3380WAT     H110382   4.938   4.404   6.215
 3380WAT     H210383   4.867   4.460   6.079
 3381WAT      O10384   5.107   6.600   2.937
 3381WAT     H110385   5.143   6.631   3.024
 3381WAT     H210386   5.169   6.627   2.863
 3382WAT      O10387   5.400   7.497   6.374
 3382WAT     H110388   5.326   7.480   6.308
 3382WAT     H210389   5.398   7.427   6.445
 3383WAT      O10390   0.756   8.134   1.961
 3383WAT     H110391   0.798   8.085   1.884
 3383WAT     H210392   0.778   8.232   1.953
 3384WAT      O10393   6.189   6.513   2.766
 3384WAT     H110394   6.243   6.431   2.788
 3384WAT     H210395   6.144   6.546   2.849
 3385WAT      O10396   3.523   5.266   3.206
 3385WAT     H110397   3.596   5.305   3.262
 3385WAT     H210398   3.455   5.337   3.186
 3386WAT      O10399   4.279   0.284   7.465
 3386WAT     H110400   4.187   0.257   7.494
 3386WAT     H210401   4.347   0.233   7.517
 3387WAT      O10402   4.027   6.281   7.610
 3387WAT     H110403   4.042   6.340   7.690
 3387WAT     H210404   3.987   6.336   7.536
 3388WAT      O10405   5.306   8.139   0.593
 3388WAT     H110406   5.210   8.111   0.587
 3388WAT     H210407   5.318   8.228   0.548
 3389WAT      O10408   2.058   3.072   3.446
 3389WAT     H110409   2.044   3.007   3.371
 3389WAT     H210410   1.991   3.145   3.440
 3390WAT      O10411   4.265   3.956   2.092
 3390WAT     H110412   4.293   3.935   2.186
 3390WAT     H210413   4.170   3.986   2.091
 3391WAT      O10414   3.113   5.532   4.274
 3391WAT     H110415   3.154   5.518   4.364
 3391WAT     H210416   3.120   5.628   4.248
 3392WAT      O10417   4.228   5.844   2.030
 3392WAT     H110418   4.202   5.750   2.051
 3392WAT     H210419   4.155   5.906   2.059
 3393WAT      O10420   8.938   2.546   8.302
 3393WAT     H110421   8.969   2.617   8.238
 3393WAT     H210422   8.994   2.549   8.385
 3394WAT      O10423   0.439   5.648   3.881
 3394WAT     H110424   0.339   5.639   3.886
 3394WAT     H210425   0.465   5.676   3.788
 3395WAT      O10426   3.504   8.530   8.365
 3395WAT     H110427   3.488   8.619   8.408
 3395WAT     H210428   3.433   8.466   8.394
 3396WAT      O10429   4.668   7.773   8.632
 3396WAT     H110430   4.631   7.750   8.722
 3396WAT     H210431   4.602   7.746   8.562
 3397WAT      O10432   8.252   3.532   0.289
 3397WAT     H110433   8.245   3.440   0.249
 3397WAT     H210434   8.277   3.524   0.385
 3398WAT      O10435   4.486   1.637   9.003
 3398WAT     H110436   4.523   1.620   8.912
 3398WAT     H210437   4.547   1.698   9.053
 3399WAT      O10438   2.745   2.007   1.779
 3399WAT     H110439   2.823   1.994   1.841
 3399WAT     H210440   2.682   1.930   1.788
 3400WAT      O10441   0.950   2.909   4.371
 3400WAT     H110442   0.973   2.965   4.451
 3400WAT     H210443   1.005   2.939   4.292
 3401WAT      O10444   8.431   2.243   4.533
 3401WAT     H110445   8.506   2.256   4.599
 3401WAT     H210446   8.462   2.183   4.460
 3402WAT      O10447   4.428   8.716   4.926
 3402WAT     H110448   4.358   8.751   4.988
 3402WAT     H210449   4.462   8.629   4.961
 3403WAT      O10450   9.777   1.112   9.303
 3403WAT     H110451   9.794   1.101   9.401
 3403WAT     H210452   9.809   1.031   9.254
 3404WAT      O10453   4.853   0.920   3.817
 3404WAT     H110454   4.911   0.992   3.855
 3404WAT     H210455   4.828   0.943   3.723
 3405WAT      O10456   8.555   3.618   7.121
 3405WAT     H110457   8.513   3.639   7.209
 3405WAT     H210458   8.648   3.655   7.120
 3406WAT      O10459   4.997   9.400   5.567
 3406WAT     H110460   4.987   9.362   5.475
 3406WAT     H210461   4.937   9.479   5.577
 3407WAT      O10462   3.309   0.084   8.552
 3407WAT     H110463   3.384   0.060   8.614
 3407WAT     H210464   3.315   0.182   8.530
 3408WAT      O10465   4.301   1.515   2.979
 3408WAT     H110466   4.272   1.577   2.906
 3408WAT     H210467   4.378   1.459   2.947
 3409WAT      O10468   9.480   5.139   9.315
 3409WAT     H110469   9.408   5.199   9.280
 3409WAT     H210470   9.453   5.043   9.301
 3410WAT      O10471   7.444   5.730   7.594
 3410WAT     H110472   7.473   5.761   7.504
 3410WAT     H210473   7.416   5.808   7.649
 3411WAT      O10474   8.673   4.486   3.981
 3411WAT     H110475   8.690   4.489   4.079
 3411WAT     H210476   8.579   4.456   3.964
 3412WAT      O10477   0.429   9.506   3.639
 3412WAT     H110478   0.447   9.458   3.553
 3412WAT     H210479   0.467   9.454   3.715
 3413WAT      O10480   4.780   6.926   4.294
 3413WAT     H110481   4.827   6.926   4.383
 3413WAT     H210482   4.687   6.962   4.305
 3414WAT      O10483   3.321   9.791   0.238
 3414WAT     H110484   3.287   9.858   0.303
 3414WAT     H210485   3.310   9.699   0.276
 3415WAT      O10486   9.835   1.397   3.996
 3415WAT     H110487   9.903   1.461   4.032
 3415WAT     H210488   9.744   1.424   4.025
 3416WAT      O10489   3.871   9.090   4.581
 3416WAT     H110490   3.791   9.098   4.640
 3416WAT     H210491   3.905   9.181   4.558
 3417WAT      O10492   9.750   5.668   1.960
 3417WAT     H110493   9.780   5.598   2.025
 3417WAT     H210494   9.729   5.753   2.009
 3418WAT      O10495   1.588   6.337   5.110
 3418WAT     H110496   1.507   6.383   5.146
 3418WAT     H210497   1.670   6.384   5.143
 3419WAT      O10498   7.143   2.860   2.143
 3419WAT     H110499   7.176   2.801   2.069
 3419WAT     H210500   7.206   2.854   2.220
 3420WAT      O10501   2.233   0.101   8.312
 3420WAT     H110502   2.287   0.033   8.262
 3420WAT     H210503   2.237   0.081   8.410
 3421WAT      O10504   4.582   3.812   2.219
 3421WAT     H110505   4.518   3.824   2.143
 3421WAT     H210506   4.658   3.754   2.189
 3422WAT      O10507   6.251   5.042   8.494
 3422WAT     H110508   6.295   5.131   8.487
 3422WAT     H210509   6.290   4.979   8.427
 3423WAT      O10510   1.558   8.175   2.114
 3423WAT     H110511   1.621   8.216   2.179
 3423WAT     H210512   1.609   8.144   2.033
 3424WAT      O10513   7.785   4.440   0.022
 3424WAT     H110514   7.742   4.356   0.056
 3424WAT     H210515   7.852   4.473   0.089
 3425WAT      O10516   2.319   6.362   7.270
 3425WAT     H110517   2.227   6.369   7.232
 3425WAT     H210518   2.338   6.267   7.295
 3426WAT      O10519   2.712   4.501   5.398
 3426WAT     H110520   2.622   4.458   5.411
 3426WAT     H210521   2.699   4.598   5.376
 3427WAT      O10522   1.578   4.057   6.737
 3427WAT     H110523   1.525   3.997   6.797
 3427WAT     H210524   1.605   4.139   6.788
 3428WAT      O10525   1.303   8.286   2.934
 3428WAT     H110526   1.372   8.235   2.987
 3428WAT     H210527   1.347   8.327   2.854
 3429WAT      O10528   5.865   8.220   4.607
 3429WAT     H110529   5.898   8.298   4.555
 3429WAT     H210530   5.791   8.251   4.668
 3430WAT      O10531   8.972   1.577   0.031
 3430WAT     H110532   8.953   1.488   0.071
 3430WAT     H210533   8.886   1.626   0.015
 3431WAT      O10534   5.111   1.910   2.640
 3431WAT     H110535   5.069   1.830   2.682
 3431WAT     H210536   5.210   1.899   2.638
 3432WAT      O10537   0.745   6.551   3.703
 3432WAT     H110538   0.758   6.630   3.762
 3432WAT     H210539   0.711   6.474   3.757
 3433WAT      O10540   6.096   9.170   4.076
 3433WAT     H110541   6.110   9.236   4.149
 3433WAT     H210542   6.098   9.077   4.113
 3434WAT      O10543   3.742   4.878   8.208
 3434WAT     H110544   3.690   4.877   8.294
 3434WAT     H210545   3.730   4.791   8.161
 3435WAT      O10546   4.439   5.561   2.508
 3435WAT     H110547   4.433   5.551   2.408
 3435WAT     H210548   4.532   5.539   2.538
 3436WAT      O10549   2.399   3.753   2.250
 3436WAT     H110550   2.477   3.695   2.274
 3436WAT     H210551   2.341   3.766   2.330
 3437WAT      O10552   7.586   6.455   5.372
 3437WAT     H110553   7.638   6.491   5.294
 3437WAT     H210554   7.530   6.528   5.411
 3438WAT      O10555   1.328   2.327   5.295
 3438WAT     H110556   1.320   2.227   5.289
 3438WAT     H210557   1.339   2.365   5.204
 3439WAT      O10558   4.950   4.700   6.431
 3439WAT     H110559   5.014   4.776   6.422
 3439WAT     H210560   4.859   4.728   6.400
 3440WAT      O10561   2.902   8.811   1.199
 3440WAT     H110562   2.877   8.907   1.186
 3440WAT     H210563   2.854   8.774   1.278
 3441WAT      O10564   8.087   5.875   4.913
 3441WAT     H110565   8.094   5.900   4.817
 3441WAT     H210566   8.148   5.932   4.967
 3442WAT      O10567   7.562   9.756   8.653
 3442WAT     H110568   7.486   9.691   8.644
 3442WAT     H210569   7.532   9.834   8.708
 3443WAT      O10570   4.540   7.761   7.034
 3443WAT     H110571   4.520   7.844   7.086
 3443WAT     H210572   4.608   7.706   7.084
 3444WAT      O10573   7.561   7.120   8.919
 3444WAT     H110574   7.494   7.132   8.845
 3444WAT     H210575   7.516   7.079   8.998
 3445WAT      O10576   8.860   6.792   8.358
 3445WAT     H110577   8.909   6.705   8.357
 3445WAT     H210578   8.837   6.818   8.264
 3446WAT      O10579   1.310   9.615   0.981
 3446WAT     H110580   1.266   9.682   0.921
 3446WAT     H210581   1.266   9.526   0.969
 3447WAT      O10582   3.855   4.290   5.859
 3447WAT     H110583   3.760   4.263   5.871
 3447WAT     H210584   3.915   4.218   5.893
 3448WAT      O10585   0.947   5.383   0.190
 3448WAT     H110586   0.949   5.342   0.099
 3448WAT     H210587   0.880   5.335   0.246
 3449WAT      O10588   4.717   5.769   1.809
 3449WAT     H110589   4.631   5.814   1.782
 3449WAT     H210590   4.710   5.736   1.903
 3450WAT      O10591   2.808   8.242   1.427
 3450WAT     H110592   2.843   8.305   1.497
 3450WAT     H210593   2.819   8.283   1.337
 3451WAT      O10594   3.843   6.430   5.736
 3451WAT     H110595   3.784   6.375   5.795
 3451WAT     H210596   3.857   6.520   5.777
 3452WAT      O10597   3.476   3.389   0.043
 3452WAT     H110598   3.566   3.431   0.054
 3452WAT     H210599   3.430   3.382   0.131
 3453WAT      O10600   6.665   7.002   8.410
 3453WAT     H110601   6.742   6.940   8.421
 3453WAT     H210602   6.661   7.035   8.316
 3454WAT      O10603   9.494   7.387   9.565
 3454WAT     H110604   9.493   7.307   9.625
 3454WAT     H210605   9.450   7.464   9.611
 3455WAT      O10606   3.459   4.958   5.397
 3455WAT     H110607   3.470   4.907   5.482
 3455WAT     H210608   3.532   5.026   5.389
 3456WAT      O10609   3.367   7.215   2.953
 3456WAT     H110610   3.317   7.258   2.877
 3456WAT     H210611   3.453   7.177   2.919
 3457WAT      O10612   6.235   2.767   3.772
 3457WAT     H110613   6.137   2.765   3.754
 3457WAT     H210614   6.251   2.780   3.870
 3458WAT      O10615   9.036   3.824   9.329
 3458WAT     H110616   9.046   3.735   9.375
 3458WAT     H210617   9.092   3.824   9.246
 3459WAT      O10618   3.939   3.796   2.014
 3459WAT     H110619   4.016   3.751   2.059
 3459WAT     H210620   3.907   3.871   2.071
 3460WAT      O10621   1.493   6.191   3.802
 3460WAT     H110622   1.430   6.155   3.733
 3460WAT     H210623   1.511   6.287   3.783
 3461WAT      O10624   8.695   1.453   0.938
 3461WAT     H110625   8.673   1.551   0.941
 3461WAT     H210626   8.736   1.432   0.849
 3462WAT      O10627   1.950   3.871   4.096
 3462WAT     H110628   2.024   3.893   4.160
 3462WAT     H210629   1.986   3.868   4.003
 3463WAT      O10630   4.254   1.033   1.683
 3463WAT     H110631   4.282   1.118   1.638
 3463WAT     H210632   4.181   0.990   1.630
 3464WAT      O10633   6.114   3.159   1.091
 3464WAT     H110634   6.017   3.184   1.094
 3464WAT     H210635   6.122   3.063   1.067
 3465WAT      O10636   9.871   0.572   8.800
 3465WAT     H110637   9.846   0.481   8.767
 3465WAT     H210638   9.944   0.608   8.742
 3466WAT      O10639   8.193   0.483   2.531
 3466WAT     H110640   8.137   0.418   2.479
 3466WAT     H210641   8.208   0.447   2.623
 3467WAT      O10642   8.112   0.473   3.845
 3467WAT     H110643   8.020   0.438   3.824
 3467WAT     H210644   8.160   0.494   3.760
 3468WAT      O10645   9.137   1.156   9.809
 3468WAT     H110646   9.162   1.227   9.744
 3468WAT     H210647   9.056   1.185   9.861
 3469WAT      O10648   9.849   9.562   7.168
 3469WAT     H110649   9.761   9.520   7.192
 3469WAT     H210650   9.855   9.572   7.069
 3470WAT      O10651   0.971   4.622   7.892
 3470WAT     H110652   0.929   4.558   7.957
 3470WAT     H210653   1.061   4.649   7.926
 3471WAT      O10654   5.865   4.245   4.904
 3471WAT     H110655   5.917   4.209   4.826
 3471WAT     H210656   5.898   4.337   4.926
 3472WAT      O10657   3.136  -0.003   7.375
 3472WAT     H110658   3.126   0.048   7.460
 3472WAT     H210659   3.213   0.035   7.323
 3473WAT      O10660   9.519   9.304   0.776
 3473WAT     H110661   9.435   9.258   0.804
 3473WAT     H210662   9.597   9.243   0.791
 3474WAT      O10663   2.252   1.537   8.196
 3474WAT     H110664   2.351   1.521   8.208
 3474WAT     H210665   2.235   1.635   8.186
 3475WAT      O10666   2.327   9.507   9.200
 3475WAT     H110667   2.415   9.528   9.243
 3475WAT     H210668   2.340   9.439   9.128
 3476WAT      O10669   7.620   1.201   9.637
 3476WAT     H110670   7.675   1.284   9.650
 3476WAT     H210671   7.647   1.132   9.704
 3477WAT      O10672   4.686   5.750   1.111
 3477WAT     H110673   4.660   5.809   1.187
 3477WAT     H210674   4.647   5.659   1.125
 3478WAT      O10675   3.082   5.933   7.798
 3478WAT     H110676   3.163   5.989   7.780
 3478WAT     H210677   3.063   5.877   7.717
 3479WAT      O10678   1.696   2.692  -0.001
 3479WAT     H110679   1.623   2.624   0.003
 3479WAT     H210680   1.772   2.663   0.058
 3480WAT      O10681   1.198   1.345   2.735
 3480WAT     H110682   1.296   1.325   2.736
 3480WAT     H210683   1.184   1.442   2.754
 3481WAT      O10684   5.504   5.918   7.081
 3481WAT     H110685   5.429   5.976   7.111
 3481WAT     H210686   5.581   5.976   7.053
 3482WAT      O10687   2.265   9.234   9.596
 3482WAT     H110688   2.269   9.308   9.663
 3482WAT     H210689   2.174   9.231   9.555
 3483WAT      O10690   6.862   0.135   6.890
 3483WAT     H110691   6.941   0.194   6.876
 3483WAT     H210692   6.809   0.131   6.805
 3484WAT      O10693   2.743   2.038   2.809
 3484WAT     H110694   2.661   2.008   2.759
 3484WAT     H210695   2.822   1.984   2.779
 3485WAT      O10696   0.514   2.953   6.050
 3485WAT     H110697   0.532   2.855   6.053
 3485WAT     H210698   0.539   2.989   5.960
 3486WAT      O10699   4.566   6.111   8.442
 3486WAT     H110700   4.473   6.145   8.444
 3486WAT     H210701   4.565   6.012   8.431
 3487WAT      O10702   2.569   3.394   2.022
 3487WAT     H110703   2.491   3.361   1.969
 3487WAT     H210704   2.540   3.410   2.117
 3488WAT      O10705   0.688   9.704   2.395
 3488WAT     H110706   0.775   9.657   2.412
 3488WAT     H210707   0.689   9.742   2.302
 3489WAT      O10708   3.179   2.954   1.361
 3489WAT     H110709   3.218   2.920   1.446
 3489WAT     H210710   3.242   3.019   1.319
 3490WAT      O10711   6.963   0.380   1.661
 3490WAT     H110712   6.906   0.299   1.676
 3490WAT     H210713   6.963   0.404   1.564
 3491WAT      O10714   3.299   5.168   4.493
 3491WAT     H110715   3.230   5.225   4.537
 3491WAT     H210716   3.390   5.203   4.515
 3492WAT      O10717   9.891   1.408   6.214
 3492WAT     H110718   9.813   1.364   6.260
 3492WAT     H210719   9.860   1.450   6.129
 3493WAT      O10720   1.331   3.719   1.622
 3493WAT     H110721   1.337   3.750   1.526
 3493WAT     H210722   1.332   3.799   1.682
 3494WAT      O10723   4.882   2.276   8.293
 3494WAT     H110724   4.799   2.232   8.330
 3494WAT     H210725   4.948   2.288   8.367
 3495WAT      O10726   0.473   2.584   4.164
 3495WAT     H110727   0.504   2.514   4.099
 3495WAT     H210728   0.463   2.671   4.117
 3496WAT      O10729   8.079   9.505   0.297
 3496WAT     H110730   8.137   9.540   0.224
 3496WAT     H210731   8.010   9.444   0.258
 3497WAT      O10732   8.024   0.493   1.777
 3497WAT     H110733   8.099   0.558   1.791
 3497WAT     H210734   8.061   0.401   1.764
 3498WAT      O10735   4.582   6.798   6.875
 3498WAT     H110736   4.616   6.730   6.939
 3498WAT     H210737   4.577   6.758   6.783
 3499WAT      O10738   0.509   1.322   1.534
 3499WAT     H110739   0.441   1.353   1.468
 3499WAT     H210740   0.463   1.278   1.611
 3500WAT      O10741   3.328   5.973   4.258
 3500WAT     H110742   3.300   6.061   4.220
 3500WAT     H210743   3.425   5.975   4.280
 3501WAT      O10744   2.713   4.778   5.379
 3501WAT     H110745   2.813   4.785   5.384
 3501WAT     H210746   2.671   4.855   5.426
 3502WAT      O10747   6.328   8.203   4.082
 3502WAT     H110748   6.346   8.295   4.048
 3502WAT     H210749   6.409   8.168   4.130
 3503WAT      O10750   9.649   7.315   0.289
 3503WAT     H110751   9.656   7.365   0.203
 3503WAT     H210752   9.592   7.234   0.276
 3504WAT      O10753   7.360   7.138   0.711
 3504WAT     H110754   7.399   7.224   0.745
 3504WAT     H210755   7.275   7.157   0.663
 3505WAT      O10756   7.371   6.359   0.916
 3505WAT     H110757   7.405   6.397   1.002
 3505WAT     H210758   7.437   6.293   0.879
 3506WAT      O10759   6.460   1.347   4.435
 3506WAT     H110760   6.494   1.303   4.519
 3506WAT     H210761   6.381   1.404   4.457
 3507WAT      O10762   3.075   5.269   4.637
 3507WAT     H110763   3.017   5.350   4.642
 3507WAT     H210764   3.017   5.187   4.638
 3508WAT      O10765   8.236   9.089   5.680
 3508WAT     H110766   8.270   9.012   5.736
 3508WAT     H210767   8.167   9.139   5.732
 3509WAT      O10768   7.007   5.884   8.321
 3509WAT     H110769   7.033   5.886   8.418
 3509WAT     H210770   7.009   5.790   8.288
 3510WAT      O10771   8.876   0.005   7.330
 3510WAT     H110772   8.783  -0.014   7.301
 3510WAT     H210773   8.924   0.055   7.258
 3511WAT      O10774   6.479   5.729   2.133
 3511WAT     H110775   6.496   5.640   2.177
 3511WAT     H210776   6.480   5.718   2.034
 3512WAT      O10777   3.481   9.186   4.945
 3512WAT     H110778   3.389   9.224   4.950
 3512WAT     H210779   3.480   9.091   4.974
 3513WAT      O10780   5.806   2.267   6.576
 3513WAT     H110781   5.839   2.317   6.656
 3513WAT     H210782   5.713   2.297   6.554
 3514WAT      O10783   4.082   6.526   8.743
 3514WAT     H110784   3.983   6.540   8.738
 3514WAT     H210785   4.128   6.590   8.680
 3515WAT      O10786   5.539   8.482   3.312
 3515WAT     H110787   5.472   8.435   3.255
 3515WAT     H210788   5.572   8.564   3.265
 3516WAT      O10789   2.498   8.662   2.896
 3516WAT     H110790   2.450   8.720   2.962
 3516WAT     H210791   2.587   8.703   2.873
 3517WAT      O10792   5.441   6.056   2.391
 3517WAT     H110793   5.395   5.967   2.397
 3517WAT     H210794   5.534   6.048   2.427
 3518WAT      O10795   1.923   8.998   2.100
 3518WAT     H110796   1.876   8.924   2.051
 3518WAT     H210797   2.021   8.977   2.104
 3519WAT      O10798   4.797   1.675   2.521
 3519WAT     H110799   4.743   1.606   2.473
 3519WAT     H210800   4.886   1.683   2.477
 3520WAT      O10801   7.669   0.222   4.640
 3520WAT     H110802   7.685   0.142   4.697
 3520WAT     H210803   7.669   0.304   4.697
 3521WAT      O10804   8.705   3.134   4.113
 3521WAT     H110805   8.625   3.192   4.098
 3521WAT     H210806   8.701   3.056   4.051
 3522WAT      O10807   3.968   9.625   2.354
 3522WAT     H110808   4.049   9.625   2.296
 3522WAT     H210809   3.911   9.705   2.332
 3523WAT      O10810   5.867   5.058   5.881
 3523WAT     H110811   5.776   5.020   5.899
 3523WAT     H210812   5.880   5.141   5.935
 3524WAT      O10813   1.036   0.859   0.572
 3524WAT     H110814   1.097   0.792   0.530
 3524WAT     H210815   1.086   0.943   0.592
 3525WAT      O10816   5.739   1.829   4.417
 3525WAT     H110817   5.653   1.794   4.381
 3525WAT     H210818   5.760   1.784   4.504
 3526WAT      O10819   9.738   2.203   1.690
 3526WAT     H110820   9.749   2.104   1.693
 3526WAT     H210821   9.727   2.232   1.595
 3527WAT      O10822   6.160   0.344   6.626
 3527WAT     H110823   6.194   0.279   6.558
 3527WAT     H210824   6.186   0.314   6.717
 3528WAT      O10825   6.794   7.792   3.755
 3528WAT     H110826   6.791   7.698   3.787
 3528WAT     H210827   6.729   7.847   3.807
 3529WAT      O10828   9.825   3.766   8.414
 3529WAT     H110829   9.753   3.697   8.426
 3529WAT     H210830   9.819   3.833   8.488
 3530WAT      O10831   4.395   4.907   9.820
 3530WAT     H110832   4.386   4.992   9.768
 3530WAT     H210833   4.492   4.885   9.831
 3531WAT      O10834   0.678   2.073   6.187
 3531WAT     H110835   0.616   1.998   6.164
 3531WAT     H210836   0.770   2.050   6.157
 3532WAT      O10837   1.744   7.591   6.981
 3532WAT     H110838   1.810   7.517   6.969
 3532WAT     H210839   1.750   7.627   7.074
 3533WAT      O10840   4.164   8.895   0.701
 3533WAT     H110841   4.101   8.928   0.632
 3533WAT     H210842   4.188   8.970   0.763
 3534WAT      O10843   0.854   7.275   3.110
 3534WAT     H110844   0.832   7.371   3.124
 3534WAT     H210845   0.891   7.263   3.017
 3535WAT      O10846   2.290   9.239   0.963
 3535WAT     H110847   2.209   9.259   0.908
 3535WAT     H210848   2.360   9.308   0.944
 3536WAT      O10849   5.568   4.829   8.386
 3536WAT     H110850   5.643   4.838   8.451
 3536WAT     H210851   5.484   4.864   8.427
 3537WAT      O10852   7.300   3.163   3.211
 3537WAT     H110853   7.372   3.115   3.160
 3537WAT     H210854   7.301   3.260   3.188
 3538WAT      O10855   6.970   4.054   6.784
 3538WAT     H110856   7.048   4.051   6.847
 3538WAT     H210857   6.925   4.143   6.792
 3539WAT      O10858   4.373   6.894   1.705
 3539WAT     H110859   4.326   6.806   1.700
 3539WAT     H210860   4.472   6.879   1.704
 3540WAT      O10861   9.088   6.919   6.434
 3540WAT     H110862   9.040   6.953   6.515
 3540WAT     H210863   9.027   6.861   6.381
 3541WAT      O10864   8.904   7.746   7.668
 3541WAT     H110865   8.923   7.808   7.745
 3541WAT     H210866   8.913   7.651   7.699
 3542WAT      O10867   2.936   7.547   1.205
 3542WAT     H110868   2.889   7.561   1.118
 3542WAT     H210869   2.930   7.451   1.230
 3543WAT      O10870   7.851   7.088   6.824
 3543WAT     H110871   7.872   7.151   6.749
 3543WAT     H210872   7.895   7.000   6.807
 3544WAT      O10873   2.789   4.115   8.264
 3544WAT     H110874   2.776   4.064   8.180
 3544WAT     H210875   2.789   4.053   8.342
 3545WAT      O10876   6.837   3.655   7.342
 3545WAT     H110877   6.936   3.648   7.348
 3545WAT     H210878   6.795   3.610   7.421
 3546WAT      O10879   1.124   4.769   7.045
 3546WAT     H110880   1.169   4.802   6.962
 3546WAT     H210881   1.035   4.814   7.054
 3547WAT      O10882   6.269   8.383   5.298
 3547WAT     H110883   6.358   8.356   5.335
 3547WAT     H210884   6.277   8.393   5.199
 3548WAT      O10885   1.038   3.949   9.678
 3548WAT     H110886   1.031   4.044   9.708
 3548WAT     H210887   1.131   3.916   9.694
 3549WAT      O10888   5.264   1.775   4.102
 3549WAT     H110889   5.358   1.809   4.100
 3549WAT     H210890   5.202   1.847   4.072
 3550WAT      O10891   9.671   1.906   6.051
 3550WAT     H110892   9.697   1.868   5.962
 3550WAT     H210893   9.665   1.833   6.118
 3551WAT      O10894   3.882   0.769   3.868
 3551WAT     H110895   3.930   0.685   3.897
 3551WAT     H210896   3.930   0.848   3.906
 3552WAT      O10897   4.484   2.440   5.412
 3552WAT     H110898   4.557   2.456   5.346
 3552WAT     H210899   4.477   2.517   5.475
 3553WAT      O10900   7.233   7.888   1.201
 3553WAT     H110901   7.239   7.984   1.227
 3553WAT     H210902   7.242   7.880   1.101
 3554WAT      O10903   9.144   5.015   2.702
 3554WAT     H110904   9.176   5.079   2.772
 3554WAT     H210905   9.093   4.941   2.745
 3555WAT      O10906   8.087   4.482   5.898
 3555WAT     H110907   8.089   4.542   5.978
 3555WAT     H210908   8.045   4.530   5.822
 3556WAT      O10909   4.443   4.761   9.343
 3556WAT     H110910   4.477   4.796   9.256
 3556WAT     H210911   4.449   4.661   9.344
 3557WAT      O10912   5.609   5.293   2.211
 3557WAT     H110913   5.657   5.230   2.149
 3557WAT     H210914   5.674   5.359   2.248
 3558WAT      O10915   5.155   9.015   1.141
 3558WAT     H110916   5.157   8.915   1.144
 3558WAT     H210917   5.238   9.049   1.098
 3559WAT      O10918   6.907   2.194   2.080
 3559WAT     H110919   6.857   2.246   2.011
 3559WAT     H210920   6.908   2.244   2.166
 3560WAT      O10921   3.653   9.479   5.584
 3560WAT     H110922   3.563   9.467   5.543
 3560WAT     H210923   3.714   9.522   5.518
 3561WAT      O10924   0.952   2.176   9.701
 3561WAT     H110925   0.994   2.115   9.635
 3561WAT     H210926   0.924   2.260   9.656
 3562WAT      O10927   3.490   8.164   6.017
 3562WAT     H110928   3.482   8.077   6.066
 3562WAT     H210929   3.582   8.201   6.029
 3563WAT      O10930   9.759   4.609   7.057
 3563WAT     H110931   9.723   4.645   7.143
 3563WAT     H210932   9.801   4.683   7.005
 3564WAT      O10933   7.899   4.203   7.830
 3564WAT     H110934   7.961   4.279   7.813
 3564WAT     H210935   7.929   4.124   7.776
 3565WAT      O10936   6.359   4.249   8.589
 3565WAT     H110937   6.368   4.303   8.505
 3565WAT     H210938   6.436   4.186   8.595
 3566WAT      O10939   0.188   4.539   1.346
 3566WAT     H110940   0.232   4.537   1.256
 3566WAT     H210941   0.122   4.464   1.352
 3567WAT      O10942   3.989   0.339   2.566
 3567WAT     H110943   3.930   0.419   2.558
 3567WAT     H210944   4.056   0.355   2.639
 3568WAT      O10945   0.538   5.179   5.810
 3568WAT     H110946   0.562   5.098   5.756
 3568WAT     H210947   0.597   5.255   5.783
 3569WAT      O10948   7.585   4.448   0.345
 3569WAT     H110949   7.556   4.374   0.284
 3569WAT     H210950   7.515   4.462   0.415
 3570WAT      O10951   2.558   4.748   5.845
 3570WAT     H110952   2.550   4.716   5.940
 3570WAT     H210953   2.653   4.739   5.816
 3571WAT      O10954   4.118   3.483   4.032
 3571WAT     H110955   4.070   3.549   3.973
 3571WAT     H210956   4.052   3.419   4.071
 3572WAT      O10957   0.968   6.858   5.324
 3572WAT     H110958   0.883   6.910   5.327
 3572WAT     H210959   1.031   6.893   5.393
 3573WAT      O10960   1.887   0.648   6.270
 3573WAT     H110961   1.813   0.711   6.292
 3573WAT     H210962   1.919   0.603   6.353
 3574WAT      O10963   8.457   2.385   8.828
 3574WAT     H110964   8.423   2.471   8.789
 3574WAT     H210965   8.394   2.354   8.900
 3575WAT      O10966   5.114   8.744   9.016
 3575WAT     H110967   5.057   8.824   8.998
 3575WAT     H210968   5.142   8.703   8.929
 3576WAT      O10969   0.693   9.732   1.728
 3576WAT     H110970   0.601   9.692   1.730
 3576WAT     H210971   0.760   9.658   1.717
 3577WAT      O10972   3.126   9.073   7.197
 3577WAT     H110973   3.048   9.126   7.230
 3577WAT     H210974   3.096   9.007   7.129
 3578WAT      O10975   5.383   3.282   3.068
 3578WAT     H110976   5.418   3.196   3.032
 3578WAT     H210977   5.365   3.345   2.993
 3579WAT      O10978   6.135   6.053   8.134
 3579WAT     H110979   6.206   5.985   8.156
 3579WAT     H210980   6.087   6.024   8.051
 3580WAT      O10981   9.079   8.606   2.234
 3580WAT     H110982   9.039   8.683   2.184
 3580WAT     H210983   9.139   8.641   2.306
 3581WAT      O10984   7.657   3.827   2.670
 3581WAT     H110985   7.640   3.773   2.753
 3581WAT     H210986   7.578   3.821   2.609
 3582WAT      O10987   6.531   9.223   9.487
 3582WAT     H110988   6.529   9.275   9.402
 3582WAT     H210989   6.488   9.134   9.473
 3583WAT      O10990   4.231   0.671   2.467
 3583WAT     H110991   4.230   0.628   2.557
 3583WAT     H210992   4.308   0.635   2.414
 3584WAT      O10993   5.096   1.318   1.277
 3584WAT     H110994   5.035   1.393   1.252
 3584WAT     H210995   5.176   1.355   1.324
 3585WAT      O10996   2.383   8.582   6.995
 3585WAT     H110997   2.358   8.515   6.925
 3585WAT     H210998   2.312   8.652   7.000
 3586WAT      O10999   5.196   0.671   5.255
 3586WAT     H111000   5.116   0.691   5.199
 3586WAT     H211001   5.275   0.655   5.196
 3587WAT      O11002   2.001   4.782   6.483
 3587WAT     H111003   1.994   4.693   6.437
 3587WAT     H211004   2.036   4.769   6.575
 3588WAT      O11005   1.663   8.706   3.787
 3588WAT     H111006   1.725   8.768   3.739
 3588WAT     H211007   1.638   8.630   3.726
 3589WAT      O11008   9.419   7.317   7.332
 3589WAT     H111009   9.387   7.412   7.323
 3589WAT     H211010   9.494   7.302   7.268
 3590WAT      O11011   9.344   4.268   3.231
 3590WAT     H111012   9.247   4.263   3.256
 3590WAT     H211013   9.365   4.360   3.198
 3591WAT      O11014   0.302   5.656   4.656
 3591WAT     H111015   0.343   5.745   4.637
 3591WAT     H211016   0.355   5.610   4.727
 3592WAT      O11017   6.327   0.609   4.595
 3592WAT     H111018   6.353   0.615   4.498
 3592WAT     H211019   6.229   0.625   4.604
 3593WAT      O11020   8.995   5.333   0.607
 3593WAT     H111021   9.089   5.365   0.613
 3593WAT     H211022   8.993   5.233   0.620
 3594WAT      O11023   7.804   2.410   0.635
 3594WAT     H111024   7.762   2.365   0.556
 3594WAT     H211025   7.903   2.413   0.622
 3595WAT      O11026   1.741   7.985   3.783
 3595WAT     H111027   1.702   8.056   3.841
 3595WAT     H211028   1.667   7.936   3.736
 3596WAT      O11029   0.212   1.518   8.107
 3596WAT     H111030   0.305   1.508   8.142
 3596WAT     H211031   0.164   1.431   8.114
 3597WAT      O11032   6.454   0.622   8.375
 3597WAT     H111033   6.535   0.675   8.350
 3597WAT     H211034   6.425   0.567   8.296
 3598WAT      O11035   3.652   1.846   3.559
 3598WAT     H111036   3.555   1.870   3.563
 3598WAT     H211037   3.704   1.911   3.614
 3599WAT      O11038   5.895   3.070   9.817
 3599WAT     H111039   5.966   3.012   9.777
 3599WAT     H211040   5.805   3.038   9.788
 3600WAT      O11041   3.564   7.850   4.404
 3600WAT     H111042   3.472   7.880   4.378
 3600WAT     H211043   3.630   7.879   4.335
 3601WAT      O11044   8.875   1.528   3.973
 3601WAT     H111045   8.954   1.495   3.922
 3601WAT     H211046   8.906   1.566   4.061
 3602WAT      O11047   7.101   5.552   6.552
 3602WAT     H111048   7.094   5.569   6.453
 3602WAT     H211049   7.036   5.481   6.578
 3603WAT      O11050   6.722   6.783   0.194
 3603WAT     H111051   6.751   6.758   0.286
 3603WAT     H211052   6.623   6.782   0.189
 3604WAT      O11053   7.968   0.796   9.522
 3604WAT     H111054   8.034   0.745   9.467
 3604WAT     H211055   7.892   0.736   9.546
 3605WAT      O11056   5.941   2.211   0.338
 3605WAT     H111057   5.945   2.293   0.395
 3605WAT     H211058   6.004   2.221   0.261
 3606WAT      O11059   1.713   5.033   9.325
 3606WAT     H111060   1.621   5.034   9.287
 3606WAT     H211061   1.755   4.944   9.310
 3607WAT      O11062   5.467   2.869   6.046
 3607WAT     H111063   5.370   2.850   6.031
 3607WAT     H211064   5.505   2.914   5.965
 3608WAT      O11065   5.787   1.233   8.913
 3608WAT     H111066   5.778   1.236   8.813
 3608WAT     H211067   5.778   1.138   8.944
 3609WAT      O11068   3.152   6.586   1.382
 3609WAT     H111069   3.081   6.640   1.335
 3609WAT     H211070   3.160   6.497   1.338
 3610WAT      O11071   8.676   6.637   0.906
 3610WAT     H111072   8.686   6.733   0.881
 3610WAT     H211073   8.639   6.629   0.998
 3611WAT      O11074   0.747   9.258   6.261
 3611WAT     H111075   0.688   9.235   6.338
 3611WAT     H211076   0.695   9.311   6.194
 3612WAT      O11077   4.057   1.307   2.441
 3612WAT     H111078   4.078   1.239   2.371
 3612WAT     H211079   3.961   1.335   2.432
 3613WAT      O11080   5.989   9.525   5.754
 3613WAT     H111081   6.075   9.569   5.727
 3613WAT     H211082   5.937   9.501   5.672
 3614WAT      O11083   6.459   2.218   3.218
 3614WAT     H111084   6.444   2.122   3.193
 3614WAT     H211085   6.525   2.222   3.293
 3615WAT      O11086   0.719   3.502   1.092
 3615WAT     H111087   0.773   3.564   1.149
 3615WAT     H211088   0.623   3.505   1.120
 3616WAT      O11089   7.743   2.861   8.273
 3616WAT     H111090   7.664   2.891   8.219
 3616WAT     H211091   7.763   2.929   8.344
 3617WAT      O11092   8.415   1.294   3.189
 3617WAT     H111093   8.387   1.213   3.241
 3617WAT     H211094   8.346   1.315   3.120
 3618WAT      O11095   0.129   5.383   1.710
 3618WAT     H111096   0.114   5.455   1.778
 3618WAT     H211097   0.107   5.294   1.749
 3619WAT      O11098   3.296   0.344   4.650
 3619WAT     H111099   3.392   0.330   4.627
 3619WAT     H211100   3.258   0.259   4.687
 3620WAT      O11101   5.392   2.359   0.248
 3620WAT     H111102   5.369   2.285   0.185
 3620WAT     H211103   5.479   2.340   0.293
 3621WAT      O11104   2.603   2.877   0.680
 3621WAT     H111105   2.589   2.796   0.623
 3621WAT     H211106   2.526   2.940   0.667
 3622WAT      O11107   5.558   0.405   3.049
 3622WAT     H111108   5.538   0.386   3.145
 3622WAT     H211109   5.494   0.354   2.991
 3623WAT      O11110   8.150   3.474   1.465
 3623WAT     H111111   8.104   3.509   1.546
 3623WAT     H211112   8.247   3.497   1.470
 3624WAT      O11113   6.188   7.836   4.180
 3624WAT     H111114   6.201   7.857   4.276
 3624WAT     H211115   6.090   7.821   4.162
 3625WAT      O11116   4.633   3.704   2.835
 3625WAT     H111117   4.634   3.648   2.753
 3625WAT     H211118   4.562   3.670   2.897
 3626WAT      O11119   4.785   4.273   0.378
 3626WAT     H111120   4.766   4.343   0.447
 3626WAT     H211121   4.703   4.254   0.326
 3627WAT      O11122   3.183   7.223   1.029
 3627WAT     H111123   3.275   7.263   1.029
 3627WAT     H211124   3.163   7.184   0.939
 3628WAT      O11125   8.607   2.543   9.524
 3628WAT     H111126   8.558   2.471   9.573
 3628WAT     H211127   8.566   2.555   9.433
 3629WAT      O11128   7.157   4.838   3.340
 3629WAT     H111129   7.183   4.933   3.322
 3629WAT     H211130   7.091   4.808   3.270
 3630WAT      O11131   2.909   9.670   8.177
 3630WAT     H111132   2.893   9.741   8.244
 3630WAT     H211133   2.931   9.584   8.223
 3631WAT      O11134   5.372   4.559   5.437
 3631WAT     H111135   5.288   4.512   5.411
 3631WAT     H211136   5.351   4.626   5.509
 3632WAT      O11137   9.179   5.656   0.801
 3632WAT     H111138   9.096   5.712   0.807
 3632WAT     H211139   9.171   5.578   0.864
 3633WAT      O11140   1.405   9.711   8.474
 3633WAT     H111141   1.411   9.616   8.505
 3633WAT     H211142   1.483   9.763   8.508
 3634WAT      O11143   4.411   6.812   3.005
 3634WAT     H111144   4.503   6.774   2.998
 3634WAT     H211145   4.353   6.774   2.934
 3635WAT      O11146   8.954   6.507   5.957
 3635WAT     H111147   8.884   6.559   6.006
 3635WAT     H211148   9.044   6.528   5.995
 3636WAT      O11149   8.773   2.449   6.407
 3636WAT     H111150   8.814   2.523   6.355
 3636WAT     H211151   8.820   2.439   6.495
 3637WAT      O11152   7.134   2.214   4.366
 3637WAT     H111153   7.084   2.300   4.357
 3637WAT     H211154   7.126   2.181   4.459
 3638WAT      O11155   4.882   7.942   7.109
 3638WAT     H111156   4.807   7.909   7.166
 3638WAT     H211157   4.968   7.931   7.158
 3639WAT      O11158   4.000   4.751   7.095
 3639WAT     H111159   4.083   4.730   7.147
 3639WAT     H211160   4.017   4.830   7.036
 3640WAT      O11161   0.123   8.897   8.646
 3640WAT     H111162   0.104   8.993   8.668
 3640WAT     H211163   0.218   8.876   8.670
 3641WAT      O11164   1.783   6.910   1.132
 3641WAT     H111165   1.854   6.975   1.104
 3641WAT     H211166   1.695   6.956   1.138
 3642WAT      O11167   2.052   8.573   8.177
 3642WAT     H111168   1.981   8.596   8.244
 3642WAT     H211169   2.101   8.492   8.206
 3643WAT      O11170   4.502   7.275   1.784
 3643WAT     H111171   4.437   7.220   1.731
 3643WAT     H211172   4.508   7.367   1.745
 3644WAT      O11173   2.945   8.269   4.526
 3644WAT     H111174   2.922   8.362   4.555
 3644WAT     H211175   3.006   8.227   4.594
 3645WAT      O11176   5.647   9.653   6.000
 3645WAT     H111177   5.631   9.571   6.054
 3645WAT     H211178   5.562   9.705   5.991
 3646WAT      O11179   4.510   7.018   4.284
 3646WAT     H111180   4.480   7.064   4.368
 3646WAT     H211181   4.439   7.029   4.214
 3647WAT      O11182   4.997   6.501   2.455
 3647WAT     H111183   4.952   6.436   2.515
 3647WAT     H211184   5.096   6.496   2.468
 3648WAT      O11185   4.394   9.409   9.427
 3648WAT     H111186   4.379   9.470   9.349
 3648WAT     H211187   4.459   9.338   9.401
 3649WAT      O11188   7.626   8.495   8.617
 3649WAT     H111189   7.557   8.436   8.576
 3649WAT     H211190   7.591   8.532   8.703
 3650WAT      O11191   7.654   3.634   9.684
 3650WAT     H111192   7.648   3.553   9.743
 3650WAT     H211193   7.610   3.614   9.597
 3651WAT      O11194   2.926   7.409   7.403
 3651WAT     H111195   2.965   7.373   7.318
 3651WAT     H211196   2.888   7.334   7.457
 3652WAT      O11197   1.714   0.543   9.109
 3652WAT     H111198   1.812   0.535   9.087
 3652WAT     H211199   1.686   0.639   9.099
 3653WAT      O11200   7.962   2.240   4.849
 3653WAT     H111201   8.053   2.257   4.887
 3653WAT     H211202   7.959   2.273   4.755
 3654WAT      O11203   4.285   5.134   0.904
 3654WAT     H111204   4.354   5.075   0.946
 3654WAT     H211205   4.194   5.105   0.933
 3655WAT      O11206   4.186   6.712   8.591
 3655WAT     H111207   4.282   6.688   8.603
 3655WAT     H211208   4.171   6.745   8.498
 3656WAT      O11209   6.002   2.922   8.589
 3656WAT     H111210   6.086   2.957   8.630
 3656WAT     H211211   5.928   2.988   8.603
 3657WAT      O11212   6.890   4.708   5.220
 3657WAT     H111213   6.970   4.658   5.254
 3657WAT     H211214   6.920   4.792   5.174
 3658WAT      O11215   3.387   7.163   6.586
 3658WAT     H111216   3.437   7.139   6.502
 3658WAT     H211217   3.388   7.085   6.648
 3659WAT      O11218   9.776   1.346   1.228
 3659WAT     H111219   9.713   1.295   1.286
 3659WAT     H211220   9.758   1.444   1.236
 3660WAT      O11221   4.324   6.665   3.314
 3660WAT     H111222   4.393   6.638   3.248
 3660WAT     H211223   4.324   6.601   3.391
 3661WAT      O11224   4.908   9.005   4.522
 3661WAT     H111225   4.880   8.914   4.492
 3661WAT     H211226   4.884   9.017   4.618
 3662WAT      O11227   5.104   4.282   6.668
 3662WAT     H111228   5.096   4.380   6.652
 3662WAT     H211229   5.185   4.247   6.620
 3663WAT      O11230   9.845   3.696   5.739
 3663WAT     H111231   9.938   3.657   5.742
 3663WAT     H211232   9.827   3.745   5.824
 3664WAT      O11233   0.004   0.619   7.265
 3664WAT     H111234   0.050   0.590   7.181
 3664WAT     H211235  -0.086   0.576   7.271
 3665WAT      O11236   4.836   3.841   7.976
 3665WAT     H111237   4.918   3.836   7.920
 3665WAT     H211238   4.759   3.871   7.919
 3666WAT      O11239   4.862   6.781   3.486
 3666WAT     H111240   4.799   6.745   3.554
 3666WAT     H211241   4.865   6.881   3.492
 3667WAT      O11242   8.062   9.205   8.705
 3667WAT     H111243   8.071   9.223   8.607
 3667WAT     H211244   8.000   9.271   8.746
 3668WAT      O11245   5.178   7.673   5.696
 3668WAT     H111246   5.160   7.590   5.750
 3668WAT     H211247   5.260   7.719   5.731
 3669WAT      O11248   5.303   2.606   2.747
 3669WAT     H111249   5.288   2.513   2.780
 3669WAT     H211250   5.388   2.642   2.785
 3670WAT      O11251   0.650   8.097   4.838
 3670WAT     H111252   0.576   8.095   4.771
 3670WAT     H211253   0.734   8.064   4.796
 3671WAT      O11254   2.369   5.283   9.685
 3671WAT     H111255   2.340   5.378   9.697
 3671WAT     H211256   2.306   5.223   9.734
 3672WAT      O11257   8.546   5.186   1.683
 3672WAT     H111258   8.641   5.205   1.658
 3672WAT     H211259   8.531   5.211   1.778
 3673WAT      O11260   8.053   7.802   8.629
 3673WAT     H111261   8.056   7.898   8.598
 3673WAT     H211262   7.961   7.766   8.615
 3674WAT      O11263   6.492   2.828   7.504
 3674WAT     H111264   6.413   2.802   7.558
 3674WAT     H211265   6.464   2.842   7.409
 3675WAT      O11266   8.880   9.016   7.386
 3675WAT     H111267   8.799   8.957   7.378
 3675WAT     H211268   8.926   8.998   7.473
 3676WAT      O11269   2.950   3.761   4.913
 3676WAT     H111270   2.929   3.806   4.826
 3676WAT     H211271   2.864   3.738   4.960
 3677WAT      O11272   3.713   9.212   2.056
 3677WAT     H111273   3.802   9.182   2.091
 3677WAT     H211274   3.725   9.250   1.965
 3678WAT      O11275   6.491   8.788   7.622
 3678WAT     H111276   6.590   8.779   7.636
 3678WAT     H211277   6.474   8.861   7.556
 3679WAT      O11278   9.237   5.127   1.179
 3679WAT     H111279   9.289   5.115   1.264
 3679WAT     H211280   9.149   5.168   1.199
 3680WAT      O11281   4.973   2.155   7.098
 3680WAT     H111282   4.937   2.229   7.156
 3680WAT     H211283   4.955   2.067   7.141
 3681WAT      O11284   3.591   5.654   5.761
 3681WAT     H111285   3.675   5.653   5.814
 3681WAT     H211286   3.517   5.693   5.815
 3682WAT      O11287   8.738   5.786   1.689
 3682WAT     H111288   8.711   5.717   1.621
 3682WAT     H211289   8.808   5.846   1.650
 3683WAT      O11290   4.484   7.106   1.382
 3683WAT     H111291   4.455   7.043   1.310
 3683WAT     H211292   4.579   7.087   1.406
 3684WAT      O11293   5.053   5.970   1.522
 3684WAT     H111294   5.007   6.022   1.450
 3684WAT     H211295   5.000   5.888   1.542
 3685WAT      O11296   7.241   0.743   3.534
 3685WAT     H111297   7.193   0.659   3.508
 3685WAT     H211298   7.204   0.777   3.621
 3686WAT      O11299   9.035   3.317   8.732
 3686WAT     H111300   9.101   3.390   8.719
 3686WAT     H211301   8.945   3.347   8.699
 3687WAT      O11302   9.482   0.288   9.826
 3687WAT     H111303   9.581   0.302   9.814
 3687WAT     H211304   9.437   0.377   9.831
 3688WAT      O11305   6.919   7.511   2.030
 3688WAT     H111306   7.013   7.481   2.046
 3688WAT     H211307   6.855   7.444   2.068
 3689WAT      O11308   1.044   7.942   0.229
 3689WAT     H111309   0.949   7.946   0.199
 3689WAT     H211310   1.099   8.005   0.174
 3690WAT      O11311   8.374   3.464   5.711
 3690WAT     H111312   8.346   3.444   5.617
 3690WAT     H211313   8.372   3.380   5.765
 3691WAT      O11314   2.999   1.346   8.805
 3691WAT     H111315   2.965   1.253   8.788
 3691WAT     H211316   3.043   1.349   8.895
 3692WAT      O11317   2.092   9.017   8.854
 3692WAT     H111318   2.062   8.975   8.940
 3692WAT     H211319   2.063   8.960   8.778
 3693WAT      O11320   8.968   1.750   6.426
 3693WAT     H111321   8.903   1.752   6.350
 3693WAT     H211322   8.976   1.657   6.460
 3694WAT      O11323   7.221   3.626   3.887
 3694WAT     H111324   7.216   3.592   3.980
 3694WAT     H211325   7.223   3.549   3.823
 3695WAT      O11326   5.760   4.965   9.829
 3695WAT     H111327   5.696   5.038   9.806
 3695WAT     H211328   5.814   4.993   9.908
 3696WAT      O11329   0.916   2.704   1.084
 3696WAT     H111330   0.891   2.801   1.088
 3696WAT     H211331   0.929   2.669   1.177
 3697WAT      O11332   5.425   3.766   3.023
 3697WAT     H111333   5.484   3.685   3.014
 3697WAT     H211334   5.349   3.745   3.084
 3698WAT      O11335   2.161   6.763   8.902
 3698WAT     H111336   2.084   6.741   8.962
 3698WAT     H211337   2.237   6.701   8.921
 3699WAT      O11338   6.132   7.766   2.273
 3699WAT     H111339   6.105   7.672   2.295
 3699WAT     H211340   6.213   7.764   2.215
 3700WAT      O11341   1.597   0.456   7.993
 3700WAT     H111342   1.689   0.435   7.960
 3700WAT     H211343   1.598   0.465   8.093
 3701WAT      O11344   7.020   6.312   4.952
 3701WAT     H111345   6.942   6.346   4.899
 3701WAT     H211346   7.046   6.221   4.918
 3702WAT      O11347   4.530   0.643   5.836
 3702WAT     H111348   4.525   0.549   5.869
 3702WAT     H211349   4.626   0.668   5.822
 3703WAT      O11350   1.386   0.138   4.994
 3703WAT     H111351   1.291   0.167   4.999
 3703WAT     H211352   1.392   0.050   4.946
 3704WAT      O11353   0.523   4.153   4.682
 3704WAT     H111354   0.424   4.140   4.694
 3704WAT     H211355   0.544   4.153   4.584
 3705WAT      O11356   1.161   7.406   2.074
 3705WAT     H111357   1.062   7.415   2.088
 3705WAT     H211358   1.179   7.339   2.002
 3706WAT      O11359   8.518   3.742   8.615
 3706WAT     H111360   8.449   3.800   8.658
 3706WAT     H211361   8.488   3.647   8.617
 3707WAT      O11362   6.365   1.648   3.891
 3707WAT     H111363   6.406   1.625   3.802
 3707WAT     H211364   6.290   1.585   3.910
 3708WAT      O11365   9.058   2.080   0.356
 3708WAT     H111366   9.075   2.008   0.288
 3708WAT     H211367   8.961   2.103   0.356
 3709WAT      O11368   5.592   8.527   4.168
 3709WAT     H111369   5.557   8.595   4.104
 3709WAT     H211370   5.670   8.479   4.127
 3710WAT      O11371   3.056   6.234   6.558
 3710WAT     H111372   2.970   6.283   6.570
 3710WAT     H211373   3.038   6.146   6.513
 3711WAT      O11374   9.191   3.677   9.872
 3711WAT     H111375   9.132   3.607   9.833
 3711WAT     H211376   9.135   3.750   9.912
 3712WAT      O11377   4.683   5.724   6.237
 3712WAT     H111378   4.767   5.671   6.223
 3712WAT     H211379   4.615   5.666   6.282
 3713WAT      O11380   6.164   1.207   8.484
 3713WAT     H111381   6.216   1.137   8.435
 3713WAT     H211382   6.202   1.297   8.465
 3714WAT      O11383   6.080   2.006   7.720
 3714WAT     H111384   6.107   2.014   7.624
 3714WAT     H211385   6.038   2.092   7.750
 3715WAT      O11386   8.200   2.553   9.509
 3715WAT     H111387   8.234   2.647   9.498
 3715WAT     H211388   8.104   2.556   9.539
 3716WAT      O11389   5.952   2.934   8.961
 3716WAT     H111390   6.009   3.012   8.936
 3716WAT     H211391   5.857   2.963   8.970
 3717WAT      O11392   2.946   3.353   4.989
 3717WAT     H111393   3.004   3.414   4.935
 3717WAT     H211394   2.864   3.402   5.019
 3718WAT      O11395   4.624   9.633   9.188
 3718WAT     H111396   4.580   9.576   9.119
 3718WAT     H211397   4.666   9.712   9.144
 3719WAT      O11398   7.909   6.959   0.094
 3719WAT     H111399   7.831   6.911   0.055
 3719WAT     H211400   7.976   6.979   0.022
 3720WAT      O11401   4.657   2.268   7.617
 3720WAT     H111402   4.703   2.198   7.563
 3720WAT     H211403   4.559   2.248   7.620
 3721WAT      O11404   8.343   5.486   3.909
 3721WAT     H111405   8.399   5.565   3.934
 3721WAT     H211406   8.379   5.445   3.825
 3722WAT      O11407   6.432   6.148   6.772
 3722WAT     H111408   6.373   6.160   6.693
 3722WAT     H211409   6.406   6.212   6.844
 3723WAT      O11410   9.290   9.225   7.668
 3723WAT     H111411   9.368   9.165   7.650
 3723WAT     H211412   9.206   9.180   7.641
 3724WAT      O11413   6.483   6.747   4.092
 3724WAT     H111414   6.573   6.710   4.070
 3724WAT     H211415   6.412   6.692   4.048
 3725WAT      O11416   1.336   9.447   8.566
 3725WAT     H111417   1.387   9.365   8.541
 3725WAT     H211418   1.238   9.427   8.566
 3726WAT      O11419   1.507   4.448   3.973
 3726WAT     H111420   1.461   4.378   4.027
 3726WAT     H211421   1.540   4.521   4.034
 3727WAT      O11422   7.141   2.907   3.752
 3727WAT     H111423   7.098   2.889   3.663
 3727WAT     H211424   7.228   2.859   3.757
 3728WAT      O11425   6.080   8.064   6.047
 3728WAT     H111426   6.150   8.087   6.115
 3728WAT     H211427   6.012   8.004   6.089
 3729WAT      O11428   5.447   5.771   1.983
 3729WAT     H111429   5.543   5.746   1.981
 3729WAT     H211430   5.393   5.696   2.022
 3730WAT      O11431   9.592   0.200   2.531
 3730WAT     H111432   9.631   0.287   2.562
 3730WAT     H211433   9.666   0.138   2.505
 3731WAT      O11434   2.814   1.429   9.188
 3731WAT     H111435   2.853   1.510   9.232
 3731WAT     H211436   2.737   1.457   9.130
 3732WAT      O11437   0.600   3.438   0.161
 3732WAT     H111438   0.631   3.349   0.196
 3732WAT     H211439   0.650   3.511   0.206
 3733WAT      O11440   3.014   6.407   0.377
 3733WAT     H111441   2.990   6.331   0.317
 3733WAT     H211442   3.084   6.463   0.333
 3734WAT      O11443   5.290   8.568   5.029
 3734WAT     H111444   5.341   8.581   5.114
 3734WAT     H211445   5.354   8.570   4.952
 3735WAT      O11446   1.184   9.317   5.445
 3735WAT     H111447   1.116   9.389   5.433
 3735WAT     H211448   1.254   9.325   5.373
 3736WAT      O11449   2.269   2.834   4.710
 3736WAT     H111450   2.223   2.771   4.771
 3736WAT     H211451   2.318   2.783   4.640
 3737WAT      O11452   6.200   3.807   1.132
 3737WAT     H111453   6.140   3.768   1.202
 3737WAT     H211454   6.176   3.768   1.043
 3738WAT      O11455   6.966   8.093   9.301
 3738WAT     H111456   6.989   8.054   9.212
 3738WAT     H211457   6.986   8.191   9.301
 3739WAT      O11458   9.860   6.943   9.050
 3739WAT     H111459   9.884   7.017   8.987
 3739WAT     H211460   9.824   6.982   9.135
 3740WAT      O11461   1.205   0.050   2.160
 3740WAT     H111462   1.257   0.028   2.242
 3740WAT     H211463   1.144   0.126   2.179
 3741WAT      O11464   4.202   2.661   7.192
 3741WAT     H111465   4.288   2.711   7.192
 3741WAT     H211466   4.150   2.684   7.275
 3742WAT      O11467   1.464   8.029   1.775
 3742WAT     H111468   1.445   8.051   1.679
 3742WAT     H211469   1.392   7.969   1.810
 3743WAT      O11470   5.960   0.346   3.053
 3743WAT     H111471   6.054   0.366   3.080
 3743WAT     H211472   5.905   0.429   3.062
 3744WAT      O11473   2.204   2.373   2.185
 3744WAT     H111474   2.199   2.454   2.127
 3744WAT     H211475   2.161   2.393   2.273
 3745WAT      O11476   0.184   7.220   4.252
 3745WAT     H111477   0.237   7.136   4.267
 3745WAT     H211478   0.145   7.218   4.160
 3746WAT      O11479   5.686   9.549   0.957
 3746WAT     H111480   5.674   9.642   0.924
 3746WAT     H211481   5.703   9.489   0.879
 3747WAT      O11482   7.808   9.357   4.123
 3747WAT     H111483   7.761   9.390   4.205
 3747WAT     H211484   7.831   9.434   4.064
 3748WAT      O11485   4.495   4.387   0.807
 3748WAT     H111486   4.441   4.457   0.853
 3748WAT     H211487   4.592   4.406   0.819
 3749WAT      O11488   6.671   3.359   8.601
 3749WAT     H111489   6.649   3.456   8.609
 3749WAT     H211490   6.628   3.322   8.519
 3750WAT      O11491   5.035   1.314   9.584
 3750WAT     H111492   4.977   1.260   9.645
 3750WAT     H211493   5.009   1.411   9.591
 3751WAT      O11494   2.815   3.495   3.231
 3751WAT     H111495   2.854   3.473   3.142
 3751WAT     H211496   2.726   3.452   3.239
 3752WAT      O11497   8.304   1.961   6.917
 3752WAT     H111498   8.344   1.947   7.008
 3752WAT     H211499   8.363   1.919   6.848
 3753WAT      O11500   5.167   9.072   2.127
 3753WAT     H111501   5.151   9.018   2.044
 3753WAT     H211502   5.084   9.122   2.151
 3754WAT      O11503   2.381   5.178   0.394
 3754WAT     H111504   2.468   5.161   0.440
 3754WAT     H211505   2.356   5.274   0.404
 3755WAT      O11506   3.279   3.755   6.790
 3755WAT     H111507   3.316   3.665   6.768
 3755WAT     H211508   3.215   3.747   6.866
 3756WAT      O11509   0.653   1.352   1.843
 3756WAT     H111510   0.589   1.402   1.901
 3756WAT     H211511   0.605   1.280   1.793
 3757WAT      O11512   4.181   9.282   3.586
 3757WAT     H111513   4.171   9.269   3.487
 3757WAT     H211514   4.241   9.360   3.604
 3758WAT      O11515   7.025   1.758   9.775
 3758WAT     H111516   6.994   1.674   9.730
 3758WAT     H211517   6.945   1.808   9.810
 3759WAT      O11518   6.468   5.734   1.869
 3759WAT     H111519   6.490   5.679   1.788
 3759WAT     H211520   6.517   5.821   1.864
 3760WAT      O11521   4.102   6.790   9.404
 3760WAT     H111522   4.137   6.803   9.497
 3760WAT     H211523   4.147   6.712   9.362
 3761WAT      O11524   7.361   4.681   4.244
 3761WAT     H111525   7.400   4.692   4.153
 3761WAT     H211526   7.322   4.768   4.274
 3762WAT      O11527   4.626   0.899   3.994
 3762WAT     H111528   4.716   0.916   3.954
 3762WAT     H211529   4.555   0.914   3.925
 3763WAT      O11530   3.275   7.639   0.640
 3763WAT     H111531   3.211   7.562   0.633
 3763WAT     H211532   3.257   7.690   0.723
 3764WAT      O11533   5.092   6.713   6.487
 3764WAT     H111534   5.112   6.721   6.584
 3764WAT     H211535   5.175   6.727   6.434
 3765WAT      O11536   9.546   1.287   8.418
 3765WAT     H111537   9.484   1.328   8.485
 3765WAT     H211538   9.578   1.358   8.355
 3766WAT      O11539   7.177   0.771   3.851
 3766WAT     H111540   7.207   0.692   3.904
 3766WAT     H211541   7.080   0.761   3.827
 3767WAT      O11542   2.197   6.652   1.111
 3767WAT     H111543   2.260   6.603   1.051
 3767WAT     H211544   2.217   6.628   1.206
 3768WAT      O11545   4.237   5.094   3.889
 3768WAT     H111546   4.214   5.081   3.985
 3768WAT     H211547   4.334   5.076   3.875
 3769WAT      O11548   4.801   1.850   3.652
 3769WAT     H111549   4.735   1.839   3.726
 3769WAT     H211550   4.754   1.870   3.566
 3770WAT      O11551   5.827   8.960   7.601
 3770WAT     H111552   5.813   8.871   7.644
 3770WAT     H211553   5.824   9.031   7.671
 3771WAT      O11554   5.145   2.489   5.932
 3771WAT     H111555   5.223   2.488   5.995
 3771WAT     H211556   5.176   2.516   5.841
 3772WAT      O11557   9.743   1.092   8.794
 3772WAT     H111558   9.727   1.103   8.892
 3772WAT     H211559   9.836   1.059   8.779
 3773WAT      O11560   5.173   5.463   0.365
 3773WAT     H111561   5.217   5.507   0.444
 3773WAT     H211562   5.238   5.404   0.319
 3774WAT      O11563   6.363   2.173   0.198
 3774WAT     H111564   6.404   2.112   0.130
 3774WAT     H211565   6.313   2.246   0.151
 3775WAT      O11566   7.905   5.214   5.265
 3775WAT     H111567   7.951   5.127   5.249
 3775WAT     H211568   7.945   5.284   5.205
 3776WAT      O11569   4.456   8.321   0.622
 3776WAT     H111570   4.499   8.298   0.709
 3776WAT     H211571   4.396   8.400   0.635
 3777WAT      O11572   3.450   5.598   2.124
 3777WAT     H111573   3.416   5.570   2.034
 3777WAT     H211574   3.490   5.518   2.170
 3778WAT      O11575   6.406   1.030   8.441
 3778WAT     H111576   6.484   1.071   8.487
 3778WAT     H211577   6.394   0.936   8.471
 3779WAT      O11578   5.127   2.898   9.531
 3779WAT     H111579   5.028   2.912   9.527
 3779WAT     H211580   5.149   2.834   9.605
 3780WAT      O11581   8.683   6.609   5.504
 3780WAT     H111582   8.713   6.704   5.509
 3780WAT     H211583   8.688   6.567   5.594
 3781WAT      O11584   7.340   8.110   5.297
 3781WAT     H111585   7.303   8.038   5.355
 3781WAT     H211586   7.370   8.187   5.354
 3782WAT      O11587   9.658   6.533   3.502
 3782WAT     H111588   9.665   6.481   3.417
 3782WAT     H211589   9.592   6.489   3.563
 3783WAT      O11590   6.024   1.170   1.373
 3783WAT     H111591   6.099   1.183   1.308
 3783WAT     H211592   5.944   1.135   1.324
 3784WAT      O11593   8.183   9.325   0.496
 3784WAT     H111594   8.282   9.334   0.503
 3784WAT     H211595   8.147   9.394   0.432
 3785WAT      O11596   0.468   6.542   6.936
 3785WAT     H111597   0.383   6.532   6.987
 3785WAT     H211598   0.540   6.575   6.997
 3786WAT      O11599   2.449   9.219   6.845
 3786WAT     H111600   2.490   9.255   6.929
 3786WAT     H211601   2.497   9.135   6.818
 3787WAT      O11602   3.200   7.404   4.279
 3787WAT     H111603   3.136   7.336   4.314
 3787WAT     H211604   3.211   7.392   4.181
 3788WAT      O11605   2.231   9.771   0.094
 3788WAT     H111606   2.172   9.849   0.116
 3788WAT     H211607   2.215   9.698   0.160
 3789WAT      O11608   2.257   0.060   4.187
 3789WAT     H111609   2.195   0.125   4.143
 3789WAT     H211610   2.257   0.074   4.286
 3790WAT      O11611   2.287   4.897   7.192
 3790WAT     H111612   2.274   4.800   7.169
 3790WAT     H211613   2.367   4.907   7.250
 3791WAT      O11614   6.608   2.558   5.597
 3791WAT     H111615   6.640   2.652   5.589
 3791WAT     H211616   6.659   2.511   5.668
 3792WAT      O11617   1.757   3.497   3.496
 3792WAT     H111618   1.677   3.512   3.554
 3792WAT     H211619   1.812   3.581   3.494
 3793WAT      O11620   0.837   6.838   7.670
 3793WAT     H111621   0.757   6.893   7.646
 3793WAT     H211622   0.888   6.885   7.742
 3794WAT      O11623   4.093   0.310   3.564
 3794WAT     H111624   4.013   0.307   3.503
 3794WAT     H211625   4.145   0.225   3.554
 3795WAT      O11626   6.108   4.313   9.079
 3795WAT     H111627   6.113   4.354   9.171
 3795WAT     H211628   6.014   4.285   9.060
 3796WAT      O11629   7.845   3.452   1.261
 3796WAT     H111630   7.846   3.482   1.356
 3796WAT     H211631   7.753   3.421   1.237
 3797WAT      O11632   4.399   1.132   2.991
 3797WAT     H111633   4.447   1.078   2.922
 3797WAT     H211634   4.301   1.132   2.970
 3798WAT      O11635   5.157   0.130   6.037
 3798WAT     H111636   5.249   0.091   6.027
 3798WAT     H211637   5.158   0.198   6.110
 3799WAT      O11638   0.230   4.653   3.641
 3799WAT     H111639   0.278   4.698   3.566
 3799WAT     H211640   0.131   4.662   3.628
 3800WAT      O11641   9.330   3.552   5.226
 3800WAT     H111642   9.370   3.608   5.154
 3800WAT     H211643   9.269   3.608   5.283
 3801WAT      O11644   4.106   9.180   3.306
 3801WAT     H111645   4.046   9.250   3.267
 3801WAT     H211646   4.169   9.148   3.235
 3802WAT      O11647   0.067   0.878   0.710
 3802WAT     H111648  -0.029   0.857   0.690
 3802WAT     H211649   0.071   0.961   0.767
 3803WAT      O11650   7.015   9.134   1.936
 3803WAT     H111651   7.030   9.054   1.993
 3803WAT     H211652   6.919   9.138   1.908
 3804WAT      O11653   0.629   9.119   4.857
 3804WAT     H111654   0.597   9.184   4.927
 3804WAT     H211655   0.594   9.148   4.768
 3805WAT      O11656   9.477   7.063   3.963
 3805WAT     H111657   9.394   7.024   3.923
 3805WAT     H211658   9.501   7.012   4.046
 3806WAT      O11659   8.595   7.449   4.184
 3806WAT     H111660   8.528   7.451   4.257
 3806WAT     H211661   8.640   7.360   4.182
 3807WAT      O11662   4.472   4.431   5.219
 3807WAT     H111663   4.404   4.489   5.176
 3807WAT     H211664   4.559   4.481   5.226
 3808WAT      O11665   2.123   7.026   7.973
 3808WAT     H111666   2.112   7.078   8.057
 3808WAT     H211667   2.047   6.961   7.964
 3809WAT      O11668   2.347   2.191   4.744
 3809WAT     H111669   2.344   2.246   4.660
 3809WAT     H211670   2.379   2.099   4.722
 3810WAT      O11671   4.731   8.778   2.236
 3810WAT     H111672   4.692   8.687   2.222
 3810WAT     H211673   4.827   8.777   2.211
 3811WAT      O11674   3.760   7.744   6.710
 3811WAT     H111675   3.722   7.830   6.676
 3811WAT     H211676   3.853   7.760   6.744
 3812WAT      O11677   1.215   4.715   9.498
 3812WAT     H111678   1.209   4.782   9.424
 3812WAT     H211679   1.122   4.687   9.524
 3813WAT      O11680   2.037   0.643   2.232
 3813WAT     H111681   2.007   0.548   2.222
 3813WAT     H211682   2.001   0.697   2.156
 3814WAT      O11683   1.110   5.170   4.211
 3814WAT     H111684   1.184   5.130   4.157
 3814WAT     H211685   1.022   5.135   4.178
 3815WAT      O11686   2.287   8.829   4.262
 3815WAT     H111687   2.299   8.730   4.271
 3815WAT     H211688   2.259   8.850   4.168
 3816WAT      O11689   5.909   8.354   1.927
 3816WAT     H111690   5.857   8.433   1.895
 3816WAT     H211691   5.846   8.278   1.943
 3817WAT      O11692   3.472   2.467   0.844
 3817WAT     H111693   3.397   2.525   0.876
 3817WAT     H211694   3.436   2.379   0.812
 3818WAT      O11695   8.618   7.109   2.667
 3818WAT     H111696   8.521   7.101   2.690
 3818WAT     H211697   8.630   7.170   2.589
 3819WAT      O11698   2.316   3.519   5.760
 3819WAT     H111699   2.408   3.545   5.792
 3819WAT     H211700   2.321   3.432   5.712
 3820WAT      O11701   0.431   5.077   3.922
 3820WAT     H111702   0.434   4.978   3.932
 3820WAT     H211703   0.503   5.118   3.978
 3821WAT      O11704   2.246   5.181   7.632
 3821WAT     H111705   2.210   5.154   7.543
 3821WAT     H211706   2.183   5.152   7.704
 3822WAT      O11707   0.578   4.615   4.630
 3822WAT     H111708   0.594   4.635   4.534
 3822WAT     H211709   0.490   4.653   4.659
 3823WAT      O11710   0.183   6.779   3.334
 3823WAT     H111711   0.161   6.870   3.301
 3823WAT     H211712   0.145   6.711   3.271
 3824WAT      O11713   7.720   3.129   4.077
 3824WAT     H111714   7.733   3.227   4.087
 3824WAT     H211715   7.707   3.088   4.168
 3825WAT      O11716   8.639   3.725   7.517
 3825WAT     H111717   8.663   3.640   7.565
 3825WAT     H211718   8.718   3.787   7.517
 3826WAT      O11719   4.060   1.962   2.955
 3826WAT     H111720   3.961   1.953   2.959
 3826WAT     H211721   4.085   2.059   2.959
 3827WAT      O11722   4.344   8.471   6.240
 3827WAT     H111723   4.262   8.516   6.274
 3827WAT     H211724   4.381   8.410   6.310
 3828WAT      O11725   1.080   3.646   8.490
 3828WAT     H111726   1.114   3.604   8.574
 3828WAT     H211727   1.098   3.744   8.492
 3829WAT      O11728   7.692   8.612   8.905
 3829WAT     H111729   7.682   8.708   8.879
 3829WAT     H211730   7.679   8.603   9.004
 3830WAT      O11731   9.844   0.926   3.973
 3830WAT     H111732   9.920   0.916   3.908
 3830WAT     H211733   9.846   1.019   4.011
 3831WAT      O11734   8.367   1.897   7.687
 3831WAT     H111735   8.430   1.939   7.751
 3831WAT     H211736   8.311   1.968   7.644
 3832WAT      O11737   8.131   5.560   4.074
 3832WAT     H111738   8.188   5.508   4.011
 3832WAT     H211739   8.087   5.635   4.025
 3833WAT      O11740   6.695   6.315   8.576
 3833WAT     H111741   6.687   6.405   8.618
 3833WAT     H211742   6.755   6.320   8.496
 3834WAT      O11743   9.461   0.727   7.271
 3834WAT     H111744   9.520   0.647   7.282
 3834WAT     H211745   9.478   0.792   7.345
 3835WAT      O11746   3.483   4.179   3.429
 3835WAT     H111747   3.503   4.230   3.513
 3835WAT     H211748   3.482   4.081   3.449
 3836WAT      O11749   1.102   8.740   9.839
 3836WAT     H111750   1.155   8.657   9.854
 3836WAT     H211751   1.162   8.812   9.803
 3837WAT      O11752   4.061   1.164   6.701
 3837WAT     H111753   4.011   1.224   6.639
 3837WAT     H211754   4.158   1.164   6.677
 3838WAT      O11755   9.207   3.386   4.989
 3838WAT     H111756   9.194   3.290   5.015
 3838WAT     H211757   9.301   3.413   5.006
 3839WAT      O11758   2.723   5.990   0.878
 3839WAT     H111759   2.676   5.908   0.912
 3839WAT     H211760   2.669   6.031   0.804
 3840WAT      O11761   9.879   6.537   7.632
 3840WAT     H111762   9.814   6.602   7.592
 3840WAT     H211763   9.972   6.568   7.614
 3841WAT      O11764   7.403   0.085   6.656
 3841WAT     H111765   7.425  -0.011   6.640
 3841WAT     H211766   7.311   0.093   6.694
 3842WAT      O11767   2.500   0.765   7.931
 3842WAT     H111768   2.467   0.678   7.967
 3842WAT     H211769   2.486   0.838   7.998
 3843WAT      O11770   8.538   0.956   9.259
 3843WAT     H111771   8.472   1.016   9.215
 3843WAT     H211772   8.526   0.959   9.358
 3844WAT      O11773   5.352   0.618   8.158
 3844WAT     H111774   5.332   0.571   8.072
 3844WAT     H211775   5.331   0.558   8.235
 3845WAT      O11776   2.280   0.900   3.399
 3845WAT     H111777   2.344   0.824   3.406
 3845WAT     H211778   2.331   0.986   3.399
 3846WAT      O11779   8.757   5.753   9.116
 3846WAT     H111780   8.747   5.773   9.019
 3846WAT     H211781   8.753   5.654   9.130
 3847WAT      O11782   2.178   3.568   5.437
 3847WAT     H111783   2.094   3.576   5.490
 3847WAT     H211784   2.240   3.504   5.482
 3848WAT      O11785   6.790   1.803   5.717
 3848WAT     H111786   6.721   1.819   5.788
 3848WAT     H211787   6.872   1.764   5.758
 3849WAT      O11788   9.274   3.789   2.155
 3849WAT     H111789   9.258   3.816   2.060
 3849WAT     H211790   9.189   3.758   2.196
 3850WAT      O11791   0.173   3.764   3.740
 3850WAT     H111792   0.196   3.679   3.694
 3850WAT     H211793   0.084   3.797   3.707
 3851WAT      O11794   8.774   2.485   4.512
 3851WAT     H111795   8.828   2.449   4.436
 3851WAT     H211796   8.732   2.409   4.562
 3852WAT      O11797   1.744   7.052   5.717
 3852WAT     H111798   1.776   7.105   5.796
 3852WAT     H211799   1.741   7.111   5.637
 3853WAT      O11800   1.155   1.096   1.304
 3853WAT     H111801   1.085   1.084   1.234
 3853WAT     H211802   1.244   1.105   1.261
 3854WAT      O11803   2.335   5.949   9.780
 3854WAT     H111804   2.401   5.915   9.848
 3854WAT     H211805   2.263   5.881   9.767
 3855WAT      O11806   0.012   5.065   6.857
 3855WAT     H111807  -0.086   5.077   6.846
 3855WAT     H211808   0.061   5.142   6.816
 3856WAT      O11809   4.756   2.791   7.224
 3856WAT     H111810   4.779   2.811   7.319
 3856WAT     H211811   4.797   2.860   7.165
 3857WAT      O11812   7.412   2.296   4.375
 3857WAT     H111813   7.479   2.274   4.304
 3857WAT     H211814   7.328   2.245   4.357
 3858WAT      O11815   9.382   8.307   9.730
 3858WAT     H111816   9.307   8.324   9.794
 3858WAT     H211817   9.444   8.386   9.731
 3859WAT      O11818   9.158   2.513   4.396
 3859WAT     H111819   9.141   2.525   4.493
 3859WAT     H211820   9.206   2.594   4.360
 3860WAT      O11821   5.917   2.159   2.559
 3860WAT     H111822   6.016   2.170   2.553
 3860WAT     H211823   5.872   2.238   2.517
 3861WAT      O11824   6.516   1.481   1.564
 3861WAT     H111825   6.422   1.456   1.542
 3861WAT     H211826   6.538   1.569   1.521
 3862WAT      O11827   4.438   0.990   6.589
 3862WAT     H111828   4.378   1.066   6.615
 3862WAT     H211829   4.534   1.019   6.598
 3863WAT      O11830   0.091   1.391   0.230
 3863WAT     H111831   0.189   1.377   0.223
 3863WAT     H211832   0.048   1.307   0.266
 3864WAT      O11833   1.116   2.573   2.001
 3864WAT     H111834   1.198   2.627   2.023
 3864WAT     H211835   1.103   2.503   2.070
 3865WAT      O11836   9.172   6.604   7.429
 3865WAT     H111837   9.100   6.627   7.364
 3865WAT     H211838   9.259   6.643   7.397
 3866WAT      O11839   6.118   0.894   4.136
 3866WAT     H111840   6.023   0.898   4.166
 3866WAT     H211841   6.177   0.880   4.216
 3867WAT      O11842   4.595   7.737   1.869
 3867WAT     H111843   4.503   7.698   1.862
 3867WAT     H211844   4.656   7.688   1.807
 3868WAT      O11845   2.605   6.982   7.990
 3868WAT     H111846   2.587   6.914   8.061
 3868WAT     H211847   2.581   6.944   7.901
 3869WAT      O11848   1.275   6.300   5.037
 3869WAT     H111849   1.304   6.366   5.107
 3869WAT     H211850   1.176   6.289   5.040
 3870WAT      O11851   8.624   5.598   0.134
 3870WAT     H111852   8.683   5.538   0.081
 3870WAT     H211853   8.641   5.584   0.232
 3871WAT      O11854   1.709   3.117   2.909
 3871WAT     H111855   1.744   3.041   2.964
 3871WAT     H211856   1.774   3.192   2.911
 3872WAT      O11857   9.057   8.902   5.914
 3872WAT     H111858   9.112   8.836   5.863
 3872WAT     H211859   8.987   8.854   5.967
 3873WAT      O11860   1.134   8.392   2.638
 3873WAT     H111861   1.165   8.482   2.607
 3873WAT     H211862   1.052   8.404   2.695
 3874WAT      O11863   0.790   6.255   6.441
 3874WAT     H111864   0.774   6.156   6.446
 3874WAT     H211865   0.758   6.289   6.352
 3875WAT      O11866   1.607   3.511   7.524
 3875WAT     H111867   1.613   3.446   7.449
 3875WAT     H211868   1.602   3.604   7.488
 3876WAT      O11869   2.230   0.289   0.877
 3876WAT     H111870   2.213   0.263   0.782
 3876WAT     H211871   2.284   0.218   0.922
 3877WAT      O11872   3.642   7.322   6.274
 3877WAT     H111873   3.612   7.407   6.317
 3877WAT     H211874   3.620   7.323   6.177
 3878WAT      O11875   9.285   0.400   0.425
 3878WAT     H111876   9.283   0.423   0.327
 3878WAT     H211877   9.364   0.445   0.467
 3879WAT      O11878   3.278   7.099   4.093
 3879WAT     H111879   3.276   7.161   4.015
 3879WAT     H211880   3.189   7.053   4.102
 3880WAT      O11881   1.202   6.594   3.782
 3880WAT     H111882   1.207   6.693   3.771
 3880WAT     H211883   1.223   6.570   3.877
 3881WAT      O11884   8.234   0.764   5.127
 3881WAT     H111885   8.154   0.718   5.088
 3881WAT     H211886   8.206   0.816   5.208
 3882WAT      O11887   5.766   9.485   0.448
 3882WAT     H111888   5.716   9.557   0.497
 3882WAT     H211889   5.714   9.458   0.367
 3883WAT      O11890   8.477   1.922   2.464
 3883WAT     H111891   8.475   1.975   2.378
 3883WAT     H211892   8.541   1.846   2.454
 3884WAT      O11893   1.257   5.304   2.236
 3884WAT     H111894   1.230   5.377   2.299
 3884WAT     H211895   1.324   5.245   2.280
 3885WAT      O11896   2.802   1.829   7.214
 3885WAT     H111897   2.720   1.775   7.194
 3885WAT     H211898   2.777   1.926   7.221
 3886WAT      O11899   6.667   5.066   9.149
 3886WAT     H111900   6.653   4.999   9.077
 3886WAT     H211901   6.606   5.047   9.226
 3887WAT      O11902   5.982   5.817   1.106
 3887WAT     H111903   6.034   5.895   1.074
 3887WAT     H211904   6.006   5.797   1.201
 3888WAT      O11905   3.259   8.001   5.777
 3888WAT     H111906   3.285   8.050   5.694
 3888WAT     H211907   3.330   7.934   5.800
 3889WAT      O11908   6.442   9.553   5.024
 3889WAT     H111909   6.465   9.515   5.113
 3889WAT     H211910   6.342   9.551   5.011
 3890WAT      O11911   7.989   0.072   2.923
 3890WAT     H111912   7.934   0.142   2.877
 3890WAT     H211913   7.954   0.058   3.015
 3891WAT      O11914   5.767   6.223   1.164
 3891WAT     H111915   5.757   6.150   1.096
 3891WAT     H211916   5.774   6.184   1.255
 3892WAT      O11917   5.392   7.417   6.794
 3892WAT     H111918   5.351   7.345   6.850
 3892WAT     H211919   5.400   7.501   6.849
 3893WAT      O11920   6.021   0.438   1.100
 3893WAT     H111921   6.012   0.431   1.001
 3893WAT     H211922   6.118   0.438   1.124
 3894WAT      O11923   4.842   3.315   4.560
 3894WAT     H111924   4.889   3.396   4.593
 3894WAT     H211925   4.862   3.302   4.463
 3895WAT      O11926   6.316   7.645   9.427
 3895WAT     H111927   6.413   7.645   9.452
 3895WAT     H211928   6.270   7.567   9.472
 3896WAT      O11929   6.259   6.658   8.223
 3896WAT     H111930   6.229   6.585   8.162
 3896WAT     H211931   6.355   6.642   8.249
 3897WAT      O11932   1.942   6.841   3.773
 3897WAT     H111933   1.944   6.750   3.814
 3897WAT     H211934   1.978   6.836   3.680
 3898WAT      O11935   7.222   9.632   2.837
 3898WAT     H111936   7.258   9.620   2.745
 3898WAT     H211937   7.290   9.676   2.895
 3899WAT      O11938   0.583   4.018   0.675
 3899WAT     H111939   0.514   4.071   0.724
 3899WAT     H211940   0.653   3.987   0.740
 3900WAT      O11941   2.384   5.225   5.673
 3900WAT     H111942   2.365   5.243   5.577
 3900WAT     H211943   2.424   5.134   5.683
 3901WAT      O11944   4.620   8.217   7.560
 3901WAT     H111945   4.702   8.223   7.504
 3901WAT     H211946   4.542   8.191   7.503
 3902WAT      O11947   7.130   8.121   6.779
 3902WAT     H111948   7.166   8.205   6.820
 3902WAT     H211949   7.043   8.098   6.822
 3903WAT      O11950   8.738   9.185   2.454
 3903WAT     H111951   8.651   9.136   2.453
 3903WAT     H211952   8.731   9.266   2.512
 3904WAT      O11953   2.539   0.754   0.572
 3904WAT     H111954   2.504   0.728   0.482
 3904WAT     H211955   2.538   0.674   0.632
 3905WAT      O11956   6.388   0.105   2.028
 3905WAT     H111957   6.418   0.143   1.940
 3905WAT     H211958   6.467   0.075   2.080
 3906WAT      O11959   4.354   6.013   2.958
 3906WAT     H111960   4.329   6.074   2.883
 3906WAT     H211961   4.421   5.947   2.926
 3907WAT      O11962   3.085   7.846   8.423
 3907WAT     H111963   3.089   7.863   8.324
 3907WAT     H211964   3.151   7.905   8.469
 3908WAT      O11965   1.743   7.448   0.155
 3908WAT     H111966   1.833   7.452   0.198
 3908WAT     H211967   1.746   7.497   0.068
 3909WAT      O11968   4.703   0.125   2.344
 3909WAT     H111969   4.763   0.069   2.287
 3909WAT     H211970   4.608   0.099   2.328
 3910WAT      O11971   8.123   1.719   9.215
 3910WAT     H111972   8.123   1.801   9.273
 3910WAT     H211973   8.218   1.690   9.201
 3911WAT      O11974   4.324   4.932   7.282
 3911WAT     H111975   4.254   5.004   7.277
 3911WAT     H211976   4.279   4.843   7.291
 3912WAT      O11977   3.695   2.764   8.117
 3912WAT     H111978   3.619   2.703   8.137
 3912WAT     H211979   3.715   2.821   8.198
 3913WAT      O11980   9.601   7.797   5.237
 3913WAT     H111981   9.575   7.786   5.332
 3913WAT     H211982   9.672   7.867   5.230
 3914WAT      O11983   3.052   7.964   0.199
 3914WAT     H111984   3.142   7.978   0.158
 3914WAT     H211985   3.055   7.885   0.260
 3915WAT      O11986   8.757   6.869   9.458
 3915WAT     H111987   8.674   6.817   9.439
 3915WAT     H211988   8.747   6.963   9.427
 3916WAT      O11989   8.932   7.719   4.178
 3916WAT     H111990   8.902   7.777   4.102
 3916WAT     H211991   8.900   7.625   4.163
 3917WAT      O11992   1.776   2.900   5.077
 3917WAT     H111993   1.752   2.845   5.157
 3917WAT     H211994   1.824   2.983   5.106
 3918WAT      O11995   2.007   2.403   7.204
 3918WAT     H111996   1.998   2.385   7.106
 3918WAT     H211997   1.916   2.409   7.244
 3919WAT      O11998   1.955   5.835   9.100
 3919WAT     H111999   1.996   5.749   9.071
 3919WAT     H212000   1.855   5.830   9.090
 3920WAT      O12001   3.563   2.864   2.294
 3920WAT     H112002   3.558   2.790   2.228
 3920WAT     H212003   3.530   2.832   2.383
 3921WAT      O12004   7.630   9.780   2.776
 3921WAT     H112005   7.692   9.849   2.812
 3921WAT     H212006   7.540   9.790   2.820
 3922WAT      O12007   8.354   4.665   5.573
 3922WAT     H112008   8.349   4.581   5.627
 3922WAT     H212009   8.351   4.744   5.634
 3923WAT      O12010   3.698   7.614   3.764
 3923WAT     H112011   3.690   7.531   3.707
 3923WAT     H212012   3.729   7.690   3.707
 3924WAT      O12013   4.311   0.418   3.705
 3924WAT     H112014   4.383   0.352   3.725
 3924WAT     H212015   4.248   0.380   3.638
 3925WAT      O12016   6.460   0.468   7.927
 3925WAT     H112017   6.493   0.516   7.846
 3925WAT     H212018   6.536   0.449   7.989
 3926WAT      O12019   7.810   4.881   5.110
 3926WAT     H112020   7.746   4.934   5.052
 3926WAT     H212021   7.900   4.924   5.107
 3927WAT      O12022   4.967   1.750   4.656
 3927WAT     H112023   5.062   1.750   4.624
 3927WAT     H212024   4.911   1.804   4.594
 3928WAT      O12025   7.507   1.359   9.311
 3928WAT     H112026   7.572   1.434   9.326
 3928WAT     H212027   7.528   1.283   9.372
 3929WAT      O12028   4.062   4.283   9.682
 3929WAT     H112029   4.027   4.367   9.640
 3929WAT     H212030   4.092   4.220   9.610
 3930WAT      O12031   5.060   1.010   6.082
 3930WAT     H112032   5.109   1.095   6.062
 3930WAT     H212033   5.025   1.014   6.176
 3931WAT      O12034   4.869   8.797   6.739
 3931WAT     H112035   4.806   8.731   6.698
 3931WAT     H212036   4.891   8.869   6.672
 3932WAT      O12037   3.781   5.521   9.640
 3932WAT     H112038   3.781   5.429   9.681
 3932WAT     H212039   3.742   5.517   9.548
 3933WAT      O12040   4.761   0.531   7.747
 3933WAT     H112041   4.753   0.631   7.748
 3933WAT     H212042   4.670   0.490   7.750
 3934WAT      O12043   0.247   6.796   8.232
 3934WAT     H112044   0.287   6.885   8.212
 3934WAT     H212045   0.280   6.729   8.165
 3935WAT      O12046   5.776   5.050   6.872
 3935WAT     H112047   5.829   5.062   6.788
 3935WAT     H212048   5.773   5.137   6.922
 3936WAT      O12049   2.381   5.154   3.399
 3936WAT     H112050   2.370   5.249   3.430
 3936WAT     H212051   2.477   5.137   3.377
 3937WAT      O12052   9.457   7.215   5.825
 3937WAT     H112053   9.547   7.239   5.863
 3937WAT     H212054   9.467   7.191   5.728
 3938WAT      O12055   8.725   6.316   5.354
 3938WAT     H112056   8.653   6.248   5.339
 3938WAT     H212057   8.686   6.408   5.340
 3939WAT      O12058   6.246   6.111   7.717
 3939WAT     H112059   6.223   6.088   7.623
 3939WAT     H212060   6.244   6.029   7.774
 3940WAT      O12061   3.309   3.266   2.929
 3940WAT     H112062   3.395   3.252   2.978
 3940WAT     H212063   3.292   3.189   2.868
 3941WAT      O12064   8.398   1.140   1.156
 3941WAT     H112065   8.309   1.119   1.196
 3941WAT     H212066   8.415   1.078   1.079
 3942WAT      O12067   2.670   2.604   1.501
 3942WAT     H112068   2.640   2.591   1.596
 3942WAT     H212069   2.724   2.687   1.494
 3943WAT      O12070   4.550   4.994   2.443
 3943WAT     H112071   4.562   4.904   2.486
 3943WAT     H212072   4.638   5.026   2.407
 3944WAT      O12073   2.142   8.331   3.103
 3944WAT     H112074   2.135   8.254   3.167
 3944WAT     H212075   2.101   8.304   3.015
 3945WAT      O12076   7.100   1.885   4.959
 3945WAT     H112077   7.109   1.971   5.010
 3945WAT     H212078   7.157   1.815   5.002
 3946WAT      O12079   7.756   8.058   0.221
 3946WAT     H112080   7.696   8.021   0.150
 3946WAT     H212081   7.705   8.127   0.273
 3947WAT      O12082   8.640   7.363   3.250
 3947WAT     H112083   8.568   7.395   3.188
 3947WAT     H212084   8.694   7.441   3.281
 3948WAT      O12085   0.605   6.514   2.705
 3948WAT     H112086   0.610   6.473   2.797
 3948WAT     H212087   0.563   6.449   2.642
 3949WAT      O12088   1.343   3.914   0.542
 3949WAT     H112089   1.441   3.918   0.560
 3949WAT     H212090   1.293   3.952   0.620
 3950WAT      O12091   3.454   7.268   1.180
 3950WAT     H112092   3.405   7.337   1.125
 3950WAT     H212093   3.398   7.245   1.260
 3951WAT      O12094   8.864   8.056   0.499
 3951WAT     H112095   8.875   7.958   0.481
 3951WAT     H212096   8.954   8.099   0.503
 3952WAT      O12097   2.882   6.389   1.900
 3952WAT     H112098   2.980   6.368   1.901
 3952WAT     H212099   2.832   6.314   1.855
 3953WAT      O12100   2.155   8.641   9.231
 3953WAT     H112101   2.204   8.613   9.313
 3953WAT     H212102   2.185   8.732   9.203
 3954WAT      O12103   1.821   8.349   2.816
 3954WAT     H112104   1.849   8.440   2.846
 3954WAT     H212105   1.752   8.313   2.879
 3955WAT      O12106   4.021   4.303   8.951
 3955WAT     H112107   3.965   4.384   8.932
 3955WAT     H212108   3.968   4.239   9.006
 3956WAT      O12109   9.402   0.413   2.556
 3956WAT     H112110   9.457   0.487   2.516
 3956WAT     H212111   9.460   0.334   2.574
 3957WAT      O12112   1.389   9.046   0.946
 3957WAT     H112113   1.482   9.047   0.907
 3957WAT     H212114   1.394   9.029   1.044
 3958WAT      O12115   2.300   9.157   1.789
 3958WAT     H112116   2.347   9.070   1.802
 3958WAT     H212117   2.344   9.227   1.846
 3959WAT      O12118   8.108   1.734   3.680
 3959WAT     H112119   8.111   1.650   3.734
 3959WAT     H212120   8.069   1.808   3.735
 3960WAT      O12121   9.160   7.812   8.934
 3960WAT     H112122   9.212   7.772   9.010
 3960WAT     H212123   9.117   7.897   8.965
 3961WAT      O12124   3.703   0.487   7.152
 3961WAT     H112125   3.751   0.481   7.064
 3961WAT     H212126   3.605   0.471   7.137
 3962WAT      O12127   5.025   2.264   7.846
 3962WAT     H112128   4.943   2.318   7.866
 3962WAT     H212129   5.028   2.243   7.748
 3963WAT      O12130   7.402   5.133   0.816
 3963WAT     H112131   7.402   5.176   0.907
 3963WAT     H212132   7.486   5.080   0.804
 3964WAT      O12133   1.117   1.894   1.244
 3964WAT     H112134   1.061   1.972   1.270
 3964WAT     H212135   1.125   1.832   1.322
 3965WAT      O12136   9.281   4.371   1.952
 3965WAT     H112137   9.364   4.418   1.982
 3965WAT     H212138   9.304   4.309   1.877
 3966WAT      O12139   1.705   0.354   7.238
 3966WAT     H112140   1.697   0.428   7.172
 3966WAT     H212141   1.769   0.381   7.310
 3967WAT      O12142   4.112   6.197   7.024
 3967WAT     H112143   4.013   6.206   7.029
 3967WAT     H212144   4.145   6.149   7.106
 3968WAT      O12145   8.948   2.829   5.948
 3968WAT     H112146   8.873   2.768   5.975
 3968WAT     H212147   9.003   2.784   5.877
 3969WAT      O12148   6.225   4.301   4.191
 3969WAT     H112149   6.289   4.372   4.220
 3969WAT     H212150   6.203   4.313   4.094
 3970WAT      O12151   8.767   1.347   1.624
 3970WAT     H112152   8.769   1.365   1.526
 3970WAT     H212153   8.740   1.431   1.673
 3971WAT      O12154   6.644   1.226   3.997
 3971WAT     H112155   6.610   1.174   4.075
 3971WAT     H212156   6.742   1.242   4.007
 3972WAT      O12157   7.040   7.006   7.926
 3972WAT     H112158   6.982   6.934   7.965
 3972WAT     H212159   7.048   7.081   7.990
 3973WAT      O12160   7.608   7.331   4.559
 3973WAT     H112161   7.585   7.371   4.647
 3973WAT     H212162   7.576   7.236   4.556
 3974WAT      O12163   7.224   3.130   6.363
 3974WAT     H112164   7.245   3.175   6.449
 3974WAT     H212165   7.146   3.175   6.320
 3975WAT      O12166   1.901   0.360   7.703
 3975WAT     H112167   1.801   0.351   7.700
 3975WAT     H212168   1.930   0.433   7.641
 3976WAT      O12169   0.894   2.114   9.165
 3976WAT     H112170   0.886   2.203   9.210
 3976WAT     H212171   0.831   2.049   9.208
 3977WAT      O12172   7.452   5.222   9.728
 3977WAT     H112173   7.476   5.308   9.772
 3977WAT     H212174   7.520   5.198   9.659
 3978WAT      O12175   1.416   4.256   2.230
 3978WAT     H112176   1.464   4.175   2.264
 3978WAT     H212177   1.328   4.266   2.276
 3979WAT      O12178   8.019   4.703   3.367
 3979WAT     H112179   8.004   4.611   3.404
 3979WAT     H212180   7.972   4.770   3.424
 3980WAT      O12181   1.569   6.190   4.847
 3980WAT     H112182   1.579   6.270   4.787
 3980WAT     H212183   1.580   6.218   4.942
 3981WAT      O12184   8.793   9.283   1.721
 3981WAT     H112185   8.874   9.251   1.671
 3981WAT     H212186   8.725   9.210   1.726
 3982WAT      O12187   0.432   8.772   0.277
 3982WAT     H112188   0.429   8.693   0.215
 3982WAT     H212189   0.510   8.830   0.253
 3983WAT      O12190   1.410   3.688   9.527
 3983WAT     H112191   1.346   3.754   9.490
 3983WAT     H212192   1.362   3.626   9.590
 3984WAT      O12193   9.489   0.298   3.110
 3984WAT     H112194   9.416   0.233   3.091
 3984WAT     H212195   9.464   0.388   3.074
 3985WAT      O12196   3.750   7.371   2.333
 3985WAT     H112197   3.782   7.353   2.426
 3985WAT     H212198   3.800   7.449   2.295
 3986WAT      O12199   3.308   9.659   1.502
 3986WAT     H112200   3.406   9.660   1.525
 3986WAT     H212201   3.293   9.600   1.423
 3987WAT      O12202   5.521   7.161   4.715
 3987WAT     H112203   5.487   7.187   4.805
 3987WAT     H212204   5.621   7.159   4.717
 3988WAT      O12205   7.407   5.558   8.762
 3988WAT     H112206   7.488   5.559   8.702
 3988WAT     H212207   7.351   5.478   8.741
 3989WAT      O12208   2.561   1.514   8.347
 3989WAT     H112209   2.580   1.507   8.445
 3989WAT     H212210   2.556   1.610   8.320
 3990WAT      O12211   7.038   9.199   7.891
 3990WAT     H112212   6.949   9.239   7.913
 3990WAT     H212213   7.025   9.113   7.842
 3991WAT      O12214   2.402   0.184   8.045
 3991WAT     H112215   2.421   0.087   8.064
 3991WAT     H212216   2.314   0.193   8.000
 3992WAT      O12217   7.284   4.979   7.518
 3992WAT     H112218   7.340   4.900   7.540
 3992WAT     H212219   7.336   5.063   7.538
 3993WAT      O12220   1.652   2.417   4.995
 3993WAT     H112221   1.659   2.444   4.899
 3993WAT     H212222   1.556   2.414   5.022
 3994WAT      O12223   7.767   3.960   6.309
 3994WAT     H112224   7.790   3.866   6.286
 3994WAT     H212225   7.746   4.011   6.226
 3995WAT      O12226   8.993   1.485   5.493
 3995WAT     H112227   9.084   1.526   5.495
 3995WAT     H212228   8.981   1.434   5.408
 3996WAT      O12229   7.020   6.557   1.397
 3996WAT     H112230   7.011   6.530   1.301
 3996WAT     H212231   7.101   6.514   1.436
 3997WAT      O12232   5.532   8.775   1.816
 3997WAT     H112233   5.533   8.675   1.825
 3997WAT     H212234   5.530   8.817   1.907
 3998WAT      O12235   6.487   4.892   2.805
 3998WAT     H112236   6.454   4.911   2.713
 3998WAT     H212237   6.556   4.820   2.802
 3999WAT      O12238   8.376   2.790   0.668
 3999WAT     H112239   8.475   2.800   0.660
 3999WAT     H212240   8.342   2.734   0.592
 4000WAT      O12241   4.314   6.529   8.910
 4000WAT     H112242   4.409   6.503   8.928
 4000WAT     H212243   4.301   6.540   8.811
 4001WAT      O12244   5.084   0.198   1.260
 4001WAT     H112245   5.109   0.228   1.168
 4001WAT     H212246   4.986   0.176   1.263
 4002WAT      O12247   2.334   1.334   6.928
 4002WAT     H112248   2.287   1.246   6.930
 4002WAT     H212249   2.299   1.388   6.852
 4003WAT      O12250   0.339   2.339   2.634
 4003WAT     H112251   0.304   2.407   2.570
 4003WAT     H212252   0.322   2.247   2.596
 4004WAT      O12253   5.441   3.240   8.528
 4004WAT     H112254   5.377   3.315   8.512
 4004WAT     H212255   5.432   3.208   8.622
 4005WAT      O12256   7.397   8.790   7.437
 4005WAT     H112257   7.447   8.720   7.489
 4005WAT     H212258   7.319   8.747   7.390
 4006WAT      O12259   1.583   7.151   4.506
 4006WAT     H112260   1.544   7.060   4.493
 4006WAT     H212261   1.681   7.142   4.527
 4007WAT      O12262   5.181   5.972   5.167
 4007WAT     H112263   5.195   5.932   5.257
 4007WAT     H212264   5.130   6.058   5.176
 4008WAT      O12265   0.174   0.228   8.793
 4008WAT     H112266   0.185   0.134   8.760
 4008WAT     H212267   0.076   0.251   8.795
 4009WAT      O12268   8.646   4.230   2.040
 4009WAT     H112269   8.721   4.198   1.982
 4009WAT     H212270   8.608   4.153   2.091
 4010WAT      O12271   0.548   0.147   2.824
 4010WAT     H112272   0.561   0.080   2.751
 4010WAT     H212273   0.573   0.238   2.791
 4011WAT      O12274   0.190   7.955   2.536
 4011WAT     H112275   0.148   8.012   2.606
 4011WAT     H212276   0.164   7.988   2.445
 4012WAT      O12277   2.116   9.583   8.745
 4012WAT     H112278   2.099   9.585   8.646
 4012WAT     H212279   2.187   9.650   8.768
 4013WAT      O12280   9.241   7.019   1.884
 4013WAT     H112281   9.313   6.975   1.830
 4013WAT     H212282   9.152   6.990   1.850
 4014WAT      O12283   5.930   6.671   3.204
 4014WAT     H112284   5.995   6.658   3.279
 4014WAT     H212285   5.885   6.760   3.214
 4015WAT      O12286   5.754   2.249   4.553
 4015WAT     H112287   5.794   2.275   4.641
 4015WAT     H212288   5.728   2.331   4.503
 4016WAT      O12289   6.886   8.015   0.308
 4016WAT     H112290   6.871   8.034   0.405
 4016WAT     H212291   6.859   8.096   0.255
 4017WAT      O12292   8.629   9.792   1.938
 4017WAT     H112293   8.632   9.730   2.016
 4017WAT     H212294   8.704   9.858   1.945
 4018WAT      O12295   3.827   6.900   6.010
 4018WAT     H112296   3.800   6.979   5.955
 4018WAT     H212297   3.774   6.899   6.095
 4019WAT      O12298   3.845   9.238   6.538
 4019WAT     H112299   3.869   9.199   6.449
 4019WAT     H212300   3.840   9.164   6.606
 4020WAT      O12301   0.188   0.534   9.821
 4020WAT     H112302   0.132   0.578   9.891
 4020WAT     H212303   0.190   0.435   9.836
 4021WAT      O12304   3.675   4.456   4.221
 4021WAT     H112305   3.723   4.382   4.175
 4021WAT     H212306   3.703   4.460   4.317
 4022WAT      O12307   6.804   3.564   3.920
 4022WAT     H112308   6.871   3.499   3.955
 4022WAT     H212309   6.711   3.531   3.939
 4023WAT      O12310   3.870   8.605   0.308
 4023WAT     H112311   3.792   8.544   0.315
 4023WAT     H212312   3.862   8.659   0.224
 4024WAT      O12313   6.965   0.734   7.105
 4024WAT     H112314   7.003   0.817   7.146
 4024WAT     H212315   6.986   0.656   7.163
 4025WAT      O12316   3.365   1.613   0.464
 4025WAT     H112317   3.445   1.563   0.498
 4025WAT     H212318   3.395   1.690   0.408
 4026WAT      O12319   8.770   5.255   6.204
 4026WAT     H112320   8.693   5.291   6.152
 4026WAT     H212321   8.855   5.283   6.161
 4027WAT      O12322   4.834   5.079   0.447
 4027WAT     H112323   4.831   4.988   0.489
 4027WAT     H212324   4.745   5.124   0.459
 4028WAT      O12325   6.951   0.385   0.614
 4028WAT     H112326   6.962   0.442   0.532
 4028WAT     H212327   6.860   0.400   0.652
 4029WAT      O12328   6.491   9.351   0.200
 4029WAT     H112329   6.532   9.304   0.279
 4029WAT     H212330   6.392   9.341   0.202
 4030WAT      O12331   1.210   5.129   6.557
 4030WAT     H112332   1.241   5.151   6.650
 4030WAT     H212333   1.267   5.178   6.491
 4031WAT      O12334   0.266   8.915   9.759
 4031WAT     H112335   0.339   8.848   9.744
 4031WAT     H212336   0.289   8.971   9.839
 4032WAT      O12337   8.433   3.854   4.299
 4032WAT     H112338   8.448   3.763   4.338
 4032WAT     H212339   8.519   3.904   4.299
 4033WAT      O12340   7.476   2.564   7.422
 4033WAT     H112341   7.447   2.657   7.446
 4033WAT     H212342   7.422   2.532   7.344
 4034WAT      O12343   4.978   7.392   9.019
 4034WAT     H112344   4.998   7.468   9.081
 4034WAT     H212345   5.002   7.418   8.925
 4035WAT      O12346   1.943   3.281   0.972
 4035WAT     H112347   1.910   3.247   1.060
 4035WAT     H212348   1.972   3.204   0.915
 4036WAT      O12349   5.117   5.548   7.003
 4036WAT     H112350   5.097   5.478   6.935
 4036WAT     H212351   5.063   5.629   6.985
 4037WAT      O12352   7.301   8.045   7.479
 4037WAT     H112353   7.325   8.123   7.422
 4037WAT     H212354   7.215   8.063   7.526
 4038WAT      O12355   9.220   4.453   7.628
 4038WAT     H112356   9.199   4.368   7.581
 4038WAT     H212357   9.296   4.439   7.692
 4039WAT      O12358   6.604   4.771   5.035
 4039WAT     H112359   6.597   4.866   5.067
 4039WAT     H212360   6.640   4.771   4.941
 4040WAT      O12361   6.584   0.950   7.534
 4040WAT     H112362   6.668   0.902   7.508
 4040WAT     H212363   6.548   1.000   7.456
 4041WAT      O12364   4.664   2.838   4.276
 4041WAT     H112365   4.604   2.860   4.199
 4041WAT     H212366   4.621   2.869   4.361
 4042WAT      O12367   3.684   7.832   9.392
 4042WAT     H112368   3.742   7.849   9.471
 4042WAT     H212369   3.701   7.741   9.356
 4043WAT      O12370   9.583   4.616   9.855
 4043WAT     H112371   9.566   4.696   9.798
 4043WAT     H212372   9.635   4.548   9.803
 4044WAT      O12373   8.113   1.999   1.781
 4044WAT     H112374   8.146   1.920   1.728
 4044WAT     H212375   8.181   2.024   1.850
 4045WAT      O12376   1.104   5.205   2.843
 4045WAT     H112377   1.049   5.255   2.910
 4045WAT     H212378   1.050   5.191   2.760
 4046WAT      O12379   9.826   3.002   1.256
 4046WAT     H112380   9.794   2.995   1.351
 4046WAT     H212381   9.904   3.065   1.253
 4047WAT      O12382   1.785   6.045   2.888
 4047WAT     H112383   1.722   6.061   2.813
 4047WAT     H212384   1.815   5.949   2.887
 4048WAT      O12385   0.099   2.446   4.863
 4048WAT     H112386   0.063   2.522   4.807
 4048WAT     H212387   0.080   2.359   4.817
 4049WAT      O12388   8.011   5.117   3.421
 4049WAT     H112389   8.037   5.111   3.325
 4049WAT     H212390   7.913   5.140   3.428
 4050WAT      O12391   2.080   5.004   3.079
 4050WAT     H112392   2.121   5.003   2.988
 4050WAT     H212393   2.128   5.071   3.136
 4051WAT      O12394   4.191   7.826   4.427
 4051WAT     H112395   4.242   7.749   4.465
 4051WAT     H212396   4.254   7.886   4.378
 4052WAT      O12397   1.760   2.757   5.611
 4052WAT     H112398   1.849   2.784   5.647
 4052WAT     H212399   1.696   2.744   5.686
 4053WAT      O12400   5.618   6.822   5.502
 4053WAT     H112401   5.578   6.910   5.477
 4053WAT     H212402   5.716   6.824   5.483
 4054WAT      O12403   3.315   2.851   6.798
 4054WAT     H112404   3.351   2.941   6.773
 4054WAT     H212405   3.391   2.792   6.825
 4055WAT      O12406   6.708   5.779   7.120
 4055WAT     H112407   6.714   5.876   7.098
 4055WAT     H212408   6.642   5.734   7.059
 4056WAT      O12409   1.395   2.222   4.093
 4056WAT     H112410   1.310   2.234   4.043
 4056WAT     H212411   1.415   2.124   4.101
 4057WAT      O12412   6.354   2.811   6.635
 4057WAT     H112413   6.409   2.801   6.552
 4057WAT     H212414   6.271   2.863   6.614
 4058WAT      O12415   7.489   0.409   5.020
 4058WAT     H112416   7.465   0.314   5.043
 4058WAT     H212417   7.414   0.450   4.969
 4059WAT      O12418   0.728   5.701   4.223
 4059WAT     H112419   0.701   5.707   4.319
 4059WAT     H212420   0.824   5.725   4.214
 4060WAT      O12421   1.077   4.864   1.729
 4060WAT     H112422   1.150   4.804   1.696
 4060WAT     H212423   1.082   4.870   1.829
 4061WAT      O12424   6.793   0.820   2.577
 4061WAT     H112425   6.756   0.909   2.550
 4061WAT     H212426   6.770   0.752   2.508
 4062WAT      O12427   2.147   0.545   2.675
 4062WAT     H112428   2.140   0.471   2.607
 4062WAT     H212429   2.107   0.628   2.637
 4063WAT      O12430   5.921   3.400   8.667
 4063WAT     H112431   5.902   3.309   8.630
 4063WAT     H212432   5.886   3.405   8.761
 4064WAT      O12433   6.288   6.288   0.773
 4064WAT     H112434   6.206   6.234   0.793
 4064WAT     H212435   6.358   6.267   0.841
 4065WAT      O12436   0.607   1.804   4.912
 4065WAT     H112437   0.510   1.793   4.936
 4065WAT     H212438   0.660   1.812   4.997
 4066WAT      O12439   3.218   7.191   7.902
 4066WAT     H112440   3.219   7.267   7.836
 4066WAT     H212441   3.303   7.193   7.956
 4067WAT      O12442   9.266   3.154   0.919
 4067WAT     H112443   9.317   3.233   0.884
 4067WAT     H212444   9.329   3.092   0.966
 4068WAT      O12445   3.589   1.420   9.556
 4068WAT     H112446   3.509   1.362   9.539
 4068WAT     H212447   3.612   1.415   9.653
 4069WAT      O12448   4.801   6.221   6.936
 4069WAT     H112449   4.794   6.217   6.836
 4069WAT     H212450   4.873   6.159   6.967
 4070WAT      O12451   7.758   1.320   0.392
 4070WAT     H112452   7.782   1.324   0.295
 4070WAT     H212453   7.721   1.229   0.413
 4071WAT      O12454   5.457   8.634   4.833
 4071WAT     H112455   5.455   8.734   4.827
 4071WAT     H212456   5.548   8.600   4.808
 4072WAT      O12457   4.079   6.843   4.911
 4072WAT     H112458   3.988   6.871   4.879
 4072WAT     H212459   4.148   6.891   4.857
 4073WAT      O12460   1.027   4.390   0.803
 4073WAT     H112461   1.010   4.292   0.811
 4073WAT     H212462   1.123   4.406   0.777
 4074WAT      O12463   8.446   3.875   5.157
 4074WAT     H112464   8.488   3.902   5.244
 4074WAT     H212465   8.394   3.791   5.169
 4075WAT      O12466   6.387   5.744   3.720
 4075WAT     H112467   6.357   5.672   3.782
 4075WAT     H212468   6.415   5.825   3.772
 4076WAT      O12469   6.536   7.701   1.323
 4076WAT     H112470   6.587   7.637   1.380
 4076WAT     H212471   6.478   7.650   1.259
 4077WAT      O12472   6.758   1.712   1.045
 4077WAT     H112473   6.764   1.639   0.977
 4077WAT     H212474   6.665   1.717   1.081
 4078WAT      O12475   4.332   6.639   5.120
 4078WAT     H112476   4.385   6.609   5.040
 4078WAT     H212477   4.240   6.600   5.117
 4079WAT      O12478   3.447   8.387   5.132
 4079WAT     H112479   3.499   8.359   5.213
 4079WAT     H212480   3.502   8.447   5.075
 4080WAT      O12481   4.403   7.529   8.953
 4080WAT     H112482   4.443   7.444   8.919
 4080WAT     H212483   4.407   7.531   9.053
 4081WAT      O12484   6.685   2.506   5.027
 4081WAT     H112485   6.585   2.508   5.031
 4081WAT     H212486   6.722   2.584   5.077
 4082WAT      O12487   4.090   0.067   7.964
 4082WAT     H112488   4.177   0.097   7.925
 4082WAT     H212489   4.106  -0.002   8.034
 4083WAT      O12490   8.151   1.252   4.371
 4083WAT     H112491   8.072   1.274   4.315
 4083WAT     H212492   8.125   1.255   4.468
 4084WAT      O12493   2.034   3.776   0.515
 4084WAT     H112494   1.991   3.847   0.459
 4084WAT     H212495   2.133   3.789   0.515
 4085WAT      O12496   3.431   4.016   5.082
 4085WAT     H112497   3.461   4.016   5.177
 4085WAT     H212498   3.407   4.109   5.055
 4086WAT      O12499   4.057   4.761   9.401
 4086WAT     H112500   4.061   4.760   9.301
 4086WAT     H212501   4.128   4.822   9.437
 4087WAT      O12502   4.087   8.474   0.363
 4087WAT     H112503   4.013   8.535   0.333
 4087WAT     H212504   4.067   8.439   0.454
 4088WAT      O12505   7.289   7.708   0.310
 4088WAT     H112506   7.242   7.796   0.306
 4088WAT     H212507   7.283   7.672   0.404
 4089WAT      O12508   3.565   5.194   4.539
 4089WAT     H112509   3.594   5.109   4.496
 4089WAT     H212510   3.611   5.271   4.494
 4090WAT      O12511   8.516   2.405   2.037
 4090WAT     H112512   8.473   2.438   1.953
 4090WAT     H212513   8.600   2.456   2.055
 4091WAT      O12514   6.336   0.998   9.486
 4091WAT     H112515   6.317   0.900   9.491
 4091WAT     H212516   6.249   1.049   9.490
 4092WAT      O12517   7.486   8.975   1.174
 4092WAT     H112518   7.572   8.928   1.153
 4092WAT     H212519   7.503   9.073   1.185
 4093WAT      O12520   3.145   4.711   1.515
 4093WAT     H112521   3.069   4.768   1.544
 4093WAT     H212522   3.225   4.768   1.498
 4094WAT      O12523   6.070   3.789   7.464
 4094WAT     H112524   6.124   3.713   7.500
 4094WAT     H212525   6.110   3.875   7.495
 4095WAT      O12526   6.838   3.930   3.503
 4095WAT     H112527   6.801   3.889   3.587
 4095WAT     H212528   6.799   4.022   3.492
 4096WAT      O12529   0.887   5.572   9.519
 4096WAT     H112530   0.918   5.559   9.613
 4096WAT     H212531   0.938   5.512   9.458
 4097WAT      O12532   3.485   1.858   9.613
 4097WAT     H112533   3.464   1.893   9.705
 4097WAT     H212534   3.556   1.787   9.621
 4098WAT      O12535   2.716   3.114   2.343
 4098WAT     H112536   2.782   3.147   2.276
 4098WAT     H212537   2.764   3.075   2.422
 4099WAT      O12538   1.296   0.199   9.200
 4099WAT     H112539   1.294   0.140   9.119
 4099WAT     H212540   1.318   0.292   9.173
 4100WAT      O12541   3.671   7.563   1.669
 4100WAT     H112542   3.740   7.509   1.621
 4100WAT     H212543   3.660   7.651   1.623
 4101WAT      O12544   7.076   5.739   6.310
 4101WAT     H112545   7.175   5.747   6.322
 4101WAT     H212546   7.054   5.647   6.278
 4102WAT      O12547   7.934   8.167   3.183
 4102WAT     H112548   7.842   8.183   3.219
 4102WAT     H212549   8.001   8.216   3.239
 4103WAT      O12550   5.959   1.895   5.555
 4103WAT     H112551   5.911   1.947   5.626
 4103WAT     H212552   5.924   1.921   5.465
 4104WAT      O12553   7.763   2.835   2.909
 4104WAT     H112554   7.857   2.807   2.887
 4104WAT     H212555   7.699   2.778   2.858
 4105WAT      O12556   6.868   4.393   0.815
 4105WAT     H112557   6.777   4.436   0.810
 4105WAT     H212558   6.937   4.459   0.787
 4106WAT      O12559   0.587   7.751   3.349
 4106WAT     H112560   0.563   7.816   3.277
 4106WAT     H212561   0.659   7.790   3.407
 4107WAT      O12562   6.584   2.599   4.236
 4107WAT     H112563   6.512   2.649   4.282
 4107WAT     H212564   6.585   2.623   4.139
 4108WAT      O12565   1.300   0.132   0.578
 4108WAT     H112566   1.215   0.176   0.609
 4108WAT     H212567   1.369   0.202   0.559
 4109WAT      O12568   7.443   2.098   3.351
 4109WAT     H112569   7.508   2.048   3.295
 4109WAT     H212570   7.355   2.104   3.304
 4110WAT      O12571   5.449   1.772   8.712
 4110WAT     H112572   5.403   1.854   8.746
 4110WAT     H212573   5.477   1.715   8.789
 4111WAT      O12574   2.938   0.078   4.414
 4111WAT     H112575   2.979   0.012   4.477
 4111WAT     H212576   2.918   0.034   4.327
 4112WAT      O12577   0.986   4.121   3.283
 4112WAT     H112578   1.073   4.077   3.302
 4112WAT     H212579   1.001   4.216   3.255
 4113WAT      O12580   0.426   0.040   2.456
 4113WAT     H112581   0.425   0.007   2.362
 4113WAT     H212582   0.510   0.011   2.501
 4114WAT      O12583   0.280   3.560   3.543
 4114WAT     H112584   0.341   3.535   3.619
 4114WAT     H212585   0.324   3.629   3.486
 4115WAT      O12586   7.933   4.069   6.802
 4115WAT     H112587   7.908   4.038   6.710
 4115WAT     H212588   8.008   4.134   6.796
 4116WAT      O12589   4.880   1.850   9.487
 4116WAT     H112590   4.934   1.934   9.487
 4116WAT     H212591   4.819   1.850   9.407
 4117WAT      O12592   5.691   4.403   2.589
 4117WAT     H112593   5.749   4.338   2.638
 4117WAT     H212594   5.747   4.457   2.526
 4118WAT      O12595   9.727   6.730   7.457
 4118WAT     H112596   9.708   6.669   7.380
 4118WAT     H212597   9.816   6.773   7.444
 4119WAT      O12598   2.446   5.017   2.672
 4119WAT     H112599   2.475   5.080   2.744
 4119WAT     H212600   2.419   5.070   2.591
 4120WAT      O12601   6.933   7.355   1.791
 4120WAT     H112602   6.841   7.380   1.762
 4120WAT     H212603   6.953   7.397   1.879
 4121WAT      O12604   0.935   0.069   0.881
 4121WAT     H112605   0.859   0.082   0.817
 4121WAT     H212606   0.919   0.121   0.964
 4122WAT      O12607   7.207   2.384   2.240
 4122WAT     H112608   7.232   2.481   2.250
 4122WAT     H212609   7.288   2.332   2.215
 4123WAT      O12610   5.376   8.812   3.671
 4123WAT     H112611   5.334   8.850   3.754
 4123WAT     H212612   5.353   8.869   3.593
 4124WAT      O12613   1.058   0.111   7.242
 4124WAT     H112614   1.025   0.051   7.315
 4124WAT     H212615   0.979   0.155   7.198
 4125WAT      O12616   6.183   5.176   1.500
 4125WAT     H112617   6.220   5.170   1.407
 4125WAT     H212618   6.246   5.228   1.558
 4126WAT      O12619   5.849   0.558   5.222
 4126WAT     H112620   5.940   0.546   5.263
 4126WAT     H212621   5.856   0.551   5.123
 4127WAT      O12622   7.103   9.554   7.911
 4127WAT     H112623   7.116   9.653   7.920
 4127WAT     H212624   7.193   9.509   7.906
 4128WAT      O12625   3.614   1.758   2.801
 4128WAT     H112626   3.693   1.793   2.851
 4128WAT     H212627   3.550   1.717   2.865
 4129WAT      O12628   1.078   5.775   0.705
 4129WAT     H112629   1.158   5.758   0.648
 4129WAT     H212630   1.094   5.741   0.797
 4130WAT      O12631   7.544   0.142   8.793
 4130WAT     H112632   7.493   0.196   8.860
 4130WAT     H212633   7.634   0.119   8.829
 4131WAT      O12634   8.988   7.712   6.965
 4131WAT     H112635   8.951   7.686   7.054
 4131WAT     H212636   9.029   7.632   6.921
 4132WAT      O12637   0.881   5.913   3.151
 4132WAT     H112638   0.904   6.001   3.192
 4132WAT     H212639   0.963   5.872   3.113
 4133WAT      O12640   8.522   9.305   6.443
 4133WAT     H112641   8.439   9.359   6.449
 4133WAT     H212642   8.501   9.209   6.463
 4134WAT      O12643   8.291   8.827   7.036
 4134WAT     H112644   8.373   8.805   7.089
 4134WAT     H212645   8.294   8.779   6.948
 4135WAT      O12646   2.322   8.548   2.050
 4135WAT     H112647   2.321   8.564   1.952
 4135WAT     H212648   2.231   8.517   2.080
 4136WAT      O12649   3.201   8.444   7.112
 4136WAT     H112650   3.234   8.537   7.125
 4136WAT     H212651   3.246   8.384   7.179
 4137WAT      O12652   5.140   6.292   6.681
 4137WAT     H112653   5.141   6.264   6.777
 4137WAT     H212654   5.138   6.392   6.676
 4138WAT      O12655   6.485   9.463   9.623
 4138WAT     H112656   6.398   9.451   9.671
 4138WAT     H212657   6.517   9.374   9.589
 4139WAT      O12658   1.511   5.651   8.078
 4139WAT     H112659   1.490   5.701   7.994
 4139WAT     H212660   1.434   5.660   8.142
 4140WAT      O12661   3.126   6.800   7.243
 4140WAT     H112662   3.060   6.725   7.252
 4140WAT     H212663   3.142   6.841   7.333
 4141WAT      O12664   1.704   0.929   6.934
 4141WAT     H112665   1.675   0.894   7.024
 4141WAT     H212666   1.762   0.862   6.890
 4142WAT      O12667   7.641   2.880   3.247
 4142WAT     H112668   7.566   2.852   3.307
 4142WAT     H212669   7.676   2.800   3.197
 4143WAT      O12670   8.282   4.684   0.808
 4143WAT     H112671   8.315   4.630   0.885
 4143WAT     H212672   8.272   4.779   0.836
 4144WAT      O12673   8.690   7.920   0.815
 4144WAT     H112674   8.723   8.013   0.802
 4144WAT     H212675   8.722   7.885   0.903
 4145WAT      O12676   3.033   4.492   6.128
 4145WAT     H112677   2.957   4.554   6.111
 4145WAT     H212678   3.118   4.545   6.138
 4146WAT      O12679   8.441   8.249   5.382
 4146WAT     H112680   8.471   8.263   5.288
 4146WAT     H212681   8.458   8.154   5.408
 4147WAT      O12682   8.319   7.245   1.529
 4147WAT     H112683   8.227   7.225   1.494
 4147WAT     H212684   8.385   7.239   1.455
 4148WAT      O12685   9.882   1.155   4.109
 4148WAT     H112686   9.976   1.171   4.140
 4148WAT     H212687   9.847   1.238   4.065
 4149WAT      O12688   3.002   5.113   6.710
 4149WAT     H112689   3.030   5.183   6.643
 4149WAT     H212690   2.992   5.155   6.800
 4150WAT      O12691   3.801   9.820   8.171
 4150WAT     H112692   3.814   9.906   8.219
 4150WAT     H212693   3.846   9.824   8.081
 4151WAT      O12694   9.055   8.197   5.051
 4151WAT     H112695   8.992   8.119   5.048
 4151WAT     H212696   9.105   8.196   5.138
 4152WAT      O12697   8.452   1.156   8.465
 4152WAT     H112698   8.353   1.145   8.454
 4152WAT     H212699   8.490   1.072   8.504
 4153WAT      O12700   2.430   1.447   7.183
 4153WAT     H112701   2.423   1.406   7.092
 4153WAT     H212702   2.340   1.477   7.213
 4154WAT      O12703   5.321   8.836   3.256
 4154WAT     H112704   5.258   8.784   3.312
 4154WAT     H212705   5.408   8.849   3.305
 4155WAT      O12706   3.227   5.315   4.860
 4155WAT     H112707   3.279   5.396   4.832
 4155WAT     H212708   3.171   5.283   4.783
 4156WAT      O12709   8.700   0.377   0.051
 4156WAT     H112710   8.752   0.332  -0.022
 4156WAT     H212711   8.725   0.338   0.139
 4157WAT      O12712   5.327   3.178   5.986
 4157WAT     H112713   5.391   3.224   5.924
 4157WAT     H212714   5.264   3.122   5.932
 4158WAT      O12715   8.626   5.782   7.347
 4158WAT     H112716   8.653   5.850   7.279
 4158WAT     H212717   8.704   5.723   7.368
 4159WAT      O12718   1.831   5.828   5.830
 4159WAT     H112719   1.771   5.748   5.829
 4159WAT     H212720   1.822   5.875   5.918
 4160WAT      O12721   3.084   9.684   9.280
 4160WAT     H112722   3.052   9.698   9.373
 4160WAT     H212723   3.175   9.643   9.281
 4161WAT      O12724   6.607   5.771   4.435
 4161WAT     H112725   6.637   5.774   4.530
 4161WAT     H212726   6.520   5.819   4.426
 4162WAT      O12727   6.616   9.292   8.097
 4162WAT     H112728   6.634   9.327   8.189
 4162WAT     H212729   6.520   9.265   8.090
 4163WAT      O12730   5.162   5.957   0.098
 4163WAT     H112731   5.224   5.959   0.176
 4163WAT     H212732   5.186   5.881   0.038
 4164WAT      O12733   5.748   0.894   8.370
 4164WAT     H112734   5.673   0.836   8.337
 4164WAT     H212735   5.833   0.866   8.325
 4165WAT      O12736   2.560   7.048   2.590
 4165WAT     H112737   2.598   6.991   2.662
 4165WAT     H212738   2.465   7.070   2.612
 4166WAT      O12739   1.938   4.316   1.346
 4166WAT     H112740   1.853   4.267   1.364
 4166WAT     H212741   2.004   4.294   1.417
 4167WAT      O12742   1.990   6.044   7.274
 4167WAT     H112743   1.899   6.065   7.238
 4167WAT     H212744   2.055   6.040   7.198
 4168WAT      O12745   6.745   3.007   9.800
 4168WAT     H112746   6.817   3.064   9.839
 4168WAT     H212747   6.676   3.065   9.758
 4169WAT      O12748   0.625   4.393   1.851
 4169WAT     H112749   0.671   4.310   1.884
 4169WAT     H212750   0.692   4.465   1.837
 4170WAT      O12751   5.135   7.294   1.559
 4170WAT     H112752   5.190   7.217   1.591
 4170WAT     H212753   5.153   7.309   1.462
 4171WAT      O12754   6.878   2.264   5.640
 4171WAT     H112755   6.840   2.299   5.725
 4171WAT     H212756   6.809   2.208   5.594
 4172WAT      O12757   8.677   3.595   1.322
 4172WAT     H112758   8.617   3.628   1.250
 4172WAT     H212759   8.654   3.641   1.408
 4173WAT      O12760   5.315   4.663   8.540
 4173WAT     H112761   5.311   4.751   8.492
 4173WAT     H212762   5.330   4.680   8.638
 4174WAT      O12763   1.304   9.112   7.533
 4174WAT     H112764   1.376   9.102   7.601
 4174WAT     H212765   1.337   9.080   7.444
 4175WAT      O12766   1.853   8.931   4.193
 4175WAT     H112767   1.903   8.845   4.203
 4175WAT     H212768   1.764   8.923   4.239
 4176WAT      O12769   8.358   9.190   9.591
 4176WAT     H112770   8.431   9.206   9.657
 4176WAT     H212771   8.317   9.278   9.565
 4177WAT      O12772   6.952   3.636   4.402
 4177WAT     H112773   7.035   3.590   4.435
 4177WAT     H212774   6.873   3.606   4.455
 4178WAT      O12775   9.598   6.087   5.091
 4178WAT     H112776   9.562   6.078   5.184
 4178WAT     H212777   9.586   6.182   5.061
 4179WAT      O12778   9.081   5.793   2.622
 4179WAT     H112779   9.108   5.797   2.526
 4179WAT     H212780   9.005   5.729   2.633
 4180WAT      O12781   9.004   1.256   6.975
 4180WAT     H112782   9.039   1.172   7.016
 4180WAT     H212783   9.079   1.307   6.933
 4181WAT      O12784   2.064   8.761   5.247
 4181WAT     H112785   2.147   8.817   5.252
 4181WAT     H212786   2.001   8.788   5.319
 4182WAT      O12787   6.645   8.430   4.628
 4182WAT     H112788   6.576   8.479   4.575
 4182WAT     H212789   6.725   8.412   4.571
 4183WAT      O12790   5.102   0.148   2.321
 4183WAT     H112791   5.035   0.140   2.395
 4183WAT     H212792   5.193   0.128   2.356
 4184WAT      O12793   1.644   1.972   4.543
 4184WAT     H112794   1.737   1.942   4.563
 4184WAT     H212795   1.633   1.981   4.444
 4185WAT      O12796   3.693   4.286   9.041
 4185WAT     H112797   3.610   4.271   9.095
 4185WAT     H212798   3.765   4.226   9.073
 4186WAT      O12799   2.232   3.650   3.105
 4186WAT     H112800   2.232   3.724   3.172
 4186WAT     H212801   2.276   3.569   3.144
 4187WAT      O12802   5.250   5.527   6.714
 4187WAT     H112803   5.319   5.485   6.772
 4187WAT     H212804   5.281   5.618   6.686
 4188WAT      O12805   5.967   1.413   7.043
 4188WAT     H112806   5.898   1.483   7.062
 4188WAT     H212807   5.938   1.326   7.084
 4189WAT      O12808   4.918   6.318   2.619
 4189WAT     H112809   5.002   6.307   2.672
 4189WAT     H212810   4.847   6.257   2.656
 4190WAT      O12811   3.722   7.303   1.310
 4190WAT     H112812   3.782   7.240   1.260
 4190WAT     H212813   3.632   7.306   1.266
 4191WAT      O12814   6.316   7.769   0.552
 4191WAT     H112815   6.283   7.852   0.596
 4191WAT     H212816   6.415   7.773   0.542
 4192WAT      O12817   8.544   8.584   6.112
 4192WAT     H112818   8.634   8.627   6.099
 4192WAT     H212819   8.507   8.556   6.024
 4193WAT      O12820   9.423   1.944   2.086
 4193WAT     H112821   9.332   1.970   2.118
 4193WAT     H212822   9.434   1.974   1.991
 4194WAT      O12823   4.247   3.029   8.116
 4194WAT     H112824   4.263   3.051   8.212
 4194WAT     H212825   4.155   2.988   8.107
 4195WAT      O12826   9.882   1.204   5.433
 4195WAT     H112827   9.818   1.263   5.482
 4195WAT     H212828   9.853   1.195   5.337
 4196WAT      O12829   0.838   7.809   9.418
 4196WAT     H112830   0.801   7.722   9.449
 4196WAT     H212831   0.937   7.799   9.402
 4197WAT      O12832   7.210   3.506   4.179
 4197WAT     H112833   7.125   3.473   4.221
 4197WAT     H212834   7.266   3.427   4.153
 4198WAT      O12835   0.730   2.825   8.476
 4198WAT     H112836   0.708   2.896   8.410
 4198WAT     H212837   0.749   2.866   8.565
 4199WAT      O12838   1.996   5.451   6.355
 4199WAT     H112839   2.079   5.453   6.299
 4199WAT     H212840   1.947   5.365   6.340
 4200WAT      O12841   8.484   7.921   9.670
 4200WAT     H112842   8.390   7.935   9.641
 4200WAT     H212843   8.529   8.010   9.682
 4201WAT      O12844   4.015   8.052   7.540
 4201WAT     H112845   3.981   8.048   7.634
 4201WAT     H212846   4.088   8.120   7.533
 4202WAT      O12847   2.997   2.714   8.960
 4202WAT     H112848   2.969   2.810   8.953
 4202WAT     H212849   3.097   2.708   8.965
 4203WAT      O12850   6.276   8.155   1.431
 4203WAT     H112851   6.272   8.198   1.522
 4203WAT     H212852   6.196   8.097   1.418
 4204WAT      O12853   5.745   0.592   9.725
 4204WAT     H112854   5.758   0.603   9.626
 4204WAT     H212855   5.782   0.672   9.773
 4205WAT      O12856   5.102   0.127   3.149
 4205WAT     H112857   5.115   0.028   3.143
 4205WAT     H212858   5.006   0.149   3.131
 4206WAT      O12859   1.744   3.022   2.110
 4206WAT     H112860   1.775   3.095   2.170
 4206WAT     H212861   1.811   3.007   2.037
 4207WAT      O12862   9.313   5.955   2.987
 4207WAT     H112863   9.233   6.012   2.974
 4207WAT     H212864   9.302   5.869   2.938
 4208WAT      O12865   1.154   0.128   9.587
 4208WAT     H112866   1.245   0.126   9.545
 4208WAT     H212867   1.129   0.036   9.617
 4209WAT      O12868   3.632   4.220   6.219
 4209WAT     H112869   3.664   4.137   6.174
 4209WAT     H212870   3.571   4.196   6.295
 4210WAT      O12871   1.691   4.525   2.504
 4210WAT     H112872   1.669   4.578   2.586
 4210WAT     H212873   1.720   4.587   2.431
 4211WAT      O12874   1.254   1.078   8.829
 4211WAT     H112875   1.341   1.044   8.794
 4211WAT     H212876   1.241   1.044   8.923
 4212WAT      O12877   0.489   8.615   7.370
 4212WAT     H112878   0.465   8.698   7.420
 4212WAT     H212879   0.510   8.638   7.275
 4213WAT      O12880   6.639   5.967   1.887
 4213WAT     H112881   6.730   6.002   1.910
 4213WAT     H212882   6.603   6.017   1.808
 4214WAT      O12883   9.127   8.351   9.436
 4214WAT     H112884   9.069   8.272   9.413
 4214WAT     H212885   9.210   8.348   9.381
 4215WAT      O12886   8.418   6.846   5.211
 4215WAT     H112887   8.428   6.892   5.299
 4215WAT     H212888   8.448   6.907   5.138
 4216WAT      O12889   0.797   7.352   0.515
 4216WAT     H112890   0.879   7.408   0.530
 4216WAT     H212891   0.788   7.331   0.418
 4217WAT      O12892   8.084   4.238   7.434
 4217WAT     H112893   8.058   4.157   7.487
 4217WAT     H212894   8.156   4.288   7.483
 4218WAT      O12895   0.350   4.094   6.468
 4218WAT     H112896   0.304   4.130   6.549
 4218WAT     H212897   0.438   4.141   6.456
 4219WAT      O12898   3.842   1.105   0.667
 4219WAT     H112899   3.913   1.078   0.602
 4219WAT     H212900   3.865   1.194   0.707
 4220WAT      O12901   9.380   0.605   2.050
 4220WAT     H112902   9.297   0.660   2.054
 4220WAT     H212903   9.454   0.659   2.009
 4221WAT      O12904   3.338   3.381   0.293
 4221WAT     H112905   3.319   3.452   0.361
 4221WAT     H212906   3.253   3.336   0.267
 4222WAT      O12907   4.088   6.068   9.286
 4222WAT     H112908   4.007   6.125   9.275
 4222WAT     H212909   4.074   5.981   9.239
 4223WAT      O12910   5.285   1.835   8.984
 4223WAT     H112911   5.278   1.900   8.909
 4223WAT     H212912   5.375   1.842   9.027
 4224WAT      O12913   4.746   4.121   7.628
 4224WAT     H112914   4.770   4.206   7.675
 4224WAT     H212915   4.678   4.141   7.557
 4225WAT      O12916   4.194   1.295   4.907
 4225WAT     H112917   4.116   1.346   4.872
 4225WAT     H212918   4.224   1.335   4.993
 4226WAT      O12919   3.453   2.571   4.474
 4226WAT     H112920   3.494   2.497   4.419
 4226WAT     H212921   3.356   2.551   4.489
 4227WAT      O12922   8.954   8.075   1.994
 4227WAT     H112923   8.943   8.097   2.091
 4227WAT     H212924   9.038   8.021   1.982
 4228WAT      O12925   4.962   2.466   6.115
 4228WAT     H112926   5.015   2.465   6.030
 4228WAT     H212927   4.886   2.531   6.106
 4229WAT      O12928   6.007   3.298   6.137
 4229WAT     H112929   5.908   3.304   6.151
 4229WAT     H212930   6.048   3.387   6.157
 4230WAT      O12931   9.725   2.102   9.619
 4230WAT     H112932   9.665   2.175   9.653
 4230WAT     H212933   9.727   2.104   9.519
 4231WAT      O12934   4.313   3.421   7.520
 4231WAT     H112935   4.330   3.418   7.619
 4231WAT     H212936   4.217   3.402   7.502
 4232WAT      O12937   1.534   7.738   1.186
 4232WAT     H112938   1.461   7.787   1.138
 4232WAT     H212939   1.568   7.664   1.129
 4233WAT      O12940   2.470   7.125   0.409
 4233WAT     H112941   2.423   7.037   0.402
 4233WAT     H212942   2.410   7.198   0.380
 4234WAT      O12943   1.550   7.690   4.890
 4234WAT     H112944   1.518   7.749   4.816
 4234WAT     H212945   1.644   7.661   4.871
 4235WAT      O12946   4.691   0.764   0.318
 4235WAT     H112947   4.786   0.732   0.317
 4235WAT     H212948   4.671   0.804   0.407
 4236WAT      O12949   5.413   8.212   5.595
 4236WAT     H112950   5.334   8.161   5.629
 4236WAT     H212951   5.388   8.263   5.513
 4237WAT      O12952   3.428   2.349   5.930
 4237WAT     H112953   3.359   2.412   5.965
 4237WAT     H212954   3.408   2.327   5.834
 4238WAT      O12955   7.114   0.832   7.357
 4238WAT     H112956   7.177   0.909   7.348
 4238WAT     H212957   7.161   0.747   7.336
 4239WAT      O12958   6.217   0.994   9.800
 4239WAT     H112959   6.143   1.036   9.747
 4239WAT     H212960   6.180   0.919   9.855
 4240WAT      O12961   7.305   6.835   2.022
 4240WAT     H112962   7.207   6.854   2.029
 4240WAT     H212963   7.330   6.820   1.927
 4241WAT      O12964   8.100   2.635   5.137
 4241WAT     H112965   8.088   2.648   5.235
 4241WAT     H212966   8.010   2.628   5.093
 4242WAT      O12967   3.377   0.702   7.213
 4242WAT     H112968   3.357   0.736   7.122
 4242WAT     H212969   3.296   0.654   7.249
 4243WAT      O12970   6.760   9.542   1.555
 4243WAT     H112971   6.718   9.471   1.498
 4243WAT     H212972   6.856   9.553   1.529
 4244WAT      O12973   7.903   4.855   9.005
 4244WAT     H112974   7.936   4.949   9.001
 4244WAT     H212975   7.823   4.851   9.066
 4245WAT      O12976   1.508   9.394   4.712
 4245WAT     H112977   1.540   9.304   4.740
 4245WAT     H212978   1.425   9.385   4.657
 4246WAT      O12979   6.792   4.325   7.884
 4246WAT     H112980   6.851   4.401   7.912
 4246WAT     H212981   6.787   4.258   7.957
 4247WAT      O12982   5.057   3.407   2.940
 4247WAT     H112983   5.155   3.420   2.928
 4247WAT     H212984   5.010   3.494   2.931
 4248WAT      O12985   7.013   3.703   1.822
 4248WAT     H112986   6.955   3.720   1.742
 4248WAT     H212987   7.100   3.663   1.793
 4249WAT      O12988   9.249   8.864   9.104
 4249WAT     H112989   9.246   8.962   9.119
 4249WAT     H212990   9.261   8.817   9.192
 4250WAT      O12991   6.658   1.966   6.680
 4250WAT     H112992   6.607   1.913   6.747
 4250WAT     H212993   6.594   2.018   6.623
 4251WAT      O12994   6.704   7.149   5.133
 4251WAT     H112995   6.655   7.067   5.165
 4251WAT     H212996   6.713   7.214   5.209
 4252WAT      O12997   4.507   2.140   0.777
 4252WAT     H112998   4.437   2.078   0.740
 4252WAT     H212999   4.527   2.115   0.871
 4253WAT      O13000   1.607   3.640   0.704
 4253WAT     H113001   1.630   3.665   0.799
 4253WAT     H213002   1.669   3.569   0.673
 4254WAT      O13003   7.694   1.201   1.869
 4254WAT     H113004   7.712   1.298   1.887
 4254WAT     H213005   7.671   1.155   1.955
 4255WAT      O13006   6.709   4.486   0.440
 4255WAT     H113007   6.614   4.516   0.434
 4255WAT     H213008   6.711   4.392   0.474
 4256WAT      O13009   1.128   8.762   1.780
 4256WAT     H113010   1.211   8.712   1.755
 4256WAT     H213011   1.103   8.824   1.707
 4257WAT      O13012   2.537   5.513   1.904
 4257WAT     H113013   2.540   5.520   1.804
 4257WAT     H213014   2.482   5.433   1.930
 4258WAT      O13015   0.259   7.701   2.040
 4258WAT     H113016   0.299   7.792   2.028
 4258WAT     H213017   0.332   7.634   2.055
 4259WAT      O13018   4.546   5.208   8.013
 4259WAT     H113019   4.501   5.288   7.972
 4259WAT     H213020   4.498   5.182   8.096
 4260WAT      O13021   4.936   1.337   9.240
 4260WAT     H113022   4.885   1.389   9.172
 4260WAT     H213023   5.016   1.390   9.268
 4261WAT      O13024   4.029   6.778   3.843
 4261WAT     H113025   4.044   6.845   3.915
 4261WAT     H213026   4.100   6.708   3.847
 4262WAT      O13027   3.822   6.598   4.572
 4262WAT     H113028   3.871   6.573   4.656
 4262WAT     H213029   3.725   6.579   4.583
 4263WAT      O13030   9.801   5.152   0.116
 4263WAT     H113031   9.808   5.053   0.130
 4263WAT     H213032   9.807   5.199   0.205
 4264WAT      O13033   3.974   0.797   2.654
 4264WAT     H113034   3.983   0.791   2.555
 4264WAT     H213035   3.883   0.765   2.681
 4265WAT      O13036   1.511   4.309   2.545
 4265WAT     H113037   1.562   4.223   2.543
 4265WAT     H213038   1.575   4.385   2.529
 4266WAT      O13039   2.520   7.726   3.130
 4266WAT     H113040   2.588   7.674   3.183
 4266WAT     H213041   2.560   7.813   3.101
 4267WAT      O13042   4.523   9.712   5.972
 4267WAT     H113043   4.478   9.699   6.061
 4267WAT     H213044   4.484   9.649   5.905
 4268WAT      O13045   6.932   7.600   8.944
 4268WAT     H113046   6.886   7.572   8.860
 4268WAT     H213047   6.874   7.665   8.993
 4269WAT      O13048   1.572   7.891   9.514
 4269WAT     H113049   1.575   7.804   9.465
 4269WAT     H213050   1.502   7.950   9.473
 4270WAT      O13051   5.614   9.780   0.332
 4270WAT     H113052   5.593   9.692   0.290
 4270WAT     H213053   5.632   9.767   0.429
 4271WAT      O13054   1.694   8.082   5.592
 4271WAT     H113055   1.685   7.993   5.548
 4271WAT     H213056   1.603   8.122   5.605
 4272WAT      O13057   9.862   7.667   2.255
 4272WAT     H113058   9.921   7.598   2.214
 4272WAT     H213059   9.884   7.677   2.352
 4273WAT      O13060   7.985   9.421   7.857
 4273WAT     H113061   7.986   9.322   7.862
 4273WAT     H213062   8.056   9.458   7.918
 4274WAT      O13063   0.012   0.110   2.849
 4274WAT     H113064  -0.053   0.151   2.912
 4274WAT     H213065   0.056   0.182   2.795
 4275WAT      O13066   8.330   6.523   7.796
 4275WAT     H113067   8.372   6.450   7.742
 4275WAT     H213068   8.230   6.520   7.785
 4276WAT      O13069   8.624   0.634   4.158
 4276WAT     H113070   8.598   0.539   4.143
 4276WAT     H213071   8.655   0.674   4.071
 4277WAT      O13072   4.562   7.520   2.212
 4277WAT     H113073   4.653   7.491   2.182
 4277WAT     H213074   4.493   7.458   2.175
 4278WAT      O13075   9.694   1.084   5.258
 4278WAT     H113076   9.674   1.005   5.316
 4278WAT     H213077   9.675   1.061   5.163
 4279WAT      O13078   7.918   9.036   9.208
 4279WAT     H113079   7.879   8.961   9.261
 4279WAT     H213080   7.860   9.057   9.130
 4280WAT      O13081   4.358   7.260   9.483
 4280WAT     H113082   4.368   7.354   9.514
 4280WAT     H213083   4.365   7.256   9.383
 4281WAT      O13084   2.883   2.360   2.786
 4281WAT     H113085   2.839   2.448   2.770
 4281WAT     H213086   2.854   2.324   2.875
 4282WAT      O13087   2.455   9.197   4.365
 4282WAT     H113088   2.357   9.216   4.354
 4282WAT     H213089   2.470   9.098   4.364
 4283WAT      O13090   7.986   1.650   1.623
 4283WAT     H113091   7.903   1.653   1.679
 4283WAT     H213092   7.962   1.634   1.528
 4284WAT      O13093   5.591   4.031   3.062
 4284WAT     H113094   5.556   3.938   3.068
 4284WAT     H213095   5.589   4.062   2.966
 4285WAT      O13096   1.730   0.889   3.393
 4285WAT     H113097   1.698   0.796   3.412
 4285WAT     H213098   1.660   0.955   3.418
 4286WAT      O13099   8.461   3.591   3.380
 4286WAT     H113100   8.548   3.571   3.335
 4286WAT     H213101   8.477   3.617   3.475
 4287WAT      O13102   0.430   0.755   0.724
 4287WAT     H113103   0.434   0.855   0.724
 4287WAT     H213104   0.346   0.725   0.771
 4288WAT      O13105   4.623   8.110   6.690
 4288WAT     H113106   4.627   8.065   6.779
 4288WAT     H213107   4.632   8.209   6.702
 4289WAT      O13108   3.111   4.645   2.025
 4289WAT     H113109   3.157   4.672   2.110
 4289WAT     H213110   3.170   4.666   1.947
 4290WAT      O13111   0.861   8.073   3.106
 4290WAT     H113112   0.942   8.113   3.148
 4290WAT     H213113   0.795   8.145   3.085
 4291WAT      O13114   7.719   6.569   7.529
 4291WAT     H113115   7.629   6.553   7.571
 4291WAT     H213116   7.709   6.575   7.430
 4292WAT      O13117   6.794   9.525   5.145
 4292WAT     H113118   6.883   9.566   5.166
 4292WAT     H213119   6.748   9.580   5.074
 4293WAT      O13120   6.522   1.301   6.361
 4293WAT     H113121   6.531   1.400   6.363
 4293WAT     H213122   6.583   1.260   6.429
 4294WAT      O13123   8.062   7.013   9.776
 4294WAT     H113124   7.989   6.990   9.711
 4294WAT     H213125   8.102   7.102   9.751
 4295WAT      O13126   3.899   9.261   9.335
 4295WAT     H113127   3.905   9.165   9.361
 4295WAT     H213128   3.982   9.287   9.285
 4296WAT      O13129   1.597   5.927   8.583
 4296WAT     H113130   1.641   5.926   8.493
 4296WAT     H213131   1.501   5.901   8.573
 4297WAT      O13132   8.281   3.684   2.719
 4297WAT     H113133   8.233   3.771   2.710
 4297WAT     H213134   8.358   3.695   2.782
 4298WAT      O13135   2.806   5.093   4.504
 4298WAT     H113136   2.858   5.055   4.580
 4298WAT     H213137   2.711   5.107   4.533
 4299WAT      O13138   5.510   1.329   2.070
 4299WAT     H113139   5.532   1.331   1.972
 4299WAT     H213140   5.595   1.325   2.123
 4300WAT      O13141   6.031   0.663   8.487
 4300WAT     H113142   6.074   0.672   8.577
 4300WAT     H213143   5.935   0.636   8.498
 4301WAT      O13144   5.607   7.723   9.262
 4301WAT     H113145   5.543   7.753   9.191
 4301WAT     H213146   5.678   7.667   9.221
 4302WAT      O13147   0.072   7.471   1.373
 4302WAT     H113148   0.082   7.535   1.297
 4302WAT     H213149   0.030   7.386   1.340
 4303WAT      O13150   0.692   3.675   1.966
 4303WAT     H113151   0.783   3.714   1.951
 4303WAT     H213152   0.625   3.749   1.967
 4304WAT      O13153   6.020   0.817   9.520
 4304WAT     H113154   5.952   0.885   9.548
 4304WAT     H213155   6.055   0.768   9.600
 4305WAT      O13156   7.629   9.516   8.909
 4305WAT     H113157   7.698   9.581   8.944
 4305WAT     H213158   7.543   9.564   8.895
 4306WAT      O13159   7.669   2.357   1.424
 4306WAT     H113160   7.741   2.422   1.401
 4306WAT     H213161   7.670   2.340   1.522
 4307WAT      O13162   7.586   0.748   5.893
 4307WAT     H113163   7.585   0.821   5.825
 4307WAT     H213164   7.564   0.661   5.850
 4308WAT      O13165   5.177   3.313   0.293
 4308WAT     H113166   5.087   3.274   0.270
 4308WAT     H213167   5.183   3.406   0.257
 4309WAT      O13168   0.870   3.170   4.675
 4309WAT     H113169   0.827   3.246   4.723
 4309WAT     H213170   0.810   3.140   4.600
 4310WAT      O13171   3.081   3.461   8.374
 4310WAT     H113172   3.168   3.498   8.343
 4310WAT     H213173   3.033   3.529   8.430
 4311WAT      O13174   7.959   2.293   7.046
 4311WAT     H113175   8.055   2.291   7.019
 4311WAT     H213176   7.908   2.351   6.982
 4312WAT      O13177   6.929   1.500   7.764
 4312WAT     H113178   6.854   1.561   7.741
 4312WAT     H213179   6.902   1.405   7.748
 4313WAT      O13180   6.084   4.271   1.769
 4313WAT     H113181   6.107   4.300   1.862
 4313WAT     H213182   6.147   4.199   1.740
 4314WAT      O13183   2.155   1.630   5.168
 4314WAT     H113184   2.103   1.713   5.189
 4314WAT     H213185   2.111   1.551   5.210
 4315WAT      O13186   0.430   9.582   1.709
 4315WAT     H113187   0.382   9.500   1.738
 4315WAT     H213188   0.445   9.579   1.610
 4316WAT      O13189   5.621   8.276   5.051
 4316WAT     H113190   5.707   8.278   5.103
 4316WAT     H213191   5.545   8.269   5.115
 4317WAT      O13192   3.113   5.920   6.031
 4317WAT     H113193   3.149   5.982   5.962
 4317WAT     H213194   3.112   5.827   5.995
 4318WAT      O13195   5.116   3.685   0.957
 4318WAT     H113196   5.052   3.610   0.972
 4318WAT     H213197   5.210   3.651   0.962
 4319WAT      O13198   6.390   7.638   6.805
 4319WAT     H113199   6.309   7.600   6.760
 4319WAT     H213200   6.418   7.721   6.757
 4320WAT      O13201   9.532   6.312   7.967
 4320WAT     H113202   9.556   6.290   8.062
 4320WAT     H213203   9.432   6.316   7.959
 4321WAT      O13204   7.231   7.004   9.032
 4321WAT     H113205   7.179   6.920   9.016
 4321WAT     H213206   7.317   6.982   9.077
 4322WAT      O13207   8.839   7.592   0.696
 4322WAT     H113208   8.898   7.593   0.777
 4322WAT     H213209   8.894   7.580   0.614
 4323WAT      O13210   5.065   8.151   6.242
 4323WAT     H113211   5.072   8.051   6.232
 4323WAT     H213212   5.083   8.176   6.337
 4324WAT      O13213   7.993   0.148   9.269
 4324WAT     H113214   7.949   0.233   9.241
 4324WAT     H213215   8.042   0.162   9.354
 4325WAT      O13216   4.558   7.147   2.324
 4325WAT     H113217   4.592   7.216   2.388
 4325WAT     H213218   4.458   7.145   2.327
 4326WAT      O13219   5.945   7.883   3.927
 4326WAT     H113220   6.033   7.930   3.934
 4326WAT     H213221   5.948   7.800   3.983
 4327WAT      O13222   6.156   6.711   6.275
 4327WAT     H113223   6.120   6.625   6.311
 4327WAT     H213224   6.083   6.762   6.231
 4328WAT      O13225   8.797   7.208   3.888
 4328WAT     H113226   8.784   7.237   3.983
 4328WAT     H213227   8.849   7.278   3.839
 4329WAT      O13228   5.703   5.184   4.005
 4329WAT     H113229   5.760   5.133   4.070
 4329WAT     H213230   5.701   5.136   3.917
 4330WAT      O13231   2.247   6.626   3.398
 4330WAT     H113232   2.271   6.542   3.447
 4330WAT     H213233   2.330   6.666   3.360
 4331WAT      O13234   9.513   6.585   2.758
 4331WAT     H113235   9.592   6.554   2.705
 4331WAT     H213236   9.453   6.640   2.700
 4332WAT      O13237   3.542   5.686   3.607
 4332WAT     H113238   3.606   5.628   3.657
 4332WAT     H213239   3.548   5.780   3.639
 4333WAT      O13240   5.437   3.791   8.170
 4333WAT     H113241   5.420   3.727   8.245
 4333WAT     H213242   5.442   3.742   8.084
 4334WAT      O13243   7.132   9.097   3.887
 4334WAT     H113244   7.128   9.010   3.838
 4334WAT     H213245   7.221   9.106   3.931
 4335WAT      O13246   7.839   5.645   7.098
 4335WAT     H113247   7.744   5.673   7.086
 4335WAT     H213248   7.849   5.598   7.186
 4336WAT      O13249   6.442   5.205   1.854
 4336WAT     H113250   6.459   5.126   1.913
 4336WAT     H213251   6.401   5.279   1.907
 4337WAT      O13252   3.947   8.761   0.518
 4337WAT     H113253   4.045   8.763   0.497
 4337WAT     H213254   3.903   8.689   0.464
 4338WAT      O13255   4.981   8.019   1.514
 4338WAT     H113256   5.064   7.964   1.506
 4338WAT     H213257   4.966   8.043   1.610
 4339WAT      O13258   1.634   9.542   7.324
 4339WAT     H113259   1.720   9.507   7.362
 4339WAT     H213260   1.561   9.476   7.341
 4340WAT      O13261   4.283   0.017   4.375
 4340WAT     H113262   4.313  -0.078   4.380
 4340WAT     H213263   4.362   0.077   4.378
 4341WAT      O13264   9.862   1.193   5.936
 4341WAT     H113265   9.958   1.222   5.927
 4341WAT     H213266   9.826   1.171   5.845
 4342WAT      O13267   8.458   3.028   9.562
 4342WAT     H113268   8.497   3.110   9.603
 4342WAT     H213269   8.531   2.966   9.534
 4343WAT      O13270   0.238   3.075   2.299
 4343WAT     H113271   0.293   3.055   2.218
 4343WAT     H213272   0.158   3.129   2.273
 4344WAT      O13273   6.525   7.499   7.018
 4344WAT     H113274   6.502   7.406   7.048
 4344WAT     H213275   6.454   7.532   6.956
 4345WAT      O13276   1.801   5.984   1.787
 4345WAT     H113277   1.851   5.990   1.874
 4345WAT     H213278   1.794   5.888   1.760
 4346WAT      O13279   7.499   3.463   6.510
 4346WAT     H113280   7.508   3.523   6.589
 4346WAT     H213281   7.432   3.391   6.530
 4347WAT      O13282   1.705   2.386   1.803
 4347WAT     H113283   1.728   2.331   1.882
 4347WAT     H213284   1.668   2.328   1.730
 4348WAT      O13285   2.039   9.521   3.070
 4348WAT     H113286   2.092   9.509   2.986
 4348WAT     H213287   2.095   9.565   3.140
 4349WAT      O13288   1.524   0.575   6.130
 4349WAT     H113289   1.604   0.606   6.079
 4349WAT     H213290   1.491   0.489   6.090
 4350WAT      O13291   1.301   5.547   1.900
 4350WAT     H113292   1.318   5.625   1.840
 4350WAT     H213293   1.374   5.540   1.967
 4351WAT      O13294   5.359   4.795   9.852
 4351WAT     H113295   5.448   4.759   9.878
 4351WAT     H213296   5.304   4.723   9.810
 4352WAT      O13297   0.982   3.299   1.999
 4352WAT     H113298   1.000   3.234   2.073
 4352WAT     H213299   0.889   3.285   1.965
 4353WAT      O13300   4.998   8.294   2.666
 4353WAT     H113301   5.031   8.389   2.666
 4353WAT     H213302   4.905   8.292   2.628
 4354WAT      O13303   3.341   4.710   0.716
 4354WAT     H113304   3.379   4.779   0.654
 4354WAT     H213305   3.321   4.753   0.804
 4355WAT      O13306   0.524   0.817   5.312
 4355WAT     H113307   0.439   0.819   5.365
 4355WAT     H213308   0.552   0.722   5.297
 4356WAT      O13309   2.880   7.331   8.966
 4356WAT     H113310   2.825   7.248   8.970
 4356WAT     H213311   2.914   7.345   8.873
 4357WAT      O13312   2.010   5.309   1.869
 4357WAT     H113313   2.008   5.408   1.852
 4357WAT     H213314   2.087   5.288   1.929
 4358WAT      O13315   2.122   6.049   1.730
 4358WAT     H113316   2.222   6.040   1.733
 4358WAT     H213317   2.083   6.013   1.814
 4359WAT      O13318   7.452   3.450   2.195
 4359WAT     H113319   7.506   3.366   2.187
 4359WAT     H213320   7.357   3.430   2.173
 4360WAT      O13321   9.394   3.559   1.026
 4360WAT     H113322   9.402   3.620   0.946
 4360WAT     H213323   9.354   3.472   0.998
 4361WAT      O13324   2.247   3.385   2.465
 4361WAT     H113325   2.166   3.372   2.522
 4361WAT     H213326   2.219   3.390   2.369
 4362WAT      O13327   0.556   6.788   4.771
 4362WAT     H113328   0.608   6.727   4.831
 4362WAT     H213329   0.611   6.808   4.689
 4363WAT      O13330   8.244   6.506   4.270
 4363WAT     H113331   8.217   6.465   4.357
 4363WAT     H213332   8.328   6.560   4.283
 4364WAT      O13333   5.569   0.997   7.547
 4364WAT     H113334   5.518   0.930   7.492
 4364WAT     H213335   5.644   0.951   7.594
 4365WAT      O13336   7.212   7.375   8.223
 4365WAT     H113337   7.141   7.312   8.190
 4365WAT     H213338   7.175   7.467   8.227
 4366WAT      O13339   7.143   9.585   4.290
 4366WAT     H113340   7.051   9.558   4.261
 4366WAT     H213341   7.206   9.509   4.279
 4367WAT      O13342   9.336   5.662   4.931
 4367WAT     H113343   9.330   5.619   4.841
 4367WAT     H213344   9.397   5.608   4.989
 4368WAT      O13345   6.652   3.194   5.674
 4368WAT     H113346   6.689   3.219   5.585
 4368WAT     H213347   6.660   3.272   5.737
 4369WAT      O13348   2.734   9.813   9.051
 4369WAT     H113349   2.721   9.863   8.966
 4369WAT     H213350   2.813   9.851   9.100
 4370WAT      O13351   5.090   5.579   7.628
 4370WAT     H113352   5.034   5.661   7.620
 4370WAT     H213353   5.067   5.514   7.556
 4371WAT      O13354   8.604   4.869   0.633
 4371WAT     H113355   8.633   4.950   0.582
 4371WAT     H213356   8.619   4.788   0.577
 4372WAT      O13357   1.541   6.046   3.053
 4372WAT     H113358   1.612   6.028   2.985
 4372WAT     H213359   1.479   6.117   3.020
 4373WAT      O13360   4.595   0.997   4.786
 4373WAT     H113361   4.504   0.962   4.765
 4373WAT     H213362   4.588   1.070   4.853
 4374WAT      O13363   1.492   7.549   3.977
 4374WAT     H113364   1.564   7.617   3.965
 4374WAT     H213365   1.428   7.554   3.900
 4375WAT      O13366   8.766   3.371   8.170
 4375WAT     H113367   8.856   3.345   8.136
 4375WAT     H213368   8.697   3.309   8.133
 4376WAT      O13369   5.516   4.476   2.838
 4376WAT     H113370   5.502   4.512   2.930
 4376WAT     H213371   5.600   4.515   2.800
 4377WAT      O13372   8.596   5.109   4.373
 4377WAT     H113373   8.502   5.087   4.398
 4377WAT     H213374   8.659   5.059   4.432
 4378WAT      O13375   2.182   3.650   2.105
 4378WAT     H113376   2.191   3.559   2.147
 4378WAT     H213377   2.265   3.703   2.123
 4379WAT      O13378   7.585   6.601   8.140
 4379WAT     H113379   7.614   6.677   8.197
 4379WAT     H213380   7.641   6.597   8.057
 4380WAT      O13381   3.816   0.383   6.874
 4380WAT     H113382   3.823   0.287   6.901
 4380WAT     H213383   3.906   0.426   6.879
 4381WAT      O13384   0.826   1.634   8.044
 4381WAT     H113385   0.916   1.674   8.062
 4381WAT     H213386   0.812   1.555   8.104
 4382WAT      O13387   1.275   6.955   1.389
 4382WAT     H113388   1.197   7.016   1.374
 4382WAT     H213389   1.336   6.959   1.310
 4383WAT      O13390   3.368   6.720   6.833
 4383WAT     H113391   3.321   6.735   6.920
 4383WAT     H213392   3.411   6.629   6.834
 4384WAT      O13393   5.197   0.714   2.862
 4384WAT     H113394   5.181   0.666   2.948
 4384WAT     H213395   5.240   0.802   2.880
 4385WAT      O13396   6.912   4.219   3.515
 4385WAT     H113397   6.967   4.169   3.582
 4385WAT     H213398   6.958   4.303   3.490
 4386WAT      O13399   5.541   2.659   9.072
 4386WAT     H113400   5.595   2.681   9.153
 4386WAT     H213401   5.458   2.610   9.099
 4387WAT      O13402   8.375   3.995   0.947
 4387WAT     H113403   8.354   3.960   0.856
 4387WAT     H213404   8.474   4.001   0.959
 4388WAT      O13405   3.164   6.842   3.048
 4388WAT     H113406   3.125   6.862   2.958
 4388WAT     H213407   3.211   6.753   3.045
 4389WAT      O13408   5.059   4.445   3.166
 4389WAT     H113409   4.990   4.502   3.121
 4389WAT     H213410   5.139   4.435   3.106
 4390WAT      O13411   2.913   0.726   7.117
 4390WAT     H113412   2.900   0.797   7.186
 4390WAT     H213413   2.893   0.636   7.156
 4391WAT      O13414   5.782   0.381   6.769
 4391WAT     H113415   5.795   0.290   6.731
 4391WAT     H213416   5.684   0.399   6.780
 4392WAT      O13417   8.511   2.144   6.184
 4392WAT     H113418   8.449   2.222   6.194
 4392WAT     H213419   8.551   2.145   6.093
 4393WAT      O13420   2.732   9.266   0.443
 4393WAT     H113421   2.829   9.290   0.433
 4393WAT     H213422   2.719   9.214   0.527
 4394WAT      O13423   1.372   8.794   9.141
 4394WAT     H113424   1.468   8.785   9.167
 4394WAT     H213425   1.366   8.822   9.045
 4395WAT      O13426   8.164   5.719   0.838
 4395WAT     H113427   8.093   5.664   0.793
 4395WAT     H213428   8.251   5.706   0.790
 4396WAT      O13429   5.639   0.474   8.281
 4396WAT     H113430   5.561   0.421   8.247
 4396WAT     H213431   5.723   0.421   8.266
 4397WAT      O13432   7.244   7.470   5.654
 4397WAT     H113433   7.147   7.464   5.676
 4397WAT     H213434   7.294   7.508   5.732
 4398WAT      O13435   0.398   7.536   2.441
 4398WAT     H113436   0.459   7.553   2.519
 4398WAT     H213437   0.395   7.438   2.421
 4399WAT      O13438   8.993   2.647   3.635
 4399WAT     H113439   9.038   2.661   3.723
 4399WAT     H213440   8.914   2.587   3.646
 4400WAT      O13441   9.847   4.853   7.762
 4400WAT     H113442   9.917   4.871   7.693
 4400WAT     H213443   9.783   4.783   7.728
 4401WAT      O13444   5.660   8.775   4.539
 4401WAT     H113445   5.665   8.814   4.630
 4401WAT     H213446   5.654   8.675   4.545
 4402WAT      O13447   2.813   5.054   5.237
 4402WAT     H113448   2.800   5.120   5.162
 4402WAT     H213449   2.876   4.983   5.207
 4403WAT      O13450   0.843   6.685   2.997
 4403WAT     H113451   0.856   6.679   2.898
 4403WAT     H213452   0.932   6.687   3.042
 4404WAT      O13453   5.516   0.808   0.219
 4404WAT     H113454   5.422   0.825   0.249
 4404WAT     H213455   5.561   0.748   0.284
 4405WAT      O13456   5.841   1.678   2.455
 4405WAT     H113457   5.826   1.634   2.544
 4405WAT     H213458   5.822   1.612   2.382
 4406WAT      O13459   9.605   5.629   5.635
 4406WAT     H113460   9.523   5.574   5.623
 4406WAT     H213461   9.682   5.570   5.659
 4407WAT      O13462   6.046   8.001   6.834
 4407WAT     H113463   6.068   7.960   6.746
 4407WAT     H213464   6.065   7.936   6.907
 4408WAT      O13465   8.944   0.304   8.055
 4408WAT     H113466   8.924   0.257   7.969
 4408WAT     H213467   9.032   0.273   8.091
 4409WAT      O13468   7.225   1.249   5.295
 4409WAT     H113469   7.165   1.220   5.221
 4409WAT     H213470   7.169   1.279   5.373
 4410WAT      O13471   1.183   0.924   2.720
 4410WAT     H113472   1.248   0.992   2.753
 4410WAT     H213473   1.095   0.967   2.701
 4411WAT      O13474   7.313   9.127   7.877
 4411WAT     H113475   7.298   9.081   7.789
 4411WAT     H213476   7.231   9.179   7.902
 4412WAT      O13477   5.560   0.744   2.202
 4412WAT     H113478   5.564   0.645   2.187
 4412WAT     H213479   5.620   0.768   2.278
 4413WAT      O13480   6.481   7.805   1.568
 4413WAT     H113481   6.497   7.813   1.469
 4413WAT     H213482   6.462   7.709   1.590
 4414WAT      O13483   3.094   8.582   3.938
 4414WAT     H113484   3.071   8.665   3.990
 4414WAT     H213485   3.179   8.596   3.887
 4415WAT      O13486   4.322   1.741   9.490
 4415WAT     H113487   4.305   1.725   9.393
 4415WAT     H213488   4.420   1.746   9.506
 4416WAT      O13489   1.509   3.594   8.139
 4416WAT     H113490   1.585   3.658   8.125
 4416WAT     H213491   1.505   3.528   8.064
 4417WAT      O13492   7.827   3.878   8.425
 4417WAT     H113493   7.902   3.879   8.359
 4417WAT     H213494   7.861   3.847   8.514
 4418WAT      O13495   9.472   8.395   6.693
 4418WAT     H113496   9.412   8.392   6.773
 4418WAT     H213497   9.478   8.304   6.652
 4419WAT      O13498   9.438   4.094   7.220
 4419WAT     H113499   9.456   4.105   7.122
 4419WAT     H213500   9.503   4.148   7.273
 4420WAT      O13501   2.857   0.673   9.292
 4420WAT     H113502   2.925   0.737   9.330
 4420WAT     H213503   2.834   0.701   9.199
 4421WAT      O13504   1.792   5.660   2.668
 4421WAT     H113505   1.820   5.698   2.756
 4421WAT     H213506   1.868   5.666   2.603
 4422WAT      O13507   6.573   3.884   5.154
 4422WAT     H113508   6.512   3.959   5.180
 4422WAT     H213509   6.615   3.905   5.065
 4423WAT      O13510   8.295   4.437   5.705
 4423WAT     H113511   8.222   4.446   5.773
 4423WAT     H213512   8.352   4.358   5.727
 4424WAT      O13513   5.493   3.668   4.593
 4424WAT     H113514   5.426   3.652   4.521
 4424WAT     H213515   5.585   3.657   4.556
 4425WAT      O13516   7.707   8.927   2.604
 4425WAT     H113517   7.672   8.892   2.692
 4425WAT     H213518   7.676   8.867   2.530
 4426WAT      O13519   9.601   3.354   6.271
 4426WAT     H113520   9.629   3.316   6.183
 4426WAT     H213521   9.672   3.417   6.303
 4427WAT      O13522   3.279   9.483   3.491
 4427WAT     H113523   3.282   9.538   3.407
 4427WAT     H213524   3.329   9.530   3.563
 4428WAT      O13525   9.637   8.982   4.153
 4428WAT     H113526   9.726   8.962   4.113
 4428WAT     H213527   9.605   9.071   4.121
 4429WAT      O13528   2.554   8.098   5.191
 4429WAT     H113529   2.460   8.127   5.171
 4429WAT     H213530   2.608   8.177   5.217
 4430WAT      O13531   7.225   1.747   0.614
 4430WAT     H113532   7.151   1.697   0.571
 4430WAT     H213533   7.214   1.745   0.713
 4431WAT      O13534   3.156   0.023   3.895
 4431WAT     H113535   3.154   0.123   3.897
 4431WAT     H213536   3.159  -0.012   3.989
 4432WAT      O13537   7.840   5.763   0.045
 4432WAT     H113538   7.874   5.684   0.095
 4432WAT     H213539   7.767   5.807   0.097
 4433WAT      O13540   4.061   8.060   0.033
 4433WAT     H113541   4.013   8.146   0.051
 4433WAT     H213542   4.000   7.984   0.053
 4434WAT      O13543   6.233   4.417   4.587
 4434WAT     H113544   6.194   4.454   4.671
 4434WAT     H213545   6.175   4.444   4.509
 4435WAT      O13546   1.101   9.173   8.092
 4435WAT     H113547   1.138   9.097   8.038
 4435WAT     H213548   1.023   9.213   8.045
 4436WAT      O13549   8.962   6.690   9.497
 4436WAT     H113550   8.907   6.761   9.452
 4436WAT     H213551   8.922   6.601   9.480
 4437WAT      O13552   5.620   2.554   6.394
 4437WAT     H113553   5.603   2.558   6.295
 4437WAT     H213554   5.606   2.460   6.426
 4438WAT      O13555   5.946   8.294   8.987
 4438WAT     H113556   5.882   8.225   9.020
 4438WAT     H213557   6.026   8.249   8.947
 4439WAT      O13558   6.469   1.564   9.704
 4439WAT     H113559   6.549   1.625   9.712
 4439WAT     H213560   6.490   1.491   9.639
 4440WAT      O13561   9.462   4.422   2.599
 4440WAT     H113562   9.457   4.462   2.690
 4440WAT     H213563   9.547   4.371   2.589
 4441WAT      O13564   5.511   1.332   5.645
 4441WAT     H113565   5.604   1.365   5.659
 4441WAT     H213566   5.505   1.286   5.556
 4442WAT      O13567   8.874   1.368   1.137
 4442WAT     H113568   8.797   1.391   1.079
 4442WAT     H213569   8.954   1.421   1.109
 4443WAT      O13570   9.215   5.548   2.105
 4443WAT     H113571   9.162   5.484   2.160
 4443WAT     H213572   9.277   5.600   2.165
 4444WAT      O13573   1.148   2.776   9.256
 4444WAT     H113574   1.195   2.859   9.286
 4444WAT     H213575   1.059   2.770   9.301
 4445WAT      O13576   7.559   2.570   3.073
 4445WAT     H113577   7.652   2.602   3.092
 4445WAT     H213578   7.504   2.577   3.156
 4446WAT      O13579   0.278   2.811   7.991
 4446WAT     H113580   0.223   2.895   7.995
 4446WAT     H213581   0.241   2.751   7.920
 4447WAT      O13582   5.973   9.728   8.468
 4447WAT     H113583   6.039   9.676   8.414
 4447WAT     H213584   5.881   9.693   8.453
 4448WAT      O13585   8.356   7.503   2.878
 4448WAT     H113586   8.353   7.448   2.962
 4448WAT     H213587   8.275   7.562   2.874
 4449WAT      O13588   6.554   5.891   4.698
 4449WAT     H113589   6.559   5.809   4.755
 4449WAT     H213590   6.634   5.949   4.715
 4450WAT      O13591   2.556   8.004   3.476
 4450WAT     H113592   2.642   8.038   3.514
 4450WAT     H213593   2.546   8.037   3.382
 4451WAT      O13594   0.627   7.774   6.835
 4451WAT     H113595   0.649   7.838   6.909
 4451WAT     H213596   0.618   7.682   6.872
 4452WAT      O13597   4.509   0.388   6.341
 4452WAT     H113598   4.566   0.375   6.423
 4452WAT     H213599   4.536   0.321   6.272
 4453WAT      O13600   8.874   8.115   3.476
 4453WAT     H113601   8.803   8.074   3.417
 4453WAT     H213602   8.887   8.211   3.450
 4454WAT      O13603   7.610   0.509   2.631
 4454WAT     H113604   7.617   0.560   2.717
 4454WAT     H213605   7.701   0.481   2.601
 4455WAT      O13606   7.172   2.101   4.649
 4455WAT     H113607   7.232   2.049   4.710
 4455WAT     H213608   7.097   2.141   4.701
 4456WAT      O13609   2.588   0.845   1.795
 4456WAT     H113610   2.630   0.833   1.705
 4456WAT     H213611   2.553   0.757   1.827
 4457WAT      O13612   7.921   6.948   9.524
 4457WAT     H113613   7.830   6.965   9.487
 4457WAT     H213614   7.986   7.014   9.485
 4458WAT      O13615   5.052   1.923   2.209
 4458WAT     H113616   5.006   1.870   2.137
 4458WAT     H213617   5.132   1.873   2.241
 4459WAT      O13618   7.663   3.956   5.453
 4459WAT     H113619   7.737   3.929   5.514
 4459WAT     H213620   7.692   3.948   5.358
 4460WAT      O13621   8.242   5.176   3.564
 4460WAT     H113622   8.326   5.176   3.510
 4460WAT     H213623   8.163   5.176   3.503
 4461WAT      O13624   0.193   2.869   7.328
 4461WAT     H113625   0.116   2.929   7.308
 4461WAT     H213626   0.259   2.916   7.387
 4462WAT      O13627   2.612   5.084   4.692
 4462WAT     H113628   2.612   4.993   4.652
 4462WAT     H213629   2.523   5.127   4.678
 4463WAT      O13630   1.376   7.920   4.304
 4463WAT     H113631   1.283   7.951   4.282
 4463WAT     H213632   1.374   7.823   4.327
 4464WAT      O13633   3.726   8.462   2.376
 4464WAT     H113634   3.692   8.453   2.469
 4464WAT     H213635   3.722   8.558   2.348
 4465WAT      O13636   3.442   4.288   9.185
 4465WAT     H113637   3.407   4.358   9.247
 4465WAT     H213638   3.429   4.197   9.226
 4466WAT      O13639   7.694   0.448   4.795
 4466WAT     H113640   7.629   0.423   4.866
 4466WAT     H213641   7.738   0.535   4.819
 4467WAT      O13642   2.326   5.418   3.431
 4467WAT     H113643   2.272   5.482   3.486
 4467WAT     H213644   2.408   5.463   3.398
 4468WAT      O13645   1.052   1.215   5.772
 4468WAT     H113646   1.108   1.133   5.753
 4468WAT     H213647   0.980   1.222   5.703
 4469WAT      O13648   3.213   9.218   1.210
 4469WAT     H113649   3.197   9.121   1.229
 4469WAT     H213650   3.140   9.253   1.151
 4470WAT      O13651   4.552   1.180   1.755
 4470WAT     H113652   4.573   1.189   1.852
 4470WAT     H213653   4.544   1.083   1.732
 4471WAT      O13654   5.801   2.779   5.405
 4471WAT     H113655   5.713   2.826   5.415
 4471WAT     H213656   5.865   2.814   5.473
 4472WAT      O13657   6.570   0.427   3.351
 4472WAT     H113658   6.493   0.401   3.410
 4472WAT     H213659   6.610   0.512   3.384
 4473WAT      O13660   3.023   1.211   6.351
 4473WAT     H113661   2.993   1.258   6.268
 4473WAT     H213662   3.044   1.116   6.330
 4474WAT      O13663   0.206   3.373   5.903
 4474WAT     H113664   0.191   3.416   5.992
 4474WAT     H213665   0.158   3.286   5.899
 4475WAT      O13666   6.072   0.462   0.373
 4475WAT     H113667   6.170   0.461   0.353
 4475WAT     H213668   6.026   0.395   0.315
 4476WAT      O13669   1.887   9.232   0.188
 4476WAT     H113670   1.828   9.275   0.257
 4476WAT     H213671   1.841   9.151   0.151
 4477WAT      O13672   3.797   9.076   9.661
 4477WAT     H113673   3.712   9.024   9.652
 4477WAT     H213674   3.861   9.025   9.719
 4478WAT      O13675   2.701   6.012   9.008
 4478WAT     H113676   2.712   5.971   9.098
 4478WAT     H213677   2.766   6.087   8.997
 4479WAT      O13678   5.645   1.438   3.583
 4479WAT     H113679   5.560   1.421   3.532
 4479WAT     H213680   5.659   1.365   3.649
 4480WAT      O13681   4.166   2.285   7.575
 4480WAT     H113682   4.146   2.316   7.481
 4480WAT     H213683   4.149   2.360   7.638
 4481WAT      O13684   9.824   9.839   0.254
 4481WAT     H113685   9.835   9.745   0.222
 4481WAT     H213686   9.758   9.840   0.329
 4482WAT      O13687   3.925   8.783   7.338
 4482WAT     H113688   3.841   8.779   7.283
 4482WAT     H213689   3.912   8.728   7.421
 4483WAT      O13690   8.901   4.800   7.641
 4483WAT     H113691   8.992   4.780   7.606
 4483WAT     H213692   8.872   4.891   7.611
 4484WAT      O13693   6.185   4.303   8.228
 4484WAT     H113694   6.236   4.348   8.302
 4484WAT     H213695   6.241   4.229   8.190
 4485WAT      O13696   7.223   5.502   6.219
 4485WAT     H113697   7.288   5.507   6.295
 4485WAT     H213698   7.193   5.408   6.207
 4486WAT      O13699   3.661   6.908   7.870
 4486WAT     H113700   3.746   6.859   7.886
 4486WAT     H213701   3.679   7.007   7.866
 4487WAT      O13702   3.056   3.135   2.595
 4487WAT     H113703   2.971   3.083   2.588
 4487WAT     H213704   3.121   3.085   2.651
 4488WAT      O13705   6.259   2.916   9.579
 4488WAT     H113706   6.285   2.857   9.502
 4488WAT     H213707   6.285   3.011   9.558
 4489WAT      O13708   9.041   1.628   2.049
 4489WAT     H113709   9.131   1.598   2.082
 4489WAT     H213710   8.970   1.574   2.095
 4490WAT      O13711   7.049   2.908   6.379
 4490WAT     H113712   7.087   2.827   6.332
 4490WAT     H213713   7.115   2.983   6.373
 4491WAT      O13714   5.744   5.988   6.422
 4491WAT     H113715   5.693   6.007   6.506
 4491WAT     H213716   5.764   6.074   6.374
 4492WAT      O13717   4.729   9.398   1.659
 4492WAT     H113718   4.811   9.452   1.642
 4492WAT     H213719   4.713   9.390   1.757
 4493WAT      O13720   3.900   6.190   8.834
 4493WAT     H113721   3.845   6.239   8.766
 4493WAT     H213722   3.840   6.144   8.899
 4494WAT      O13723   0.529   3.378   5.216
 4494WAT     H113724   0.506   3.331   5.301
 4494WAT     H213725   0.491   3.470   5.217
 4495WAT      O13726   3.407   1.164   9.776
 4495WAT     H113727   3.451   1.089   9.823
 4495WAT     H213728   3.309   1.164   9.797
 4496WAT      O13729   0.714   1.725   1.490
 4496WAT     H113730   0.777   1.669   1.436
 4496WAT     H213731   0.765   1.794   1.541
 4497WAT      O13732   6.334   9.251   8.395
 4497WAT     H113733   6.358   9.263   8.299
 4497WAT     H213734   6.350   9.156   8.422
 4498WAT      O13735   3.235   3.500   3.346
 4498WAT     H113736   3.202   3.419   3.298
 4498WAT     H213737   3.158   3.550   3.386
 4499WAT      O13738   8.575   0.158   7.578
 4499WAT     H113739   8.659   0.104   7.572
 4499WAT     H213740   8.561   0.206   7.492
 4500WAT      O13741   0.506   9.572   0.967
 4500WAT     H113742   0.502   9.557   1.066
 4500WAT     H213743   0.510   9.670   0.948
 4501WAT      O13744   3.454   1.160   6.695
 4501WAT     H113745   3.540   1.184   6.650
 4501WAT     H213746   3.380   1.213   6.654
 4502WAT      O13747   9.244   8.876   0.346
 4502WAT     H113748   9.233   8.777   0.345
 4502WAT     H213749   9.290   8.906   0.262
 4503WAT      O13750   3.009   1.043   7.046
 4503WAT     H113751   2.918   1.033   7.087
 4503WAT     H213752   3.017   0.981   6.968
 4504WAT      O13753   8.253   6.892   2.175
 4504WAT     H113754   8.167   6.843   2.192
 4504WAT     H213755   8.301   6.848   2.099
 4505WAT      O13756   8.965   8.589   3.699
 4505WAT     H113757   8.960   8.495   3.664
 4505WAT     H213758   9.019   8.589   3.784
 4506WAT      O13759   2.552   7.287   7.556
 4506WAT     H113760   2.648   7.264   7.568
 4506WAT     H213761   2.538   7.382   7.585
 4507WAT      O13762   7.784   0.468   8.903
 4507WAT     H113763   7.701   0.467   8.959
 4507WAT     H213764   7.798   0.378   8.863
 4508WAT      O13765   6.330   1.911   6.974
 4508WAT     H113766   6.364   1.984   7.034
 4508WAT     H213767   6.271   1.952   6.904
 4509WAT      O13768   6.059   9.132   4.491
 4509WAT     H113769   6.073   9.231   4.486
 4509WAT     H213770   6.137   9.090   4.539
 4510WAT      O13771   9.069   1.853   9.463
 4510WAT     H113772   9.091   1.791   9.388
 4510WAT     H213773   9.067   1.801   9.549
 4511WAT      O13774   8.126   0.112   5.565
 4511WAT     H113775   8.222   0.136   5.581
 4511WAT     H213776   8.076   0.118   5.652
 4512WAT      O13777   5.018   9.768   0.428
 4512WAT     H113778   5.100   9.807   0.470
 4512WAT     H213779   4.941   9.830   0.442
 4513WAT      O13780   5.234   9.649   8.587
 4513WAT     H113781   5.318   9.639   8.534
 4513WAT     H213782   5.229   9.578   8.657
 4514WAT      O13783   4.153   1.019   7.149
 4514WAT     H113784   4.088   1.071   7.095
 4514WAT     H213785   4.240   1.012   7.100
 4515WAT      O13786   5.713   1.881   0.201
 4515WAT     H113787   5.725   1.953   0.133
 4515WAT     H213788   5.616   1.860   0.211
 4516WAT      O13789   6.169   2.415   1.862
 4516WAT     H113790   6.236   2.455   1.925
 4516WAT     H213791   6.088   2.385   1.914
 4517WAT      O13792   7.050   9.824   2.948
 4517WAT     H113793   7.094   9.763   2.882
 4517WAT     H213794   7.012   9.903   2.900
 4518WAT      O13795   0.859   5.696   7.316
 4518WAT     H113796   0.871   5.795   7.314
 4518WAT     H213797   0.891   5.661   7.404
 4519WAT      O13798   2.761   4.366   1.231
 4519WAT     H113799   2.668   4.361   1.268
 4519WAT     H213800   2.826   4.377   1.306
 4520WAT      O13801   7.975   3.307   4.263
 4520WAT     H113802   7.969   3.366   4.343
 4520WAT     H213803   7.988   3.213   4.292
 4521WAT      O13804   8.979   9.148   4.343
 4521WAT     H113805   8.889   9.188   4.325
 4521WAT     H213806   9.049   9.219   4.340
 4522WAT      O13807   7.401   1.452   5.534
 4522WAT     H113808   7.329   1.516   5.560
 4522WAT     H213809   7.448   1.486   5.453
 4523WAT      O13810   2.579   0.152   9.236
 4523WAT     H113811   2.607   0.148   9.332
 4523WAT     H213812   2.635   0.089   9.183
 4524WAT      O13813   0.219   4.807   7.980
 4524WAT     H113814   0.165   4.731   7.945
 4524WAT     H213815   0.310   4.774   8.006
 4525WAT      O13816   2.274   3.596   9.318
 4525WAT     H113817   2.360   3.562   9.358
 4525WAT     H213818   2.292   3.633   9.227
 4526WAT      O13819   1.037   9.660   2.199
 4526WAT     H113820   0.985   9.643   2.115
 4526WAT     H213821   1.060   9.757   2.206
 4527WAT      O13822   3.974   2.485   2.087
 4527WAT     H113823   3.977   2.515   1.992
 4527WAT     H213824   3.930   2.556   2.143
 4528WAT      O13825   7.915   7.940   2.551
 4528WAT     H113826   7.842   7.947   2.619
 4528WAT     H213827   7.909   7.852   2.504
 4529WAT      O13828   8.825   5.490   4.812
 4529WAT     H113829   8.788   5.443   4.892
 4529WAT     H213830   8.822   5.589   4.827
 4530WAT      O13831   7.324   6.714   1.769
 4530WAT     H113832   7.251   6.722   1.701
 4530WAT     H213833   7.325   6.621   1.806
 4531WAT      O13834   0.751   6.501   5.547
 4531WAT     H113835   0.843   6.536   5.527
 4531WAT     H213836   0.683   6.555   5.499
 4532WAT      O13837   8.868   2.781   0.882
 4532WAT     H113838   8.916   2.786   0.970
 4532WAT     H213839   8.780   2.736   0.894
 4533WAT      O13840   7.278   1.035   2.154
 4533WAT     H113841   7.254   1.125   2.117
 4533WAT     H213842   7.251   0.965   2.088
 4534WAT      O13843   3.976   2.931   8.602
 4534WAT     H113844   4.074   2.922   8.621
 4534WAT     H213845   3.934   2.991   8.670
 4535WAT      O13846   0.054   5.553   4.719
 4535WAT     H113847  -0.010   5.596   4.783
 4535WAT     H213848   0.135   5.610   4.709
 4536WAT      O13849   0.672   2.887   0.664
 4536WAT     H113850   0.637   2.887   0.758
 4536WAT     H213851   0.683   2.981   0.633
 4537WAT      O13852   9.733   4.650   9.361
 4537WAT     H113853   9.634   4.648   9.350
 4537WAT     H213854   9.770   4.734   9.321
 4538WAT      O13855   2.178   7.679   7.175
 4538WAT     H113856   2.247   7.612   7.204
 4538WAT     H213857   2.111   7.691   7.248
 4539WAT      O13858   0.530   4.012   2.864
 4539WAT     H113859   0.507   4.078   2.935
 4539WAT     H213860   0.448   3.961   2.837
 4540WAT      O13861   4.394   9.824   3.060
 4540WAT     H113862   4.388   9.918   3.094
 4540WAT     H213863   4.458   9.772   3.117
 4541WAT      O13864   8.077   5.520   1.783
 4541WAT     H113865   8.131   5.596   1.817
 4541WAT     H213866   8.074   5.523   1.683
 4542WAT      O13867   0.417   9.619   7.203
 4542WAT     H113868   0.346   9.643   7.137
 4542WAT     H213869   0.384   9.543   7.261
 4543WAT      O13870   5.657   0.163   2.051
 4543WAT     H113871   5.640   0.245   2.105
 4543WAT     H213872   5.658   0.083   2.110
 4544WAT      O13873   7.977   9.031   1.943
 4544WAT     H113874   7.931   9.048   1.856
 4544WAT     H213875   8.026   8.945   1.939
 4545WAT      O13876   3.233   3.153   5.983
 4545WAT     H113877   3.195   3.073   6.031
 4545WAT     H213878   3.198   3.236   6.027
 4546WAT      O13879   3.182   9.678   5.660
 4546WAT     H113880   3.254   9.735   5.621
 4546WAT     H213881   3.185   9.684   5.759
 4547WAT      O13882   0.641   6.631   3.176
 4547WAT     H113883   0.550   6.672   3.178
 4547WAT     H213884   0.699   6.683   3.113
 4548WAT      O13885   3.924   8.744   0.065
 4548WAT     H113886   4.018   8.740   0.097
 4548WAT     H213887   3.914   8.820   0.001
 4549WAT      O13888   1.148   7.093   6.196
 4549WAT     H113889   1.056   7.130   6.199
 4549WAT     H213890   1.145   6.993   6.208
 4550WAT      O13891   4.223   5.233   8.424
 4550WAT     H113892   4.145   5.217   8.483
 4550WAT     H213893   4.300   5.268   8.478
 4551WAT      O13894   2.285   8.723   7.809
 4551WAT     H113895   2.298   8.643   7.867
 4551WAT     H213896   2.339   8.712   7.725
 4552WAT      O13897   9.480   5.618   0.007
 4552WAT     H113898   9.561   5.668   0.038
 4552WAT     H213899   9.492   5.592  -0.089
 4553WAT      O13900   0.031   8.040   9.258
 4553WAT     H113901  -0.046   8.031   9.195
 4553WAT     H213902   0.034   8.133   9.293
 4554WAT      O13903   6.826   4.425   8.469
 4554WAT     H113904   6.834   4.356   8.541
 4554WAT     H213905   6.768   4.390   8.395
 4555WAT      O13906   1.013   3.942   6.948
 4555WAT     H113907   0.979   3.873   7.012
 4555WAT     H213908   0.947   3.954   6.873
 4556WAT      O13909   9.092   2.961   3.363
 4556WAT     H113910   9.158   3.009   3.421
 4556WAT     H213911   9.125   2.961   3.268
 4557WAT      O13912   3.029   5.078   2.621
 4557WAT     H113913   3.113   5.031   2.593
 4557WAT     H213914   2.955   5.011   2.628
 4558WAT      O13915   4.353   9.190   8.696
 4558WAT     H113916   4.334   9.151   8.606
 4558WAT     H213917   4.326   9.287   8.696
 4559WAT      O13918   4.828   7.509   3.399
 4559WAT     H113919   4.883   7.510   3.316
 4559WAT     H213920   4.879   7.463   3.472
 4560WAT      O13921   9.727   8.051   9.082
 4560WAT     H113922   9.773   8.122   9.028
 4560WAT     H213923   9.638   8.030   9.041
 4561WAT      O13924   4.962   3.827   0.090
 4561WAT     H113925   4.992   3.839  -0.005
 4561WAT     H213926   4.872   3.870   0.102
 4562WAT      O13927   0.284   7.889   6.606
 4562WAT     H113928   0.249   7.831   6.680
 4562WAT     H213929   0.382   7.870   6.593
 4563WAT      O13930   0.402   9.128   0.398
 4563WAT     H113931   0.427   9.034   0.374
 4563WAT     H213932   0.478   9.189   0.375
 4564WAT      O13933   8.803   1.382   3.414
 4564WAT     H113934   8.706   1.407   3.405
 4564WAT     H213935   8.825   1.367   3.510
 4565WAT      O13936   2.924   3.960   9.740
 4565WAT     H113937   2.851   3.989   9.679
 4565WAT     H213938   2.894   3.883   9.795
 4566WAT      O13939   6.045   8.885   2.737
 4566WAT     H113940   6.065   8.895   2.640
 4566WAT     H213941   6.131   8.888   2.789
 4567WAT      O13942   6.279   3.989   3.705
 4567WAT     H113943   6.249   3.894   3.702
 4567WAT     H213944   6.304   4.014   3.798
 4568WAT      O13945   6.504   2.887   4.383
 4568WAT     H113946   6.425   2.833   4.413
 4568WAT     H213947   6.474   2.958   4.320
 4569WAT      O13948   7.841   3.995   0.802
 4569WAT     H113949   7.876   3.909   0.841
 4569WAT     H213950   7.909   4.067   0.814
 4570WAT      O13951   8.449   5.352   8.215
 4570WAT     H113952   8.398   5.283   8.163
 4570WAT     H213953   8.389   5.392   8.285
 4571WAT      O13954   5.463   5.455   3.222
 4571WAT     H113955   5.470   5.358   3.199
 4571WAT     H213956   5.481   5.467   3.319
 4572WAT      O13957   7.008   7.353   7.599
 4572WAT     H113958   7.064   7.338   7.517
 4572WAT     H213959   6.989   7.265   7.643
 4573WAT      O13960   0.919   1.519   2.168
 4573WAT     H113961   0.998   1.580   2.168
 4573WAT     H213962   0.910   1.476   2.078
 4574WAT      O13963   2.825   7.124   5.990
 4574WAT     H113964   2.816   7.217   6.025
 4574WAT     H213965   2.760   7.110   5.915
 4575WAT      O13966   5.057   1.663   2.733
 4575WAT     H113967   5.014   1.574   2.750
 4575WAT     H213968   5.156   1.656   2.749
 4576WAT      O13969   4.079   3.480   5.257
 4576WAT     H113970   4.011   3.518   5.319
 4576WAT     H213971   4.040   3.470   5.165
 4577WAT      O13972   2.264   0.358   0.158
 4577WAT     H113973   2.293   0.363   0.062
 4577WAT     H213974   2.200   0.283   0.170
 4578WAT      O13975   5.621   1.944   5.590
 4578WAT     H113976   5.629   1.850   5.557
 4578WAT     H213977   5.704   1.970   5.639
 4579WAT      O13978   1.226   5.511   6.963
 4579WAT     H113979   1.278   5.522   6.878
 4579WAT     H213980   1.141   5.462   6.944
 4580WAT      O13981   9.037   2.554   2.159
 4580WAT     H113982   9.078   2.530   2.071
 4580WAT     H213983   9.072   2.643   2.189
 4581WAT      O13984   6.126   8.054   0.191
 4581WAT     H113985   6.082   7.971   0.156
 4581WAT     H213986   6.218   8.062   0.152
 4582WAT      O13987   2.932   1.204   0.963
 4582WAT     H113988   2.914   1.201   1.062
 4582WAT     H213989   3.016   1.256   0.947
 4583WAT      O13990   4.714   9.598   7.350
 4583WAT     H113991   4.699   9.540   7.269
 4583WAT     H213992   4.808   9.632   7.349
 4584WAT      O13993   8.453   4.465   3.158
 4584WAT     H113994   8.537   4.518   3.168
 4584WAT     H213995   8.374   4.522   3.182
 4585WAT      O13996   6.331   1.022   5.790
 4585WAT     H113997   6.358   1.095   5.853
 4585WAT     H213998   6.231   1.012   5.792
 4586WAT      O13999   6.305   5.202   3.080
 4586WAT     H114000   6.209   5.211   3.054
 4586WAT     H214001   6.330   5.106   3.083
 4587WAT      O14002   2.467   4.181   6.472
 4587WAT     H114003   2.545   4.184   6.535
 4587WAT     H214004   2.413   4.098   6.489
 4588WAT      O14005   4.709   3.892   0.114
 4588WAT     H114006   4.687   3.872   0.209
 4588WAT     H214007   4.700   3.808   0.059
 4589WAT      O14008   2.063   7.840   7.744
 4589WAT     H114009   1.996   7.888   7.800
 4589WAT     H214010   2.017   7.794   7.669
 4590WAT      O14011   8.612   4.638   5.067
 4590WAT     H114012   8.688   4.698   5.043
 4590WAT     H214013   8.587   4.652   5.163
 4591WAT      O14014   3.848   2.120   6.471
 4591WAT     H114015   3.764   2.172   6.488
 4591WAT     H214016   3.905   2.171   6.407
 4592WAT      O14017   0.236   2.390   9.112
 4592WAT     H114018   0.259   2.480   9.076
 4592WAT     H214019   0.179   2.341   9.046
 4593WAT      O14020   7.394   6.716   4.024
 4593WAT     H114021   7.320   6.668   3.977
 4593WAT     H214022   7.382   6.708   4.123
 4594WAT      O14023   5.013   8.542   3.234
 4594WAT     H114024   5.060   8.522   3.149
 4594WAT     H214025   4.924   8.583   3.214
 4595WAT      O14026   7.384   2.822   1.482
 4595WAT     H114027   7.288   2.831   1.509
 4595WAT     H214028   7.418   2.732   1.509
 4596WAT      O14029   5.106   1.985   4.056
 4596WAT     H114030   5.014   1.988   4.017
 4596WAT     H214031   5.102   2.009   4.153
 4597WAT      O14032   7.354   8.860   9.507
 4597WAT     H114033   7.428   8.896   9.563
 4597WAT     H214034   7.376   8.766   9.480
 4598WAT      O14035   5.441   1.895   6.125
 4598WAT     H114036   5.446   1.995   6.126
 4598WAT     H214037   5.348   1.865   6.106
 4599WAT      O14038   8.873   3.227   4.902
 4599WAT     H114039   8.782   3.244   4.864
 4599WAT     H214040   8.914   3.149   4.855
 4600WAT      O14041   8.013   3.598   9.625
 4600WAT     H114042   8.003   3.561   9.717
 4600WAT     H214043   8.002   3.697   9.628
 4601WAT      O14044   6.399   8.227   3.235
 4601WAT     H114045   6.378   8.324   3.223
 4601WAT     H214046   6.477   8.203   3.177
 4602WAT      O14047   8.595   6.275   7.472
 4602WAT     H114048   8.691   6.300   7.469
 4602WAT     H214049   8.566   6.244   7.381
 4603WAT      O14050   8.288   9.726   6.696
 4603WAT     H114051   8.320   9.656   6.632
 4603WAT     H214052   8.188   9.720   6.705
 4604WAT      O14053   1.747   0.845   6.385
 4604WAT     H114054   1.678   0.860   6.456
 4604WAT     H214055   1.771   0.933   6.343
 4605WAT      O14056   7.956   2.153   9.009
 4605WAT     H114057   7.858   2.173   9.007
 4605WAT     H214058   7.982   2.105   8.925
 4606WAT      O14059   4.474   8.801   3.404
 4606WAT     H114060   4.408   8.875   3.419
 4606WAT     H214061   4.439   8.741   3.332
 4607WAT      O14062   2.890   1.629   2.090
 4607WAT     H114063   2.976   1.584   2.065
 4607WAT     H214064   2.904   1.685   2.171
 4608WAT      O14065   4.788   2.132   9.832
 4608WAT     H114066   4.833   2.217   9.858
 4608WAT     H214067   4.746   2.143   9.742
 4609WAT      O14068   5.806   2.434   5.678
 4609WAT     H114069   5.797   2.418   5.580
 4609WAT     H214070   5.843   2.526   5.694
 4610WAT      O14071   1.531   3.826   7.764
 4610WAT     H114072   1.493   3.735   7.783
 4610WAT     H214073   1.623   3.832   7.804
 4611WAT      O14074   9.261   9.744   8.982
 4611WAT     H114075   9.283   9.682   8.907
 4611WAT     H214076   9.199   9.699   9.046
 4612WAT      O14077   4.653   9.374   2.639
 4612WAT     H114078   4.607   9.460   2.614
 4612WAT     H214079   4.619   9.343   2.727
 4613WAT      O14080   8.058   1.622   8.953
 4613WAT     H114081   8.137   1.630   8.892
 4613WAT     H214082   8.072   1.680   9.033
 4614WAT      O14083   4.568   1.046   4.426
 4614WAT     H114084   4.469   1.041   4.418
 4614WAT     H214085   4.595   1.025   4.520
 4615WAT      O14086   3.279   2.862   1.597
 4615WAT     H114087   3.288   2.762   1.602
 4615WAT     H214088   3.210   2.892   1.663
 4616WAT      O14089   5.716   0.076   4.821
 4616WAT     H114090   5.693   0.111   4.730
 4616WAT     H214091   5.634   0.042   4.866
 4617WAT      O14092   3.701   5.947   8.538
 4617WAT     H114093   3.685   5.856   8.500
 4617WAT     H214094   3.784   5.945   8.595
 4618WAT      O14095   1.955   3.671   1.514
 4618WAT     H114096   2.001   3.759   1.520
 4618WAT     H214097   1.962   3.624   1.602
 4619WAT      O14098   4.077   5.915   2.941
 4619WAT     H114099   4.173   5.936   2.961
 4619WAT     H214100   4.054   5.827   2.984
 4620WAT      O14101   5.398   0.985   8.510
 4620WAT     H114102   5.481   1.037   8.491
 4620WAT     H214103   5.417   0.914   8.578
 4621WAT      O14104   9.228   7.195   1.527
 4621WAT     H114105   9.268   7.109   1.494
 4621WAT     H214106   9.138   7.176   1.567
 4622WAT      O14107   4.003   8.851   5.731
 4622WAT     H114108   4.026   8.930   5.788
 4622WAT     H214109   4.084   8.821   5.682
 4623WAT      O14110   0.436   8.844   7.528
 4623WAT     H114111   0.418   8.918   7.463
 4623WAT     H214112   0.387   8.862   7.613
 4624WAT      O14113   8.482   0.126   6.406
 4624WAT     H114114   8.544   0.198   6.373
 4624WAT     H214115   8.436   0.084   6.328
 4625WAT      O14116   8.741   9.112   6.287
 4625WAT     H114117   8.664   9.107   6.223
 4625WAT     H214118   8.714   9.166   6.367
 4626WAT      O14119   4.569   1.562   4.043
 4626WAT     H114120   4.662   1.599   4.036
 4626WAT     H214121   4.573   1.467   4.074
 4627WAT      O14122   5.921   6.716   0.719
 4627WAT     H114123   6.009   6.735   0.762
 4627WAT     H214124   5.866   6.658   0.779
 4628WAT      O14125   0.547   6.233   8.703
 4628WAT     H114126   0.492   6.275   8.775
 4628WAT     H214127   0.543   6.289   8.620
 4629WAT      O14128   8.753   6.791   2.280
 4629WAT     H114129   8.692   6.843   2.340
 4629WAT     H214130   8.789   6.712   2.329
 4630WAT      O14131   2.993   5.386   0.064
 4630WAT     H114132   3.013   5.328  -0.015
 4630WAT     H214133   3.013   5.481   0.041
 4631WAT      O14134   7.823   3.347   2.091
 4631WAT     H114135   7.918   3.363   2.065
 4631WAT     H214136   7.783   3.432   2.124
 4632WAT      O14137   3.652   4.638   2.732
 4632WAT     H114138   3.619   4.581   2.657
 4632WAT     H214139   3.715   4.707   2.696
 4633WAT      O14140   4.827   9.029   5.552
 4633WAT     H114141   4.738   9.016   5.595
 4633WAT     H214142   4.892   9.065   5.620
 4634WAT      O14143   4.588   6.461   8.866
 4634WAT     H114144   4.561   6.384   8.808
 4634WAT     H214145   4.622   6.427   8.954
 4635WAT      O14146   1.562   6.023   6.861
 4635WAT     H114147   1.520   6.075   6.936
 4635WAT     H214148   1.625   5.956   6.898
 4636WAT      O14149   5.751   1.415   3.953
 4636WAT     H114150   5.739   1.349   3.878
 4636WAT     H214151   5.666   1.424   4.004
 4637WAT      O14152   7.823   3.641   2.434
 4637WAT     H114153   7.871   3.722   2.466
 4637WAT     H214154   7.859   3.560   2.480
 4638WAT      O14155   2.271   7.432   6.968
 4638WAT     H114156   2.335   7.449   7.043
 4638WAT     H214157   2.301   7.484   6.887
 4639WAT      O14158   8.403   5.567   1.065
 4639WAT     H114159   8.438   5.583   0.973
 4639WAT     H214160   8.358   5.478   1.069
 4640WAT      O14161   3.168   3.645   6.028
 4640WAT     H114162   3.240   3.712   6.012
 4640WAT     H214163   3.084   3.691   6.057
 4641WAT      O14164   4.207   5.370   3.856
 4641WAT     H114165   4.268   5.388   3.779
 4641WAT     H214166   4.202   5.271   3.871
 4642WAT      O14167   4.547   0.667   0.786
 4642WAT     H114168   4.454   0.653   0.753
 4642WAT     H214169   4.557   0.626   0.877
 4643WAT      O14170   3.667   3.210   8.814
 4643WAT     H114171   3.693   3.220   8.718
 4643WAT     H214172   3.568   3.195   8.821
 4644WAT      O14173   3.303   4.294   5.112
 4644WAT     H114174   3.210   4.261   5.128
 4644WAT     H214175   3.311   4.389   5.143
 4645WAT      O14176   1.087   7.109   8.282
 4645WAT     H114177   1.011   7.170   8.305
 4645WAT     H214178   1.071   7.020   8.324
 4646WAT      O14179   1.107   7.448   6.546
 4646WAT     H114180   1.087   7.453   6.448
 4646WAT     H214181   1.205   7.448   6.561
 4647WAT      O14182   7.990   3.834   6.473
 4647WAT     H114183   7.938   3.906   6.518
 4647WAT     H214184   8.025   3.771   6.542
 4648WAT      O14185   3.809   5.516   7.761
 4648WAT     H114186   3.815   5.589   7.692
 4648WAT     H214187   3.861   5.437   7.729
 4649WAT      O14188   4.312   6.641   1.545
 4649WAT     H114189   4.215   6.622   1.533
 4649WAT     H214190   4.350   6.578   1.613
 4650WAT      O14191   9.032   7.601   4.805
 4650WAT     H114192   9.029   7.621   4.707
 4650WAT     H214193   9.123   7.622   4.841
 4651WAT      O14194   7.513   7.145   0.013
 4651WAT     H114195   7.527   7.074   0.082
 4651WAT     H214196   7.563   7.228   0.040
 4652WAT      O14197   3.166   9.270   3.609
 4652WAT     H114198   3.205   9.350   3.563
 4652WAT     H214199   3.120   9.212   3.541
 4653WAT      O14200   2.742   7.323   4.765
 4653WAT     H114201   2.782   7.234   4.788
 4653WAT     H214202   2.675   7.311   4.692
 4654WAT      O14203   7.841   7.247   7.051
 4654WAT     H114204   7.823   7.184   6.976
 4654WAT     H214205   7.805   7.209   7.136
 4655WAT      O14206   4.538   8.594   8.333
 4655WAT     H114207   4.549   8.499   8.302
 4655WAT     H214208   4.457   8.634   8.288
 4656WAT      O14209   0.742   8.862   4.805
 4656WAT     H114210   0.769   8.833   4.897
 4656WAT     H214211   0.691   8.948   4.811
 4657WAT      O14212   3.164   1.537   2.065
 4657WAT     H114213   3.135   1.470   2.133
 4657WAT     H214214   3.171   1.493   1.975
 4658WAT      O14215   6.827   1.333   9.119
 4658WAT     H114216   6.845   1.357   9.214
 4658WAT     H214217   6.733   1.300   9.110
 4659WAT      O14218   3.092   8.217   4.934
 4659WAT     H114219   3.095   8.121   4.907
 4659WAT     H214220   3.128   8.227   5.027
 4660WAT      O14221   7.263   2.074   0.091
 4660WAT     H114222   7.330   2.106   0.025
 4660WAT     H214223   7.267   2.131   0.173
 4661WAT      O14224   8.663   3.960   4.320
 4661WAT     H114225   8.748   3.909   4.303
 4661WAT     H214226   8.657   3.983   4.417
 4662WAT      O14227   4.304   5.076   2.542
 4662WAT     H114228   4.392   5.033   2.523
 4662WAT     H214229   4.316   5.175   2.548
 4663WAT      O14230   1.875   0.973   5.051
 4663WAT     H114231   1.944   0.901   5.054
 4663WAT     H214232   1.868   1.016   5.141
 4664WAT      O14233   1.223   6.805   7.513
 4664WAT     H114234   1.145   6.866   7.499
 4664WAT     H214235   1.306   6.847   7.474
 4665WAT      O14236   1.500   6.826   1.948
 4665WAT     H114237   1.410   6.786   1.962
 4665WAT     H214238   1.490   6.924   1.930
 4666WAT      O14239   8.266   5.789   2.956
 4666WAT     H114240   8.273   5.826   2.863
 4666WAT     H214241   8.279   5.863   3.022
 4667WAT      O14242   6.738   7.274   5.416
 4667WAT     H114243   6.795   7.200   5.452
 4667WAT     H214244   6.693   7.322   5.491
 4668WAT      O14245   9.196   8.885   1.248
 4668WAT     H114246   9.262   8.880   1.324
 4668WAT     H214247   9.128   8.956   1.268
 4669WAT      O14248   5.173   5.709   0.852
 4669WAT     H114249   5.106   5.734   0.922
 4669WAT     H214250   5.260   5.756   0.872
 4670WAT      O14251   2.742   1.455   4.162
 4670WAT     H114252   2.826   1.510   4.167
 4670WAT     H214253   2.736   1.395   4.242
 4671WAT      O14254   0.862   8.534   2.478
 4671WAT     H114255   0.887   8.502   2.387
 4671WAT     H214256   0.852   8.456   2.540
 4672WAT      O14257   7.398   2.001   1.948
 4672WAT     H114258   7.434   1.959   2.031
 4672WAT     H214259   7.441   1.958   1.868
 4673WAT      O14260   1.592   8.037   0.424
 4673WAT     H114261   1.605   7.955   0.368
 4673WAT     H214262   1.612   8.015   0.519
 4674WAT      O14263   7.379   7.361   3.402
 4674WAT     H114264   7.328   7.445   3.382
 4674WAT     H214265   7.469   7.384   3.440
 4675WAT      O14266   6.521   3.758   7.852
 4675WAT     H114267   6.456   3.770   7.777
 4675WAT     H214268   6.608   3.726   7.815
 4676WAT      O14269   3.775   7.624   7.567
 4676WAT     H114270   3.714   7.632   7.645
 4676WAT     H214271   3.732   7.665   7.487
 4677WAT      O14272   1.764   4.445   7.987
 4677WAT     H114273   1.850   4.495   7.978
 4677WAT     H214274   1.709   4.486   8.059
 4678WAT      O14275   6.887   6.462   8.142
 4678WAT     H114276   6.854   6.435   8.052
 4678WAT     H214277   6.986   6.447   8.147
 4679WAT      O14278   6.530   6.429   1.294
 4679WAT     H114279   6.620   6.467   1.318
 4679WAT     H214280   6.471   6.430   1.375
 4680WAT      O14281   2.883   3.046   5.692
 4680WAT     H114282   2.974   3.083   5.712
 4680WAT     H214283   2.827   3.051   5.775
 4681WAT      O14284   9.824   7.471   0.067
 4681WAT     H114285   9.809   7.515  -0.021
 4681WAT     H214286   9.836   7.373   0.054
 4682WAT      O14287   7.069   2.243   7.991
 4682WAT     H114288   7.155   2.287   8.019
 4682WAT     H214289   7.001   2.313   7.971
 4683WAT      O14290   3.665   5.260   8.982
 4683WAT     H114291   3.706   5.170   8.984
 4683WAT     H214292   3.591   5.265   9.049
 4684WAT      O14293   2.064   5.253   1.045
 4684WAT     H114294   1.964   5.252   1.052
 4684WAT     H214295   2.090   5.247   0.949
 4685WAT      O14296   7.397   0.558   7.463
 4685WAT     H114297   7.379   0.560   7.365
 4685WAT     H214298   7.373   0.647   7.503
 4686WAT      O14299   4.077   6.483   7.810
 4686WAT     H114300   4.172   6.502   7.837
 4686WAT     H214301   4.028   6.570   7.798
 4687WAT      O14302   4.846   2.757   6.915
 4687WAT     H114303   4.930   2.762   6.862
 4687WAT     H214304   4.840   2.837   6.975
 4688WAT      O14305   6.769   2.635   2.148
 4688WAT     H114306   6.847   2.574   2.162
 4688WAT     H214307   6.779   2.715   2.208
 4689WAT      O14308   5.029   0.088   6.626
 4689WAT     H114309   4.980   0.043   6.701
 4689WAT     H214310   5.088   0.159   6.663
 4690WAT      O14311   6.420   9.011   8.493
 4690WAT     H114312   6.511   8.981   8.524
 4690WAT     H214313   6.352   8.989   8.562
 4691WAT      O14314   1.446   4.665   2.216
 4691WAT     H114315   1.354   4.627   2.210
 4691WAT     H214316   1.513   4.593   2.198
 4692WAT      O14317   9.732   7.807   8.767
 4692WAT     H114318   9.678   7.775   8.845
 4692WAT     H214319   9.714   7.748   8.688
 4693WAT      O14320   5.083   2.571   0.231
 4693WAT     H114321   4.988   2.594   0.249
 4693WAT     H214322   5.139   2.653   0.236
 4694WAT      O14323   9.285   8.737   5.862
 4694WAT     H114324   9.357   8.803   5.880
 4694WAT     H214325   9.285   8.712   5.765
 4695WAT      O14326   0.304   6.630   8.048
 4695WAT     H114327   0.379   6.611   7.984
 4695WAT     H214328   0.217   6.621   8.000
 4696WAT      O14329   8.831   6.878   4.113
 4696WAT     H114330   8.895   6.944   4.072
 4696WAT     H214331   8.863   6.785   4.094
 4697WAT      O14332   6.749   6.386   2.844
 4697WAT     H114333   6.723   6.482   2.827
 4697WAT     H214334   6.676   6.340   2.893
 4698WAT      O14335   0.017   6.747   2.581
 4698WAT     H114336   0.096   6.709   2.630
 4698WAT     H214337   0.046   6.781   2.492
 4699WAT      O14338   1.571   3.274   5.343
 4699WAT     H114339   1.580   3.339   5.268
 4699WAT     H214340   1.613   3.187   5.317
 4700WAT      O14341   2.519   4.747   2.720
 4700WAT     H114342   2.489   4.839   2.694
 4700WAT     H214343   2.538   4.694   2.637
 4701WAT      O14344   5.943   0.295   0.580
 4701WAT     H114345   6.000   0.357   0.526
 4701WAT     H214346   5.876   0.250   0.522
 4702WAT      O14347   7.367   7.191   2.131
 4702WAT     H114348   7.381   7.275   2.184
 4702WAT     H214349   7.330   7.120   2.190
 4703WAT      O14350   8.574   6.471   9.148
 4703WAT     H114351   8.524   6.404   9.093
 4703WAT     H214352   8.516   6.501   9.224
 4704WAT      O14353   1.200   9.604   6.066
 4704WAT     H114354   1.275   9.665   6.094
 4704WAT     H214355   1.120   9.621   6.124
 4705WAT      O14356   0.521   8.139   3.767
 4705WAT     H114357   0.601   8.101   3.722
 4705WAT     H214358   0.494   8.223   3.720
 4706WAT      O14359   1.074   9.091   4.591
 4706WAT     H114360   1.153   9.113   4.535
 4706WAT     H214361   1.079   9.142   4.677
 4707WAT      O14362   1.571   9.675   2.025
 4707WAT     H114363   1.617   9.620   2.094
 4707WAT     H214364   1.595   9.640   1.934
 4708WAT      O14365   0.637   1.686   9.619
 4708WAT     H114366   0.574   1.608   9.615
 4708WAT     H214367   0.585   1.769   9.640
 4709WAT      O14368   9.873   7.288   2.802
 4709WAT     H114369   9.819   7.369   2.825
 4709WAT     H214370   9.964   7.316   2.772
 4710WAT      O14371   8.056   9.311   3.080
 4710WAT     H114372   8.131   9.293   3.017
 4710WAT     H214373   8.091   9.359   3.161
 4711WAT      O14374   7.201   9.084   9.624
 4711WAT     H114375   7.253   9.009   9.583
 4711WAT     H214376   7.249   9.170   9.609
 4712WAT      O14377   7.112   6.333   9.273
 4712WAT     H114378   7.053   6.260   9.308
 4712WAT     H214379   7.108   6.335   9.173
 4713WAT      O14380   2.731   0.725   8.169
 4713WAT     H114381   2.665   0.712   8.095
 4713WAT     H214382   2.687   0.769   8.247
 4714WAT      O14383   1.308   1.862   4.430
 4714WAT     H114384   1.280   1.914   4.511
 4714WAT     H214385   1.278   1.767   4.439
 4715WAT      O14386   6.394   2.534   1.991
 4715WAT     H114387   6.422   2.529   2.087
 4715WAT     H214388   6.390   2.629   1.963
 4716WAT      O14389   9.461   1.162   5.462
 4716WAT     H114390   9.508   1.225   5.400
 4716WAT     H214391   9.413   1.215   5.533
 4717WAT      O14392   7.086   7.801   0.934
 4717WAT     H114393   7.180   7.834   0.939
 4717WAT     H214394   7.037   7.848   0.860
 4718WAT      O14395   0.480   3.253   1.677
 4718WAT     H114396   0.443   3.302   1.598
 4718WAT     H214397   0.580   3.249   1.669
 4719WAT      O14398   8.180   6.116   6.866
 4719WAT     H114399   8.242   6.180   6.821
 4719WAT     H214400   8.087   6.133   6.836
 4720WAT      O14401   7.456   4.684   4.970
 4720WAT     H114402   7.375   4.656   4.918
 4720WAT     H214403   7.505   4.602   5.001
 4721WAT      O14404   5.423   8.193   1.871
 4721WAT     H114405   5.420   8.173   1.773
 4721WAT     H214406   5.381   8.119   1.922
 4722WAT      O14407   6.124   9.254   7.100
 4722WAT     H114408   6.211   9.290   7.066
 4722WAT     H214409   6.077   9.326   7.153
 4723WAT      O14410   9.620   2.659   6.270
 4723WAT     H114411   9.706   2.611   6.286
 4723WAT     H214412   9.639   2.752   6.238
 4724WAT      O14413   4.964   5.536   0.192
 4724WAT     H114414   5.032   5.545   0.265
 4724WAT     H214415   4.881   5.587   0.217
 4725WAT      O14416   4.315   9.709   7.710
 4725WAT     H114417   4.300   9.807   7.726
 4725WAT     H214418   4.411   9.693   7.687
 4726WAT      O14419   2.321   9.710   1.892
 4726WAT     H114420   2.258   9.663   1.831
 4726WAT     H214421   2.351   9.795   1.850
 4727WAT      O14422   4.832   0.345   5.717
 4727WAT     H114423   4.789   0.426   5.678
 4727WAT     H214424   4.839   0.356   5.816
 4728WAT      O14425   6.509   1.429   0.477
 4728WAT     H114426   6.465   1.359   0.533
 4728WAT     H214427   6.439   1.488   0.436
 4729WAT      O14428   0.323   1.861   4.248
 4729WAT     H114429   0.355   1.831   4.338
 4729WAT     H214430   0.237   1.816   4.227
 4730WAT      O14431   8.647   2.064   8.869
 4730WAT     H114432   8.552   2.094   8.870
 4730WAT     H214433   8.655   1.979   8.920
 4731WAT      O14434   8.079   6.151   2.065
 4731WAT     H114435   7.993   6.179   2.024
 4731WAT     H214436   8.073   6.158   2.164
 4732WAT      O14437   2.031   1.874   5.973
 4732WAT     H114438   1.965   1.949   5.976
 4732WAT     H214439   2.101   1.894   5.904
 4733WAT      O14440   5.790   6.074   1.425
 4733WAT     H114441   5.753   5.981   1.422
 4733WAT     H214442   5.768   6.115   1.513
 4734WAT      O14443   6.367   5.517   2.943
 4734WAT     H114444   6.287   5.503   3.002
 4734WAT     H214445   6.422   5.593   2.979
 4735WAT      O14446   4.010   0.018   4.350
 4735WAT     H114447   4.103   0.040   4.379
 4735WAT     H214448   4.012  -0.060   4.288
 4736WAT      O14449   5.072   1.959   3.722
 4736WAT     H114450   5.138   1.886   3.738
 4736WAT     H214451   4.979   1.923   3.726
 4737WAT      O14452   9.438   4.104   6.953
 4737WAT     H114453   9.407   4.199   6.944
 4737WAT     H214454   9.379   4.044   6.899
 4738WAT      O14455   9.016   8.113   4.271
 4738WAT     H114456   8.982   8.205   4.289
 4738WAT     H214457   8.947   8.045   4.296
 4739WAT      O14458   9.753   0.399   0.182
 4739WAT     H114459   9.655   0.402   0.202
 4739WAT     H214460   9.774   0.314   0.132
 4740WAT      O14461   0.204   1.192   2.437
 4740WAT     H114462   0.254   1.105   2.442
 4740WAT     H214463   0.211   1.239   2.525
 4741WAT      O14464   6.912   8.792   1.757
 4741WAT     H114465   6.957   8.760   1.841
 4741WAT     H214466   6.966   8.866   1.717
 4742WAT      O14467   6.469   0.198   5.708
 4742WAT     H114468   6.563   0.175   5.682
 4742WAT     H214469   6.445   0.150   5.792
 4743WAT      O14470   6.294   3.078   5.483
 4743WAT     H114471   6.236   3.159   5.496
 4743WAT     H214472   6.255   3.021   5.411
 4744WAT      O14473   8.293   7.502   1.484
 4744WAT     H114474   8.340   7.514   1.397
 4744WAT     H214475   8.302   7.407   1.515
 4745WAT      O14476   8.610   8.290   6.814
 4745WAT     H114477   8.707   8.272   6.835
 4745WAT     H214478   8.554   8.219   6.855
 4746WAT      O14479   2.741   4.934   1.982
 4746WAT     H114480   2.791   4.955   1.898
 4746WAT     H214481   2.780   4.987   2.058
 4747WAT      O14482   6.213   9.621   1.630
 4747WAT     H114483   6.181   9.644   1.722
 4747WAT     H214484   6.282   9.550   1.635
 4748WAT      O14485   7.920   7.717   2.023
 4748WAT     H114486   7.879   7.640   2.072
 4748WAT     H214487   7.954   7.686   1.934
 4749WAT      O14488   1.892   9.770   8.505
 4749WAT     H114489   1.976   9.723   8.533
 4749WAT     H214490   1.909   9.820   8.420
 4750WAT      O14491   5.570   8.720   0.175
 4750WAT     H114492   5.618   8.759   0.254
 4750WAT     H214493   5.635   8.703   0.101
 4751WAT      O14494   6.799   4.256   1.428
 4751WAT     H114495   6.823   4.238   1.333
 4751WAT     H214496   6.717   4.313   1.431
 4752WAT      O14497   5.746   1.928   0.473
 4752WAT     H114498   5.749   1.928   0.373
 4752WAT     H214499   5.834   1.955   0.510
 4753WAT      O14500   6.602   5.997   7.523
 4753WAT     H114501   6.569   5.905   7.543
 4753WAT     H214502   6.545   6.037   7.451
 4754WAT      O14503   3.647   4.162   9.734
 4754WAT     H114504   3.624   4.206   9.647
 4754WAT     H214505   3.576   4.096   9.758
 4755WAT      O14506   8.807   0.808   0.893
 4755WAT     H114507   8.876   0.858   0.841
 4755WAT     H214508   8.804   0.844   0.986
 4756WAT      O14509   9.867   4.930   0.478
 4756WAT     H114510   9.860   4.894   0.571
 4756WAT     H214511   9.783   4.980   0.455
 4757WAT      O14512   2.384   8.994   2.849
 4757WAT     H114513   2.438   8.940   2.784
 4757WAT     H214514   2.287   8.988   2.825
 4758WAT      O14515   0.266   4.053   0.525
 4758WAT     H114516   0.228   4.051   0.618
 4758WAT     H214517   0.350   3.999   0.523
 4759WAT      O14518   5.151   4.139   9.869
 4759WAT     H114519   5.118   4.049   9.842
 4759WAT     H214520   5.203   4.132   9.954
 4760WAT      O14521   0.445   4.367   7.434
 4760WAT     H114522   0.371   4.359   7.501
 4760WAT     H214523   0.470   4.275   7.402
 4761WAT      O14524   8.893   8.229   7.478
 4761WAT     H114525   8.922   8.292   7.549
 4761WAT     H214526   8.953   8.237   7.399
 4762WAT      O14527   5.852   9.039   4.777
 4762WAT     H114528   5.826   9.134   4.761
 4762WAT     H214529   5.950   9.034   4.798
 4763WAT      O14530   7.397   3.139   7.275
 4763WAT     H114531   7.413   3.126   7.177
 4763WAT     H214532   7.480   3.175   7.318
 4764WAT      O14533   2.414   3.675   3.857
 4764WAT     H114534   2.355   3.709   3.784
 4764WAT     H214535   2.360   3.619   3.920
 4765WAT      O14536   4.059   1.337   0.390
 4765WAT     H114537   4.067   1.417   0.449
 4765WAT     H214538   4.141   1.329   0.333
 4766WAT      O14539   3.154   5.439   1.138
 4766WAT     H114540   3.206   5.443   1.223
 4766WAT     H214541   3.171   5.522   1.085
 4767WAT      O14542   9.855   0.426   0.710
 4767WAT     H114543   9.863   0.332   0.676
 4767WAT     H214544   9.916   0.485   0.656
 4768WAT      O14545   7.062   3.054   0.489
 4768WAT     H114546   7.072   3.010   0.399
 4768WAT     H214547   7.027   3.147   0.477
 4769WAT      O14548   8.843   2.573   7.933
 4769WAT     H114549   8.900   2.628   7.871
 4769WAT     H214550   8.800   2.632   8.001
 4770WAT      O14551   2.810   4.816   7.293
 4770WAT     H114552   2.832   4.893   7.233
 4770WAT     H214553   2.885   4.749   7.289
 4771WAT      O14554   1.855   0.163   1.250
 4771WAT     H114555   1.800   0.112   1.317
 4771WAT     H214556   1.952   0.147   1.269
 4772WAT      O14557   6.262   1.611   6.178
 4772WAT     H114558   6.188   1.564   6.228
 4772WAT     H214559   6.229   1.698   6.143
 4773WAT      O14560   7.465   6.777   3.586
 4773WAT     H114561   7.494   6.849   3.523
 4773WAT     H214562   7.418   6.705   3.534
 4774WAT      O14563   2.438   2.077   2.359
 4774WAT     H114564   2.489   2.145   2.306
 4774WAT     H214565   2.462   1.986   2.327
 4775WAT      O14566   9.758   5.695   8.874
 4775WAT     H114567   9.702   5.773   8.903
 4775WAT     H214568   9.700   5.625   8.834
 4776WAT      O14569   5.701   0.210   0.408
 4776WAT     H114570   5.701   0.111   0.393
 4776WAT     H214571   5.607   0.243   0.411
 4777WAT      O14572   7.407   5.540   0.202
 4777WAT     H114573   7.345   5.568   0.128
 4777WAT     H214574   7.416   5.615   0.267
 4778WAT      O14575   3.174   8.500   8.917
 4778WAT     H114576   3.126   8.566   8.973
 4778WAT     H214577   3.192   8.417   8.970
 4779WAT      O14578   8.451   8.498   3.629
 4779WAT     H114579   8.534   8.532   3.673
 4779WAT     H214580   8.420   8.416   3.676
 4780WAT      O14581   9.828   4.824   1.845
 4780WAT     H114582   9.928   4.814   1.842
 4780WAT     H214583   9.786   4.745   1.800
 4781WAT      O14584   6.862   0.561   5.829
 4781WAT     H114585   6.930   0.563   5.902
 4781WAT     H214586   6.776   0.600   5.861
 4782WAT      O14587   9.696   6.148   1.018
 4782WAT     H114588   9.789   6.169   1.047
 4782WAT     H214589   9.688   6.158   0.919
 4783WAT      O14590   2.835   0.555   5.560
 4783WAT     H114591   2.847   0.466   5.515
 4783WAT     H214592   2.914   0.613   5.538
 4784WAT      O14593   3.856   5.747   2.170
 4784WAT     H114594   3.772   5.746   2.224
 4784WAT     H214595   3.928   5.698   2.219
 4785WAT      O14596   7.627   4.272   8.548
 4785WAT     H114597   7.592   4.336   8.617
 4785WAT     H214598   7.674   4.323   8.476
 4786WAT      O14599   2.255   8.602   1.071
 4786WAT     H114600   2.344   8.646   1.060
 4786WAT     H214601   2.183   8.668   1.048
 4787WAT      O14602   8.674   5.234   9.182
 4787WAT     H114603   8.686   5.148   9.230
 4787WAT     H214604   8.577   5.252   9.167
 4788WAT      O14605   6.444   9.076   0.709
 4788WAT     H114606   6.442   9.067   0.809
 4788WAT     H214607   6.450   9.173   0.685
 4789WAT      O14608   8.835   6.338   3.275
 4789WAT     H114609   8.774   6.298   3.206
 4789WAT     H214610   8.787   6.410   3.324
 4790WAT      O14611   8.842   7.384   1.418
 4790WAT     H114612   8.850   7.298   1.470
 4790WAT     H214613   8.933   7.422   1.402
 4791WAT      O14614   9.096   7.052   2.379
 4791WAT     H114615   9.110   6.966   2.427
 4791WAT     H214616   9.162   7.060   2.304
 4792WAT      O14617   4.268   3.720   1.305
 4792WAT     H114618   4.178   3.696   1.270
 4792WAT     H214619   4.335   3.651   1.275
 4793WAT      O14620   0.050   5.370   0.704
 4793WAT     H114621   0.121   5.363   0.775
 4793WAT     H214622   0.093   5.365   0.614
 4794WAT      O14623   6.681   6.720   2.122
 4794WAT     H114624   6.634   6.797   2.079
 4794WAT     H214625   6.655   6.635   2.075
 4795WAT      O14626   5.614   2.406   8.642
 4795WAT     H114627   5.672   2.470   8.693
 4795WAT     H214628   5.581   2.334   8.704
 4796WAT      O14629   4.580   5.379   2.201
 4796WAT     H114630   4.662   5.409   2.249
 4796WAT     H214631   4.603   5.357   2.107
 4797WAT      O14632   2.750   7.330   5.229
 4797WAT     H114633   2.738   7.377   5.317
 4797WAT     H214634   2.660   7.315   5.187
 4798WAT      O14635   6.883   6.573   3.360
 4798WAT     H114636   6.915   6.620   3.442
 4798WAT     H214637   6.911   6.477   3.363
 4799WAT      O14638   7.077   4.548   9.704
 4799WAT     H114639   7.086   4.647   9.715
 4799WAT     H214640   7.032   4.528   9.618
 4800WAT      O14641   7.861   9.699   7.823
 4800WAT     H114642   7.909   9.774   7.778
 4800WAT     H214643   7.923   9.623   7.838
 4801WAT      O14644   5.812   7.768   6.680
 4801WAT     H114645   5.820   7.683   6.733
 4801WAT     H214646   5.737   7.823   6.717
 4802WAT      O14647   3.856   1.025   9.251
 4802WAT     H114648   3.844   0.938   9.202
 4802WAT     H214649   3.935   1.018   9.312
 4803WAT      O14650   5.953   4.454   8.175
 4803WAT     H114651   5.951   4.496   8.084
 4803WAT     H214652   6.046   4.422   8.195
 4804WAT      O14653   6.009   2.846   7.546
 4804WAT     H114654   5.921   2.801   7.562
 4804WAT     H214655   6.021   2.863   7.449
 4805WAT      O14656   7.581   8.474   7.227
 4805WAT     H114657   7.618   8.436   7.312
 4805WAT     H214658   7.587   8.573   7.230
 4806WAT      O14659   3.676   1.912   6.839
 4806WAT     H114660   3.762   1.962   6.849
 4806WAT     H214661   3.620   1.957   6.769
 4807WAT      O14662   2.013   6.881   4.377
 4807WAT     H114663   2.094   6.894   4.434
 4807WAT     H214664   1.986   6.785   4.379
 4808WAT      O14665   0.003   5.623   5.457
 4808WAT     H114666   0.002   5.709   5.406
 4808WAT     H214667   0.070   5.560   5.416
 4809WAT      O14668   2.403   2.302   7.005
 4809WAT     H114669   2.395   2.260   6.914
 4809WAT     H214670   2.402   2.401   6.995
 4810WAT      O14671   7.422   1.170   4.664
 4810WAT     H114672   7.439   1.269   4.654
 4810WAT     H214673   7.356   1.156   4.738
 4811WAT      O14674   8.692   1.732   2.454
 4811WAT     H114675   8.770   1.796   2.460
 4811WAT     H214676   8.726   1.638   2.455
 4812WAT      O14677   6.742   2.150   8.388
 4812WAT     H114678   6.672   2.211   8.426
 4812WAT     H214679   6.793   2.107   8.462
 4813WAT      O14680   5.198   6.451   7.655
 4813WAT     H114681   5.263   6.376   7.659
 4813WAT     H214682   5.200   6.502   7.741
 4814WAT      O14683   3.716   9.500   8.790
 4814WAT     H114684   3.777   9.474   8.865
 4814WAT     H214685   3.708   9.424   8.726
 4815WAT      O14686   2.044   2.091   7.231
 4815WAT     H114687   2.121   2.148   7.260
 4815WAT     H214688   1.993   2.062   7.312
 4816WAT      O14689   5.243   7.736   9.538
 4816WAT     H114690   5.180   7.659   9.549
 4816WAT     H214691   5.272   7.768   9.627
 4817WAT      O14692   9.326   1.315   9.651
 4817WAT     H114693   9.310   1.246   9.581
 4817WAT     H214694   9.419   1.350   9.643
 4818WAT      O14695   6.359   6.332   0.508
 4818WAT     H114696   6.344   6.300   0.602
 4818WAT     H214697   6.290   6.291   0.448
 4819WAT      O14698   2.958   7.891   4.091
 4819WAT     H114699   3.014   7.863   4.014
 4819WAT     H214700   3.017   7.918   4.167
 4820WAT      O14701   6.877   3.958   1.376
 4820WAT     H114702   6.921   3.954   1.286
 4820WAT     H214703   6.826   4.043   1.384
 4821WAT      O14704   2.332   0.329   2.434
 4821WAT     H114705   2.248   0.328   2.488
 4821WAT     H214706   2.370   0.421   2.433
 4822WAT      O14707   3.004   0.566   6.706
 4822WAT     H114708   3.045   0.620   6.780
 4822WAT     H214709   2.905   0.571   6.712
 4823WAT      O14710   7.784   8.896   5.083
 4823WAT     H114711   7.827   8.935   5.002
 4823WAT     H214712   7.810   8.800   5.092
 4824WAT      O14713   4.483   5.370   3.270
 4824WAT     H114714   4.454   5.438   3.338
 4824WAT     H214715   4.423   5.291   3.274
 4825WAT      O14716   7.725   3.459   0.664
 4825WAT     H114717   7.753   3.547   0.627
 4825WAT     H214718   7.700   3.398   0.588
 4826WAT      O14719   3.816   8.743   2.037
 4826WAT     H114720   3.745   8.696   1.984
 4826WAT     H214721   3.900   8.688   2.036
 4827WAT      O14722   0.429   4.481   4.356
 4827WAT     H114723   0.351   4.459   4.415
 4827WAT     H214724   0.396   4.494   4.262
 4828WAT      O14725   3.258   1.069   7.878
 4828WAT     H114726   3.206   1.153   7.864
 4828WAT     H214727   3.196   0.992   7.890
 4829WAT      O14728   6.177   8.866   3.880
 4829WAT     H114729   6.253   8.853   3.944
 4829WAT     H214730   6.154   8.779   3.837
 4830WAT      O14731   3.843   5.845   8.257
 4830WAT     H114732   3.896   5.784   8.198
 4830WAT     H214733   3.746   5.840   8.231
 4831WAT      O14734   1.634   3.223   0.687
 4831WAT     H114735   1.671   3.138   0.725
 4831WAT     H214736   1.655   3.299   0.747
 4832WAT      O14737   7.417   5.040   5.279
 4832WAT     H114738   7.483   5.110   5.250
 4832WAT     H214739   7.386   4.989   5.200
 4833WAT      O14740   4.548   6.835   9.434
 4833WAT     H114741   4.547   6.934   9.447
 4833WAT     H214742   4.485   6.792   9.498
 4834WAT      O14743   3.174   6.022   9.444
 4834WAT     H114744   3.104   5.965   9.400
 4834WAT     H214745   3.132   6.102   9.486
 4835WAT      O14746   8.888   9.589   6.235
 4835WAT     H114747   8.875   9.539   6.150
 4835WAT     H214748   8.799   9.609   6.276
 4836WAT      O14749   9.733   4.025   1.647
 4836WAT     H114750   9.737   3.932   1.611
 4836WAT     H214751   9.771   4.088   1.579
 4837WAT      O14752   6.592   5.064   5.015
 4837WAT     H114753   6.665   5.079   4.949
 4837WAT     H214754   6.625   5.084   5.107
 4838WAT      O14755   5.753   8.431   3.959
 4838WAT     H114756   5.786   8.405   3.869
 4838WAT     H214757   5.831   8.453   4.018
 4839WAT      O14758   3.342   2.668   9.706
 4839WAT     H114759   3.400   2.599   9.749
 4839WAT     H214760   3.374   2.759   9.731
 4840WAT      O14761   3.358   8.535   2.293
 4840WAT     H114762   3.443   8.552   2.344
 4840WAT     H214763   3.380   8.491   2.206
 4841WAT      O14764   4.699   6.240   0.797
 4841WAT     H114765   4.624   6.212   0.858
 4841WAT     H214766   4.772   6.281   0.852
 4842WAT      O14767   2.398   8.390   3.721
 4842WAT     H114768   2.494   8.418   3.715
 4842WAT     H214769   2.393   8.291   3.732
 4843WAT      O14770   8.743   3.987   5.223
 4843WAT     H114771   8.670   4.042   5.182
 4843WAT     H214772   8.831   4.033   5.211
 4844WAT      O14773   4.865   3.685   3.188
 4844WAT     H114774   4.865   3.586   3.200
 4844WAT     H214775   4.912   3.709   3.104
 4845WAT      O14776   2.096   0.902   6.335
 4845WAT     H114777   2.119   0.880   6.240
 4845WAT     H214778   2.002   0.875   6.354
 4846WAT      O14779   9.785   3.180   8.478
 4846WAT     H114780   9.878   3.189   8.442
 4846WAT     H214781   9.756   3.268   8.517
 4847WAT      O14782   5.613   6.276   4.821
 4847WAT     H114783   5.572   6.235   4.902
 4847WAT     H214784   5.682   6.214   4.783
 4848WAT      O14785   2.057   9.709   9.759
 4848WAT     H114786   2.133   9.737   9.817
 4848WAT     H214787   2.085   9.712   9.663
 4849WAT      O14788   8.342   1.738   5.082
 4849WAT     H114789   8.383   1.727   4.991
 4849WAT     H214790   8.344   1.650   5.130
 4850WAT      O14791   6.882   3.198   8.489
 4850WAT     H114792   6.816   3.230   8.556
 4850WAT     H214793   6.885   3.263   8.413
 4851WAT      O14794   3.872   4.480   3.242
 4851WAT     H114795   3.901   4.501   3.149
 4851WAT     H214796   3.778   4.445   3.240
 4852WAT      O14797   7.288   8.207   4.799
 4852WAT     H114798   7.254   8.155   4.720
 4852WAT     H214799   7.376   8.248   4.775
 4853WAT      O14800   1.413   0.258   4.740
 4853WAT     H114801   1.504   0.283   4.705
 4853WAT     H214802   1.421   0.178   4.800
 4854WAT      O14803   1.470   8.079   8.377
 4854WAT     H114804   1.396   8.031   8.425
 4854WAT     H214805   1.468   8.054   8.280
 4855WAT      O14806   2.060   9.548   5.392
 4855WAT     H114807   1.973   9.540   5.441
 4855WAT     H214808   2.133   9.563   5.458
 4856WAT      O14809   4.317   5.816   8.241
 4856WAT     H114810   4.308   5.853   8.334
 4856WAT     H214811   4.408   5.837   8.206
 4857WAT      O14812   0.389   0.163   0.767
 4857WAT     H114813   0.316   0.190   0.829
 4857WAT     H214814   0.431   0.245   0.727
 4858WAT      O14815   5.132   8.191   2.435
 4858WAT     H114816   5.064   8.119   2.419
 4858WAT     H214817   5.107   8.243   2.516
 4859WAT      O14818   9.074   8.430   2.495
 4859WAT     H114819   8.993   8.418   2.553
 4859WAT     H214820   9.045   8.452   2.402
 4860WAT      O14821   9.809   8.312   3.107
 4860WAT     H114822   9.781   8.217   3.094
 4860WAT     H214823   9.745   8.372   3.059
 4861WAT      O14824   0.249   0.497   4.739
 4861WAT     H114825   0.186   0.509   4.816
 4861WAT     H214826   0.318   0.428   4.763
 4862WAT      O14827   9.111   7.947   0.761
 4862WAT     H114828   9.044   7.940   0.835
 4862WAT     H214829   9.064   7.943   0.673
 4863WAT      O14830   5.094   7.913   0.689
 4863WAT     H114831   5.152   7.955   0.759
 4863WAT     H214832   5.000   7.943   0.702
 4864WAT      O14833   7.800   8.303   0.014
 4864WAT     H114834   7.745   8.238   0.067
 4864WAT     H214835   7.752   8.390   0.009
 4865WAT      O14836   2.775   7.258   6.608
 4865WAT     H114837   2.757   7.160   6.613
 4865WAT     H214838   2.722   7.297   6.533
 4866WAT      O14839   8.865   5.364   2.529
 4866WAT     H114840   8.905   5.314   2.452
 4866WAT     H214841   8.816   5.301   2.588
 4867WAT      O14842   9.851   2.279   4.703
 4867WAT     H114843   9.790   2.203   4.727
 4867WAT     H214844   9.800   2.348   4.653
 4868WAT      O14845   1.106   7.406   9.864
 4868WAT     H114846   1.075   7.311   9.856
 4868WAT     H214847   1.206   7.406   9.878
 4869WAT      O14848   5.663   8.359   7.601
 4869WAT     H114849   5.577   8.387   7.643
 4869WAT     H214850   5.735   8.357   7.671
 4870WAT      O14851   7.987   7.179   0.720
 4870WAT     H114852   7.936   7.143   0.798
 4870WAT     H214853   7.924   7.225   0.658
 4871WAT      O14854   2.053   0.352   2.509
 4871WAT     H114855   1.979   0.295   2.546
 4871WAT     H214856   2.038   0.366   2.411
 4872WAT      O14857   9.879   5.389   5.181
 4872WAT     H114858   9.888   5.334   5.099
 4872WAT     H214859   9.945   5.357   5.250
 4873WAT      O14860   2.519   6.241   9.473
 4873WAT     H114861   2.452   6.176   9.510
 4873WAT     H214862   2.475   6.298   9.403
 4874WAT      O14863   0.784   9.240   4.629
 4874WAT     H114864   0.866   9.226   4.573
 4874WAT     H214865   0.793   9.189   4.714
 4875WAT      O14866   6.313   2.715   0.799
 4875WAT     H114867   6.406   2.680   0.789
 4875WAT     H214868   6.257   2.681   0.723
 4876WAT      O14869   4.801   3.816   8.952
 4876WAT     H114870   4.837   3.868   8.875
 4876WAT     H214871   4.787   3.721   8.924
 4877WAT      O14872   3.334   0.784   1.883
 4877WAT     H114873   3.398   0.740   1.821
 4877WAT     H214874   3.265   0.718   1.913
 4878WAT      O14875   5.688   5.577   1.255
 4878WAT     H114876   5.745   5.610   1.180
 4878WAT     H214877   5.695   5.478   1.262
 4879WAT      O14878   6.326   8.454   0.366
 4879WAT     H114879   6.312   8.363   0.405
 4879WAT     H214880   6.385   8.446   0.286
 4880WAT      O14881   7.544   0.288   5.835
 4880WAT     H114882   7.483   0.337   5.897
 4880WAT     H214883   7.489   0.239   5.767
 4881WAT      O14884   3.066   5.864   5.334
 4881WAT     H114885   3.024   5.792   5.279
 4881WAT     H214886   3.119   5.924   5.275
 4882WAT      O14887   9.194   4.980   2.442
 4882WAT     H114888   9.261   5.052   2.428
 4882WAT     H214889   9.172   4.973   2.539
 4883WAT      O14890   4.270   1.533   5.420
 4883WAT     H114891   4.303   1.508   5.511
 4883WAT     H214892   4.179   1.573   5.426
 4884WAT      O14893   9.660   6.844   6.154
 4884WAT     H114894   9.652   6.916   6.223
 4884WAT     H214895   9.588   6.776   6.169
 4885WAT      O14896   2.019   8.912   1.494
 4885WAT     H114897   2.068   8.831   1.527
 4885WAT     H214898   2.078   8.964   1.433
 4886WAT      O14899   3.627   7.025   7.472
 4886WAT     H114900   3.633   7.125   7.469
 4886WAT     H214901   3.718   6.986   7.485
 4887WAT      O14902   7.811   9.574   2.761
 4887WAT     H114903   7.736   9.640   2.756
 4887WAT     H214904   7.776   9.485   2.791
 4888WAT      O14905   6.269   3.069   5.808
 4888WAT     H114906   6.356   3.069   5.858
 4888WAT     H214907   6.277   3.128   5.728
 4889WAT      O14908   8.563   7.231   0.597
 4889WAT     H114909   8.653   7.211   0.558
 4889WAT     H214910   8.525   7.147   0.636
 4890WAT      O14911   0.604   7.716   0.348
 4890WAT     H114912   0.704   7.712   0.349
 4890WAT     H214913   0.575   7.812   0.345
 4891WAT      O14914   3.005   9.445   1.702
 4891WAT     H114915   3.092   9.395   1.701
 4891WAT     H214916   2.934   9.388   1.660
 4892WAT      O14917   1.906   4.080   5.045
 4892WAT     H114918   1.932   4.172   5.017
 4892WAT     H214919   1.971   4.014   5.008
 4893WAT      O14920   9.104   7.317   8.576
 4893WAT     H114921   9.049   7.272   8.506
 4893WAT     H214922   9.142   7.248   8.638
 4894WAT      O14923   9.545   2.775   0.943
 4894WAT     H114924   9.482   2.719   0.997
 4894WAT     H214925   9.521   2.768   0.846
 4895WAT      O14926   0.889   7.801   5.617
 4895WAT     H114927   0.850   7.887   5.649
 4895WAT     H214928   0.912   7.743   5.696
 4896WAT      O14929   6.530   7.192   4.657
 4896WAT     H114930   6.450   7.224   4.709
 4896WAT     H214931   6.605   7.172   4.720
 4897WAT      O14932   0.670   4.296   8.222
 4897WAT     H114933   0.609   4.268   8.148
 4897WAT     H214934   0.643   4.387   8.255
 4898WAT      O14935   8.024   9.452   3.793
 4898WAT     H114936   8.084   9.395   3.849
 4898WAT     H214937   7.961   9.502   3.852
 4899WAT      O14938   2.178   9.634   8.044
 4899WAT     H114939   2.088   9.590   8.042
 4899WAT     H214940   2.196   9.677   7.956
 4900WAT      O14941   7.081   8.810   5.245
 4900WAT     H114942   7.045   8.891   5.292
 4900WAT     H214943   7.080   8.732   5.307
 4901WAT      O14944   5.585   9.024   6.068
 4901WAT     H114945   5.670   8.972   6.060
 4901WAT     H214946   5.553   9.021   6.162
 4902WAT      O14947   0.925   4.339   3.579
 4902WAT     H114948   0.907   4.395   3.499
 4902WAT     H214949   0.852   4.272   3.591
 4903WAT      O14950   2.332   6.075   0.788
 4903WAT     H114951   2.422   6.090   0.745
 4903WAT     H214952   2.339   6.092   0.886
 4904WAT      O14953   9.555   7.943   0.023
 4904WAT     H114954   9.514   7.980  -0.060
 4904WAT     H214955   9.619   7.870  -0.001
 4905WAT      O14956   2.765   8.707   1.708
 4905WAT     H114957   2.821   8.646   1.764
 4905WAT     H214958   2.811   8.795   1.699
 4906WAT      O14959   8.747   0.500   7.530
 4906WAT     H114960   8.692   0.433   7.481
 4906WAT     H214961   8.736   0.590   7.488
 4907WAT      O14962   5.675   1.063   3.457
 4907WAT     H114963   5.710   1.156   3.461
 4907WAT     H214964   5.646   1.041   3.364
 4908WAT      O14965   7.262   9.600   6.293
 4908WAT     H114966   7.354   9.572   6.265
 4908WAT     H214967   7.261   9.616   6.392
 4909WAT      O14968   8.844   9.420   4.997
 4909WAT     H114969   8.873   9.506   4.955
 4909WAT     H214970   8.881   9.343   4.945
 4910WAT      O14971   8.559   2.746   2.705
 4910WAT     H114972   8.568   2.674   2.636
 4910WAT     H214973   8.588   2.710   2.794
 4911WAT      O14974   9.665   9.818   0.816
 4911WAT     H114975   9.733   9.890   0.803
 4911WAT     H214976   9.680   9.774   0.905
 4912WAT      O14977   6.448   8.697   4.973
 4912WAT     H114978   6.540   8.708   5.009
 4912WAT     H214979   6.435   8.604   4.940
 4913WAT      O14980   3.910   3.552   3.237
 4913WAT     H114981   3.842   3.581   3.171
 4913WAT     H214982   3.922   3.453   3.231
 4914WAT      O14983   5.905   9.741   2.683
 4914WAT     H114984   5.967   9.735   2.605
 4914WAT     H214985   5.839   9.815   2.669
 4915WAT      O14986   6.567   3.994   9.864
 4915WAT     H114987   6.597   4.024   9.955
 4915WAT     H214988   6.647   3.966   9.810
 4916WAT      O14989   0.902   2.745   7.144
 4916WAT     H114990   0.864   2.837   7.152
 4916WAT     H214991   0.923   2.725   7.048
 4917WAT      O14992   8.729   7.086   9.016
 4917WAT     H114993   8.687   7.001   9.050
 4917WAT     H214994   8.828   7.075   9.012
 4918WAT      O14995   9.433   2.003   3.102
 4918WAT     H114996   9.401   2.097   3.095
 4918WAT     H214997   9.370   1.950   3.159
 4919WAT      O14998   0.314   7.177   7.541
 4919WAT     H114999   0.290   7.225   7.625
 4919WAT     H215000   0.380   7.232   7.489
 4920WAT      O15001   2.282   6.119   3.443
 4920WAT     H115002   2.315   6.052   3.508
 4920WAT     H215003   2.334   6.111   3.358
 4921WAT      O15004   0.167   8.678   1.294
 4921WAT     H115005   0.153   8.705   1.199
 4921WAT     H215006   0.213   8.589   1.298
 4922WAT      O15007   2.172   0.886   4.394
 4922WAT     H115008   2.193   0.944   4.473
 4922WAT     H215009   2.168   0.942   4.312
 4923WAT      O15010   7.893   2.109   9.385
 4923WAT     H115011   7.839   2.168   9.326
 4923WAT     H215012   7.878   2.134   9.481
 4924WAT      O15013   8.964   0.916   8.580
 4924WAT     H115014   9.052   0.960   8.559
 4924WAT     H215015   8.909   0.910   8.496
 4925WAT      O15016   3.979   0.676   5.228
 4925WAT     H115017   4.000   0.676   5.130
 4925WAT     H215018   3.911   0.747   5.248
 4926WAT      O15019   3.474   2.129   1.682
 4926WAT     H115020   3.396   2.187   1.708
 4926WAT     H215021   3.471   2.044   1.735
 4927WAT      O15022   2.634   1.436   3.516
 4927WAT     H115023   2.537   1.443   3.540
 4927WAT     H215024   2.680   1.373   3.579
 4928WAT      O15025   6.573   5.826   5.098
 4928WAT     H115026   6.529   5.916   5.099
 4928WAT     H215027   6.575   5.791   5.005
 4929WAT      O15028   5.664   6.114   7.983
 4929WAT     H115029   5.703   6.060   8.058
 4929WAT     H215030   5.576   6.076   7.957
 4930WAT      O15031   5.788   1.258   9.777
 4930WAT     H115032   5.700   1.295   9.747
 4930WAT     H215033   5.856   1.330   9.776
 4931WAT      O15034   4.152   0.955   0.104
 4931WAT     H115035   4.206   1.005   0.171
 4931WAT     H215036   4.181   0.981   0.012
 4932WAT      O15037   3.209   5.730   0.765
 4932WAT     H115038   3.292   5.728   0.709
 4932WAT     H215039   3.178   5.636   0.781
 4933WAT      O15040   1.968   3.709   5.049
 4933WAT     H115041   2.039   3.656   5.001
 4933WAT     H215042   2.007   3.796   5.080
 4934WAT      O15043   0.651   6.147   3.012
 4934WAT     H115044   0.673   6.240   3.041
 4934WAT     H215045   0.589   6.151   2.933
 4935WAT      O15046   3.427   9.360   5.871
 4935WAT     H115047   3.380   9.437   5.915
 4935WAT     H215048   3.522   9.385   5.854
 4936WAT      O15049   1.390   2.556   7.976
 4936WAT     H115050   1.387   2.655   7.984
 4936WAT     H215051   1.482   2.527   7.948
 4937WAT      O15052   8.588   7.523   5.079
 4937WAT     H115053   8.549   7.498   5.167
 4937WAT     H215054   8.574   7.449   5.014
 4938WAT      O15055   2.276   2.767   3.301
 4938WAT     H115056   2.195   2.768   3.243
 4938WAT     H215057   2.327   2.853   3.289
 4939WAT      O15058   8.399   8.138   5.685
 4939WAT     H115059   8.433   8.093   5.603
 4939WAT     H215060   8.474   8.153   5.749
 4940WAT      O15061   7.758   1.301   3.713
 4940WAT     H115062   7.666   1.332   3.691
 4940WAT     H215063   7.754   1.231   3.784
 4941WAT      O15064   6.838   5.893   8.645
 4941WAT     H115065   6.802   5.804   8.670
 4941WAT     H215066   6.844   5.951   8.726
 4942WAT      O15067   4.855   3.838   9.393
 4942WAT     H115068   4.797   3.895   9.452
 4942WAT     H215069   4.937   3.812   9.443
 4943WAT      O15070   7.948   6.815   5.314
 4943WAT     H115071   7.923   6.891   5.375
 4943WAT     H215072   7.930   6.728   5.360
 4944WAT      O15073   4.470   8.856   3.754
 4944WAT     H115074   4.377   8.879   3.724
 4944WAT     H215075   4.499   8.771   3.712
 4945WAT      O15076   9.471   5.445   2.440
 4945WAT     H115077   9.480   5.496   2.354
 4945WAT     H215078   9.383   5.465   2.482
 4946WAT      O15079   1.456   5.155   4.548
 4946WAT     H115080   1.356   5.152   4.561
 4946WAT     H215081   1.483   5.247   4.520
 4947WAT      O15082   4.239   0.210   8.417
 4947WAT     H115083   4.209   0.115   8.405
 4947WAT     H215084   4.338   0.214   8.422
 4948WAT      O15085   7.251   6.490   2.477
 4948WAT     H115086   7.246   6.580   2.520
 4948WAT     H215087   7.327   6.487   2.414
 4949WAT      O15088   8.528   7.451   6.452
 4949WAT     H115089   8.471   7.489   6.525
 4949WAT     H215090   8.605   7.512   6.435
 4950WAT      O15091   2.615   3.115   3.326
 4950WAT     H115092   2.687   3.050   3.302
 4950WAT     H215093   2.655   3.194   3.371
 4951WAT      O15094   8.065   4.274   6.066
 4951WAT     H115095   8.089   4.333   5.989
 4951WAT     H215096   8.111   4.186   6.057
 4952WAT      O15097   4.552   8.218   0.861
 4952WAT     H115098   4.472   8.264   0.901
 4952WAT     H215099   4.583   8.146   0.923
 4953WAT      O15100   0.056   8.652   4.976
 4953WAT     H115101   0.086   8.687   5.065
 4953WAT     H215102   0.004   8.723   4.928
 4954WAT      O15103   4.184   1.633   3.468
 4954WAT     H115104   4.263   1.644   3.528
 4954WAT     H215105   4.123   1.712   3.478
 4955WAT      O15106   7.702   4.050   8.687
 4955WAT     H115107   7.732   4.082   8.777
 4955WAT     H215108   7.689   4.129   8.627
 4956WAT      O15109   2.617   1.184   8.566
 4956WAT     H115110   2.597   1.282   8.577
 4956WAT     H215111   2.538   1.130   8.595
 4957WAT      O15112   9.030   3.975   2.093
 4957WAT     H115113   9.069   3.897   2.043
 4957WAT     H215114   9.103   4.036   2.120
 4958WAT      O15115   3.360   3.487   3.730
 4958WAT     H115116   3.292   3.473   3.659
 4958WAT     H215117   3.441   3.531   3.690
 4959WAT      O15118   8.653   7.192   7.286
 4959WAT     H115119   8.700   7.198   7.374
 4959WAT     H215120   8.603   7.106   7.280
 4960WAT      O15121   2.414   5.863   3.428
 4960WAT     H115122   2.496   5.867   3.484
 4960WAT     H215123   2.362   5.781   3.451
 4961WAT      O15124   8.760   8.978   0.189
 4961WAT     H115125   8.712   9.064   0.173
 4961WAT     H215126   8.858   8.995   0.193
 4962WAT      O15127   5.302   3.639   1.897
 4962WAT     H115128   5.277   3.734   1.881
 4962WAT     H215129   5.387   3.618   1.847
 4963WAT      O15130   5.774   5.957   3.482
 4963WAT     H115131   5.805   5.877   3.533
 4963WAT     H215132   5.766   5.932   3.385
 4964WAT      O15133   7.753   8.174   2.389
 4964WAT     H115134   7.839   8.223   2.374
 4964WAT     H215135   7.763   8.112   2.467
 4965WAT      O15136   9.688   7.625   1.050
 4965WAT     H115137   9.684   7.721   1.078
 4965WAT     H215138   9.638   7.613   0.964
 4966WAT      O15139   3.782   0.133   8.648
 4966WAT     H115140   3.718   0.210   8.648
 4966WAT     H215141   3.763   0.072   8.724
 4967WAT      O15142   9.196   7.342   4.563
 4967WAT     H115143   9.289   7.377   4.559
 4967WAT     H215144   9.153   7.350   4.473
 4968WAT      O15145   6.591   8.271   2.377
 4968WAT     H115146   6.673   8.234   2.423
 4968WAT     H215147   6.536   8.195   2.344
 4969WAT      O15148   7.602   6.079   7.379
 4969WAT     H115149   7.668   6.076   7.304
 4969WAT     H215150   7.646   6.113   7.461
 4970WAT      O15151   0.833   5.614   0.452
 4970WAT     H115152   0.784   5.541   0.500
 4970WAT     H215153   0.931   5.595   0.456
 4971WAT      O15154   0.470   2.951   6.886
 4971WAT     H115155   0.529   2.918   6.812
 4971WAT     H215156   0.451   3.049   6.873
 4972WAT      O15157   2.128   5.873   2.483
 4972WAT     H115158   2.100   5.951   2.426
 4972WAT     H215159   2.151   5.905   2.575
 4973WAT      O15160   5.862   4.999   4.144
 4973WAT     H115161   5.887   5.000   4.241
 4973WAT     H215162   5.778   4.947   4.133
 4974WAT      O15163   4.982   7.181   4.600
 4974WAT     H115164   4.945   7.252   4.541
 4974WAT     H215165   5.080   7.195   4.612
 4975WAT      O15166   6.450   8.430   1.066
 4975WAT     H115167   6.483   8.502   1.128
 4975WAT     H215168   6.363   8.458   1.026
 4976WAT      O15169   7.218   9.624   1.774
 4976WAT     H115170   7.175   9.539   1.805
 4976WAT     H215171   7.155   9.701   1.788
 4977WAT      O15172   2.231   7.149   6.131
 4977WAT     H115173   2.137   7.145   6.164
 4977WAT     H215174   2.288   7.087   6.186
 4978WAT      O15175   7.351   5.522   1.430
 4978WAT     H115176   7.443   5.555   1.452
 4978WAT     H215177   7.343   5.509   1.332
 4979WAT      O15178   2.735   8.053   4.063
 4979WAT     H115179   2.814   8.000   4.094
 4979WAT     H215180   2.757   8.151   4.065
 4980WAT      O15181   5.646   9.612   8.980
 4980WAT     H115182   5.602   9.701   8.972
 4980WAT     H215183   5.723   9.618   9.045
 4981WAT      O15184   2.606   4.055   0.640
 4981WAT     H115185   2.612   3.959   0.614
 4981WAT     H215186   2.698   4.092   0.653
 4982WAT      O15187   0.526   4.973   0.157
 4982WAT     H115188   0.593   4.952   0.086
 4982WAT     H215189   0.485   4.889   0.191
 4983WAT      O15190   6.611   8.450   6.968
 4983WAT     H115191   6.593   8.524   7.033
 4983WAT     H215192   6.528   8.429   6.917
 4984WAT      O15193   3.116   9.009   9.626
 4984WAT     H115194   3.031   9.032   9.579
 4984WAT     H215195   3.186   9.077   9.604
 4985WAT      O15196   9.793   5.606   2.794
 4985WAT     H115197   9.883   5.563   2.801
 4985WAT     H215198   9.790   5.664   2.713
 4986WAT      O15199   5.489   1.497   9.509
 4986WAT     H115200   5.430   1.421   9.484
 4986WAT     H215201   5.444   1.583   9.485
 4987WAT      O15202   9.203   8.581   0.383
 4987WAT     H115203   9.219   8.563   0.480
 4987WAT     H215204   9.248   8.509   0.329
 4988WAT      O15205   1.497   7.770   1.463
 4988WAT     H115206   1.465   7.769   1.368
 4988WAT     H215207   1.467   7.854   1.507
 4989WAT      O15208   0.584   7.634   1.172
 4989WAT     H115209   0.510   7.573   1.143
 4989WAT     H215210   0.556   7.684   1.254
 4990WAT      O15211   5.451   5.173   1.280
 4990WAT     H115212   5.390   5.189   1.358
 4990WAT     H215213   5.484   5.078   1.282
 4991WAT      O15214   3.372   1.640   0.840
 4991WAT     H115215   3.298   1.663   0.904
 4991WAT     H215216   3.361   1.545   0.810
 4992WAT      O15217   0.866   8.451   5.390
 4992WAT     H115218   0.885   8.486   5.298
 4992WAT     H215219   0.930   8.378   5.413
 4993WAT      O15220   9.204   9.640   6.884
 4993WAT     H115221   9.172   9.660   6.977
 4993WAT     H215222   9.133   9.593   6.833
 4994WAT      O15223   8.374   0.366   6.245
 4994WAT     H115224   8.325   0.279   6.253
 4994WAT     H215225   8.377   0.394   6.149
 4995WAT      O15226   6.909   9.442   4.244
 4995WAT     H115227   6.872   9.493   4.167
 4995WAT     H215228   6.864   9.471   4.328
 4996WAT      O15229   9.104   2.023   6.185
 4996WAT     H115230   9.123   2.059   6.276
 4996WAT     H215231   9.184   1.974   6.150
 4997WAT      O15232   2.429   7.780   1.654
 4997WAT     H115233   2.344   7.730   1.672
 4997WAT     H215234   2.501   7.715   1.628
 4998WAT      O15235   5.693   9.044   2.473
 4998WAT     H115236   5.634   9.122   2.449
 4998WAT     H215237   5.717   9.049   2.570
 4999WAT      O15238   3.941   1.960   0.501
 4999WAT     H115239   3.853   1.919   0.479
 4999WAT     H215240   3.984   1.994   0.417
 5000WAT      O15241   7.039   9.614   6.149
 5000WAT     H115242   6.949   9.592   6.185
 5000WAT     H215243   7.109   9.594   6.218
 5001WAT      O15244   0.845   2.617   1.930
 5001WAT     H115245   0.943   2.632   1.938
 5001WAT     H215246   0.799   2.645   2.014
 5002WAT      O15247   4.289   3.525   0.981
 5002WAT     H115248   4.307   3.451   0.916
 5002WAT     H215249   4.192   3.547   0.982
 5003WAT      O15250   0.318   6.704   1.349
 5003WAT     H115251   0.332   6.631   1.282
 5003WAT     H215252   0.225   6.740   1.340
 5004WAT      O15253   1.538   9.489   1.031
 5004WAT     H115254   1.550   9.421   0.959
 5004WAT     H215255   1.464   9.552   1.006
 5005WAT      O15256   0.325   9.465   8.025
 5005WAT     H115257   0.376   9.392   7.979
 5005WAT     H215258   0.305   9.438   8.119
 5006WAT      O15259   7.768   9.048   4.440
 5006WAT     H115260   7.812   9.020   4.355
 5006WAT     H215261   7.727   8.968   4.484
 5007WAT      O15262   4.035   3.054   3.589
 5007WAT     H115263   4.117   3.033   3.537
 5007WAT     H215264   4.057   3.119   3.662
 5008WAT      O15265   0.679   1.409   6.216
 5008WAT     H115266   0.737   1.414   6.135
 5008WAT     H215267   0.691   1.321   6.261
 5009WAT      O15268   7.238   4.275   6.283
 5009WAT     H115269   7.286   4.201   6.330
 5009WAT     H215270   7.168   4.312   6.344
 5010WAT      O15271   8.427   1.303   1.611
 5010WAT     H115272   8.360   1.234   1.636
 5010WAT     H215273   8.475   1.275   1.527
 5011WAT      O15274   5.627   0.591   0.349
 5011WAT     H115275   5.640   0.588   0.448
 5011WAT     H215276   5.566   0.516   0.322
 5012WAT      O15277   6.198   1.639   9.457
 5012WAT     H115278   6.100   1.634   9.475
 5012WAT     H215279   6.216   1.710   9.390
 5013WAT      O15280   7.576   1.153   4.956
 5013WAT     H115281   7.508   1.150   4.882
 5013WAT     H215282   7.667   1.139   4.918
 5014WAT      O15283   0.203   5.083   5.013
 5014WAT     H115284   0.130   5.126   4.961
 5014WAT     H215285   0.263   5.032   4.952
 5015WAT      O15286   2.677   1.970   5.920
 5015WAT     H115287   2.704   1.988   6.015
 5015WAT     H215288   2.747   1.914   5.876
 5016WAT      O15289   2.260   8.399   9.701
 5016WAT     H115290   2.308   8.400   9.788
 5016WAT     H215291   2.198   8.478   9.696
 5017WAT      O15292   2.975   8.173   9.090
 5017WAT     H115293   2.955   8.211   9.180
 5017WAT     H215294   2.903   8.200   9.026
 5018WAT      O15295   5.947   7.868   1.752
 5018WAT     H115296   5.929   7.796   1.685
 5018WAT     H215297   5.954   7.956   1.705
 5019WAT      O15298   5.593   2.965   1.603
 5019WAT     H115299   5.576   3.053   1.559
 5019WAT     H215300   5.589   2.892   1.534
 5020WAT      O15301   9.125   0.511   1.691
 5020WAT     H115302   9.186   0.442   1.653
 5020WAT     H215303   9.063   0.543   1.619
 5021WAT      O15304   7.415   2.255   5.983
 5021WAT     H115305   7.358   2.254   5.901
 5021WAT     H215306   7.434   2.161   6.012
 5022WAT      O15307   1.951   6.842   4.741
 5022WAT     H115308   1.884   6.768   4.734
 5022WAT     H215309   1.944   6.884   4.832
 5023WAT      O15310   0.421   7.804   7.552
 5023WAT     H115311   0.505   7.828   7.599
 5023WAT     H215312   0.342   7.839   7.603
 5024WAT      O15313   4.042   9.667   0.698
 5024WAT     H115314   3.988   9.641   0.617
 5024WAT     H215315   3.992   9.642   0.780
 5025WAT      O15316   9.771   9.074   6.835
 5025WAT     H115317   9.749   9.048   6.741
 5025WAT     H215318   9.748   8.998   6.896
 5026WAT      O15319   8.139   6.500   4.699
 5026WAT     H115320   8.049   6.511   4.742
 5026WAT     H215321   8.150   6.570   4.628
 5027WAT      O15322   0.619   7.682   7.196
 5027WAT     H115323   0.581   7.772   7.176
 5027WAT     H215324   0.715   7.691   7.225
 5028WAT      O15325   3.351   4.475   9.367
 5028WAT     H115326   3.405   4.557   9.387
 5028WAT     H215327   3.254   4.497   9.370
 5029WAT      O15328   5.519   8.286   1.099
 5029WAT     H115329   5.478   8.253   1.014
 5029WAT     H215330   5.463   8.360   1.136
 5030WAT      O15331   5.259   5.831   7.931
 5030WAT     H115332   5.180   5.787   7.974
 5030WAT     H215333   5.243   5.840   7.833
 5031WAT      O15334   5.238   2.458   1.479
 5031WAT     H115335   5.261   2.458   1.382
 5031WAT     H215336   5.196   2.546   1.503
 5032WAT      O15337   3.177   8.972   6.753
 5032WAT     H115338   3.230   8.971   6.668
 5032WAT     H215339   3.120   9.054   6.756
 5033WAT      O15340   4.459   3.868   8.693
 5033WAT     H115341   4.481   3.960   8.727
 5033WAT     H215342   4.536   3.833   8.640
 5034WAT      O15343   7.736   9.676   2.393
 5034WAT     H115344   7.669   9.634   2.454
 5034WAT     H215345   7.818   9.701   2.446
 5035WAT      O15346   9.720   7.122   6.857
 5035WAT     H115347   9.759   7.174   6.934
 5035WAT     H215348   9.783   7.049   6.832
 5036WAT      O15349   6.473   1.890   7.413
 5036WAT     H115350   6.433   1.798   7.420
 5036WAT     H215351   6.415   1.956   7.460
 5037WAT      O15352   9.246   6.603   3.093
 5037WAT     H115353   9.336   6.590   3.135
 5037WAT     H215354   9.241   6.554   3.007
 5038WAT      O15355   5.333   9.510   5.593
 5038WAT     H115356   5.294   9.438   5.534
 5038WAT     H215357   5.433   9.508   5.586
 5039WAT      O15358   8.701   4.385   4.418
 5039WAT     H115359   8.645   4.406   4.498
 5039WAT     H215360   8.721   4.470   4.369
 5040WAT      O15361   1.921   4.783   0.081
 5040WAT     H115362   1.875   4.788  -0.008
 5040WAT     H215363   1.855   4.754   0.150
 5041WAT      O15364   0.483   6.450   6.673
 5041WAT     H115365   0.487   6.497   6.761
 5041WAT     H215366   0.388   6.437   6.645
 5042WAT      O15367   4.923   4.953   0.209
 5042WAT     H115368   5.012   4.967   0.165
 5042WAT     H215369   4.912   5.018   0.284
 5043WAT      O15370   7.012   7.353   2.381
 5043WAT     H115371   6.922   7.311   2.380
 5043WAT     H215372   7.010   7.435   2.438
 5044WAT      O15373   8.666   2.879   9.477
 5044WAT     H115374   8.663   2.780   9.488
 5044WAT     H215375   8.743   2.915   9.530
 5045WAT      O15376   3.055   5.494   6.668
 5045WAT     H115377   3.031   5.504   6.572
 5045WAT     H215378   3.009   5.565   6.722
 5046WAT      O15379   0.358   0.285   2.560
 5046WAT     H115380   0.414   0.337   2.624
 5046WAT     H215381   0.396   0.192   2.551
 5047WAT      O15382   8.964   2.011   6.774
 5047WAT     H115383   8.894   1.975   6.712
 5047WAT     H215384   9.030   1.939   6.796
 5048WAT      O15385   6.650   1.020   8.617
 5048WAT     H115386   6.635   1.092   8.685
 5048WAT     H215387   6.731   0.968   8.642
 5049WAT      O15388   6.298   3.023   7.844
 5049WAT     H115389   6.385   3.006   7.890
 5049WAT     H215390   6.277   2.948   7.781
 5050WAT      O15391   9.841   2.279   3.683
 5050WAT     H115392   9.898   2.278   3.765
 5050WAT     H215393   9.875   2.210   3.618
 5051WAT      O15394   9.658   3.015   1.853
 5051WAT     H115395   9.724   3.083   1.819
 5051WAT     H215396   9.686   2.984   1.943
 5052WAT      O15397   8.440   8.500   9.285
 5052WAT     H115398   8.417   8.519   9.381
 5052WAT     H215399   8.533   8.464   9.279
 5053WAT      O15400   6.271   7.375   5.152
 5053WAT     H115401   6.208   7.397   5.227
 5053WAT     H215402   6.330   7.453   5.134
 5054WAT      O15403   6.576   9.540   0.813
 5054WAT     H115404   6.624   9.546   0.725
 5054WAT     H215405   6.530   9.626   0.832
 5055WAT      O15406   3.623   6.354   4.715
 5055WAT     H115407   3.644   6.258   4.698
 5055WAT     H215408   3.695   6.395   4.772
 5056WAT      O15409   4.225   8.830   5.506
 5056WAT     H115410   4.176   8.842   5.419
 5056WAT     H215411   4.316   8.870   5.498
 5057WAT      O15412   8.401   6.175   0.521
 5057WAT     H115413   8.412   6.150   0.425
 5057WAT     H215414   8.310   6.150   0.552
 5058WAT      O15415   6.606   6.498   9.497
 5058WAT     H115416   6.622   6.409   9.454
 5058WAT     H215417   6.694   6.542   9.515
 5059WAT      O15418   4.559   0.936   1.637
 5059WAT     H115419   4.526   0.867   1.700
 5059WAT     H215420   4.564   0.898   1.545
 5060WAT      O15421   5.301   5.419   8.013
 5060WAT     H115422   5.311   5.460   7.923
 5060WAT     H215423   5.369   5.346   8.024
 5061WAT      O15424   5.838   1.340   4.476
 5061WAT     H115425   5.764   1.328   4.410
 5061WAT     H215426   5.926   1.325   4.431
 5062WAT      O15427   9.696   2.043   2.101
 5062WAT     H115428   9.618   1.983   2.120
 5062WAT     H215429   9.772   1.988   2.065
 5063WAT      O15430   5.645   9.547   1.992
 5063WAT     H115431   5.567   9.541   1.930
 5063WAT     H215432   5.723   9.588   1.944
 5064WAT      O15433   4.831   7.351   4.458
 5064WAT     H115434   4.862   7.439   4.493
 5064WAT     H215435   4.835   7.352   4.358
 5065WAT      O15436   2.170   4.958   2.339
 5065WAT     H115437   2.197   4.890   2.407
 5065WAT     H215438   2.201   4.928   2.248
 5066WAT      O15439   7.171   3.122   2.085
 5066WAT     H115440   7.150   3.027   2.109
 5066WAT     H215441   7.242   3.124   2.014
 5067WAT      O15442   7.227   3.380   6.991
 5067WAT     H115443   7.300   3.363   7.057
 5067WAT     H215444   7.267   3.397   6.900
 5068WAT      O15445   9.885   1.993   4.112
 5068WAT     H115446   9.831   2.045   4.046
 5068WAT     H215447   9.982   2.003   4.092
 5069WAT      O15448   2.731   2.385   5.469
 5069WAT     H115449   2.670   2.461   5.493
 5069WAT     H215450   2.790   2.365   5.546
 5070WAT      O15451   3.161   2.454   8.053
 5070WAT     H115452   3.197   2.370   8.014
 5070WAT     H215453   3.109   2.504   7.984
 5071WAT      O15454   3.361   0.746   3.856
 5071WAT     H115455   3.310   0.832   3.857
 5071WAT     H215456   3.440   0.753   3.916
 5072WAT      O15457   3.440   8.521   8.881
 5072WAT     H115458   3.341   8.514   8.890
 5072WAT     H215459   3.481   8.430   8.890
 5073WAT      O15460   6.799   2.908   2.781
 5073WAT     H115461   6.806   2.894   2.682
 5073WAT     H215462   6.735   2.842   2.820
 5074WAT      O15463   7.348   2.551   7.174
 5074WAT     H115464   7.358   2.639   7.128
 5074WAT     H215465   7.254   2.518   7.162
 5075WAT      O15466   3.075   2.200   7.770
 5075WAT     H115467   3.114   2.180   7.680
 5075WAT     H215468   3.147   2.237   7.829
 5076WAT      O15469   1.821   9.047   9.135
 5076WAT     H115470   1.766   9.011   9.210
 5076WAT     H215471   1.840   9.144   9.151
 5077WAT      O15472   1.338   7.281   6.781
 5077WAT     H115473   1.355   7.359   6.721
 5077WAT     H215474   1.423   7.232   6.797
 5078WAT      O15475   8.769   4.330   2.255
 5078WAT     H115476   8.702   4.327   2.329
 5078WAT     H215477   8.722   4.321   2.167
 5079WAT      O15478   4.234   8.383   5.368
 5079WAT     H115479   4.249   8.446   5.445
 5079WAT     H215480   4.283   8.297   5.386
 5080WAT      O15481   7.386   7.479   2.635
 5080WAT     H115482   7.404   7.479   2.734
 5080WAT     H215483   7.302   7.429   2.616
 5081WAT      O15484   6.322   3.794   4.768
 5081WAT     H115485   6.237   3.748   4.742
 5081WAT     H215486   6.306   3.892   4.774
 5082WAT      O15487   2.127   5.994   7.038
 5082WAT     H115488   2.200   5.935   7.073
 5082WAT     H215489   2.101   5.963   6.946
 5083WAT      O15490   8.493   4.921   6.225
 5083WAT     H115491   8.431   4.961   6.293
 5083WAT     H215492   8.584   4.962   6.234
 5084WAT      O15493   1.255   7.653   0.595
 5084WAT     H115494   1.221   7.741   0.563
 5084WAT     H215495   1.344   7.665   0.639
 5085WAT      O15496   5.621   7.127   6.622
 5085WAT     H115497   5.682   7.054   6.654
 5085WAT     H215498   5.609   7.120   6.523
 5086WAT      O15499   5.270   2.807   7.678
 5086WAT     H115500   5.254   2.710   7.700
 5086WAT     H215501   5.363   2.817   7.642
 5087WAT      O15502   1.761   4.488   9.021
 5087WAT     H115503   1.747   4.564   8.958
 5087WAT     H215504   1.832   4.428   8.985
 5088WAT      O15505   5.397   9.255   2.522
 5088WAT     H115506   5.464   9.315   2.478
 5088WAT     H215507   5.373   9.180   2.460
 5089WAT      O15508   4.499   0.075   8.204
 5089WAT     H115509   4.579   0.049   8.258
 5089WAT     H215510   4.478   0.003   8.139
 5090WAT      O15511   2.221   9.635   4.147
 5090WAT     H115512   2.307   9.593   4.116
 5090WAT     H215513   2.231   9.734   4.144
 5091WAT      O15514   8.485   1.253   0.911
 5091WAT     H115515   8.460   1.218   1.001
 5091WAT     H215516   8.570   1.307   0.919
 5092WAT      O15517   2.916   4.835   5.076
 5092WAT     H115518   2.950   4.751   5.034
 5092WAT     H215519   2.958   4.914   5.030
 5093WAT      O15520   8.051   7.335   9.045
 5093WAT     H115521   8.127   7.273   9.062
 5093WAT     H215522   7.995   7.299   8.970
 5094WAT      O15523   6.187   8.735   3.097
 5094WAT     H115524   6.218   8.641   3.107
 5094WAT     H215525   6.214   8.770   3.007
 5095WAT      O15526   8.416   2.519   1.798
 5095WAT     H115527   8.453   2.610   1.779
 5095WAT     H215528   8.321   2.527   1.828
 5096WAT      O15529   7.179   0.125   0.673
 5096WAT     H115530   7.213   0.217   0.655
 5096WAT     H215531   7.108   0.129   0.743
 5097WAT      O15532   5.401   6.279   7.718
 5097WAT     H115533   5.356   6.232   7.793
 5097WAT     H215534   5.478   6.224   7.686
 5098WAT      O15535   9.174   0.212   8.137
 5098WAT     H115536   9.218   0.194   8.050
 5098WAT     H215537   9.243   0.213   8.210
 5099WAT      O15538   9.639   9.522   2.041
 5099WAT     H115539   9.632   9.571   2.128
 5099WAT     H215540   9.704   9.569   1.981
 5100WAT      O15541   5.533   9.159   0.291
 5100WAT     H115542   5.502   9.251   0.268
 5100WAT     H215543   5.631   9.160   0.310
 5101WAT      O15544   6.492   2.358   9.620
 5101WAT     H115545   6.556   2.427   9.587
 5101WAT     H215546   6.495   2.278   9.560
 5102WAT      O15547   2.264   7.957   7.161
 5102WAT     H115548   2.223   8.029   7.105
 5102WAT     H215549   2.225   7.868   7.135
 5103WAT      O15550   9.042   7.612   0.926
 5103WAT     H115551   9.098   7.594   1.007
 5103WAT     H215552   9.006   7.705   0.931
 5104WAT      O15553   6.884   1.235   4.278
 5104WAT     H115554   6.828   1.152   4.268
 5104WAT     H215555   6.893   1.257   4.375
 5105WAT      O15556   1.931   8.836   9.499
 5105WAT     H115557   1.915   8.922   9.451
 5105WAT     H215558   1.955   8.855   9.594
 5106WAT      O15559   3.089   7.285   1.505
 5106WAT     H115560   3.030   7.259   1.429
 5106WAT     H215561   3.141   7.366   1.480
 5107WAT      O15562   8.110   6.198   8.145
 5107WAT     H115563   8.108   6.100   8.162
 5107WAT     H215564   8.172   6.218   8.069
 5108WAT      O15565   4.100   1.843   7.220
 5108WAT     H115566   4.144   1.772   7.276
 5108WAT     H215567   4.162   1.871   7.148
 5109WAT      O15568   2.407   8.616   3.961
 5109WAT     H115569   2.349   8.573   4.031
 5109WAT     H215570   2.396   8.567   3.875
 5110WAT      O15571   4.176   6.043   7.247
 5110WAT     H115572   4.225   6.081   7.325
 5110WAT     H215573   4.228   5.968   7.208
 5111WAT      O15574   8.184   5.043   9.567
 5111WAT     H115575   8.111   5.017   9.503
 5111WAT     H215576   8.144   5.086   9.648
 5112WAT      O15577   2.881   1.623   7.465
 5112WAT     H115578   2.846   1.533   7.440
 5112WAT     H215579   2.805   1.689   7.464
 5113WAT      O15580   1.434   6.855   9.063
 5113WAT     H115581   1.435   6.797   8.981
 5113WAT     H215582   1.457   6.800   9.143
 5114WAT      O15583   3.225   2.919   3.030
 5114WAT     H115584   3.296   2.938   3.098
 5114WAT     H215585   3.142   2.970   3.054
 5115WAT      O15586   7.676   0.329   7.265
 5115WAT     H115587   7.717   0.331   7.173
 5115WAT     H215588   7.697   0.414   7.313
 5116WAT      O15589   7.601   9.448   5.419
 5116WAT     H115590   7.514   9.474   5.377
 5116WAT     H215591   7.601   9.350   5.437
 5117WAT      O15592   3.629   2.736   6.644
 5117WAT     H115593   3.668   2.692   6.564
 5117WAT     H215594   3.703   2.767   6.705
 5118WAT      O15595   5.151   0.427   9.584
 5118WAT     H115596   5.235   0.399   9.538
 5118WAT     H215597   5.173   0.484   9.664
 5119WAT      O15598   6.117   7.260   3.617
 5119WAT     H115599   6.058   7.180   3.625
 5119WAT     H215600   6.211   7.235   3.643
 5120WAT      O15601   3.983   9.627   4.173
 5120WAT     H115602   3.899   9.635   4.120
 5120WAT     H215603   3.996   9.532   4.202
 5121WAT      O15604   4.890   8.161   3.351
 5121WAT     H115605   4.885   8.130   3.255
 5121WAT     H215606   4.983   8.191   3.371
 5122WAT      O15607   2.168   9.514   7.154
 5122WAT     H115608   2.160   9.420   7.188
 5122WAT     H215609   2.179   9.512   7.054
 5123WAT      O15610   4.565   1.615   5.127
 5123WAT     H115611   4.598   1.708   5.114
 5123WAT     H215612   4.630   1.564   5.183
 5124WAT      O15613   5.424   2.888   6.995
 5124WAT     H115614   5.358   2.951   6.954
 5124WAT     H215615   5.496   2.939   7.041
 5125WAT      O15616   1.625   5.611   6.658
 5125WAT     H115617   1.697   5.676   6.637
 5125WAT     H215618   1.658   5.518   6.644
 5126WAT      O15619   2.005   7.942   9.251
 5126WAT     H115620   2.072   7.888   9.301
 5126WAT     H215621   1.945   7.989   9.315
 5127WAT      O15622   2.721   0.982   7.600
 5127WAT     H115623   2.651   0.967   7.530
 5127WAT     H215624   2.803   1.019   7.557
 5128WAT      O15625   7.063   1.811   4.706
 5128WAT     H115626   7.070   1.823   4.805
 5128WAT     H215627   7.064   1.900   4.661
 5129WAT      O15628   0.288   2.886   9.162
 5129WAT     H115629   0.329   2.874   9.253
 5129WAT     H215630   0.264   2.982   9.149
 5130WAT      O15631   3.379   7.455   0.998
 5130WAT     H115632   3.316   7.533   1.007
 5130WAT     H215633   3.442   7.472   0.923
 5131WAT      O15634   0.340   5.199   7.737
 5131WAT     H115635   0.323   5.195   7.638
 5131WAT     H215636   0.355   5.107   7.772
 5132WAT      O15637   0.252   5.331   4.735
 5132WAT     H115638   0.189   5.376   4.672
 5132WAT     H215639   0.308   5.400   4.782
 5133WAT      O15640   7.921   5.572   9.686
 5133WAT     H115641   7.950   5.530   9.600
 5133WAT     H215642   7.912   5.671   9.673
 5134WAT      O15643   2.381   9.773   8.176
 5134WAT     H115644   2.454   9.707   8.189
 5134WAT     H215645   2.295   9.725   8.155
 5135WAT      O15646   6.117   0.021   2.081
 5135WAT     H115647   6.120  -0.009   2.176
 5135WAT     H215648   6.195   0.081   2.062
 5136WAT      O15649   9.456   9.823   2.644
 5136WAT     H115650   9.504   9.899   2.601
 5136WAT     H215651   9.522   9.755   2.675
 5137WAT      O15652   8.956   7.888   1.407
 5137WAT     H115653   9.018   7.871   1.331
 5137WAT     H215654   8.863   7.899   1.372
 5138WAT      O15655   2.741   2.223   5.043
 5138WAT     H115656   2.700   2.139   5.077
 5138WAT     H215657   2.787   2.204   4.956
 5139WAT      O15658   7.717   6.542   2.457
 5139WAT     H115659   7.699   6.445   2.439
 5139WAT     H215660   7.690   6.564   2.551
 5140WAT      O15661   6.736   1.009   4.257
 5140WAT     H115662   6.653   1.031   4.308
 5140WAT     H215663   6.725   0.921   4.212
 5141WAT      O15664   1.623   9.104   3.901
 5141WAT     H115665   1.677   9.075   3.822
 5141WAT     H215666   1.635   9.203   3.915
 5142WAT      O15667   1.529   0.424   7.555
 5142WAT     H115668   1.546   0.326   7.546
 5142WAT     H215669   1.442   0.439   7.602
 5143WAT      O15670   4.661   1.891   1.071
 5143WAT     H115671   4.610   1.971   1.104
 5143WAT     H215672   4.753   1.892   1.110
 5144WAT      O15673   7.602   3.681   2.914
 5144WAT     H115674   7.508   3.660   2.941
 5144WAT     H215675   7.665   3.619   2.962
 5145WAT      O15676   6.276   2.737   4.729
 5145WAT     H115677   6.319   2.651   4.703
 5145WAT     H215678   6.259   2.738   4.827
 5146WAT      O15679   7.318   9.793   2.201
 5146WAT     H115680   7.299   9.859   2.128
 5146WAT     H215681   7.405   9.816   2.245
 5147WAT      O15682   5.413   7.312   0.591
 5147WAT     H115683   5.485   7.373   0.624
 5147WAT     H215684   5.438   7.217   0.608
 5148WAT      O15685   6.851   2.875   0.792
 5148WAT     H115686   6.805   2.787   0.807
 5148WAT     H215687   6.787   2.939   0.749
 5149WAT      O15688   7.539   6.076   4.578
 5149WAT     H115689   7.634   6.077   4.609
 5149WAT     H215690   7.490   6.155   4.616
 5150WAT      O15691   4.110   0.084   0.720
 5150WAT     H115692   4.175   0.118   0.788
 5150WAT     H215693   4.103  -0.015   0.728
 5151WAT      O15694   7.708   2.998   0.114
 5151WAT     H115695   7.722   3.090   0.078
 5151WAT     H215696   7.624   2.960   0.076
 5152WAT      O15697   5.059   1.639   0.381
 5152WAT     H115698   5.047   1.656   0.479
 5152WAT     H215699   5.146   1.590   0.366
 5153WAT      O15700   4.034   0.822   2.382
 5153WAT     H115701   3.945   0.778   2.368
 5153WAT     H215702   4.105   0.752   2.390
 5154WAT      O15703   5.402   0.162   9.100
 5154WAT     H115704   5.358   0.091   9.046
 5154WAT     H215705   5.395   0.250   9.053
 5155WAT      O15706   3.855   7.461   1.499
 5155WAT     H115707   3.818   7.397   1.431
 5155WAT     H215708   3.925   7.413   1.553
 5156WAT      O15709   9.009   5.637   3.105
 5156WAT     H115710   9.002   5.625   3.204
 5156WAT     H215711   8.951   5.570   3.058
 5157WAT      O15712   3.071   6.988   1.508
 5157WAT     H115713   3.089   6.995   1.410
 5157WAT     H215714   3.076   7.079   1.549
 5158WAT      O15715   7.854   2.668   5.554
 5158WAT     H115716   7.936   2.644   5.503
 5158WAT     H215717   7.814   2.751   5.516
 5159WAT      O15718   2.402   0.029   4.704
 5159WAT     H115719   2.412  -0.012   4.613
 5159WAT     H215720   2.353   0.116   4.696
 5160WAT      O15721   4.784   2.535   5.336
 5160WAT     H115722   4.759   2.485   5.253
 5160WAT     H215723   4.803   2.470   5.409
 5161WAT      O15724   5.020   2.668   5.350
 5161WAT     H115725   4.931   2.636   5.319
 5161WAT     H215726   5.088   2.595   5.337
 5162WAT      O15727   9.713   2.650   2.859
 5162WAT     H115728   9.713   2.626   2.762
 5162WAT     H215729   9.804   2.683   2.886
 5163WAT      O15730   2.920   8.223   8.429
 5163WAT     H115731   2.881   8.314   8.440
 5163WAT     H215732   2.884   8.162   8.501
 5164WAT      O15733   1.224   1.940   4.176
 5164WAT     H115734   1.277   1.916   4.257
 5164WAT     H215735   1.135   1.978   4.204
 5165WAT      O15736   2.485   4.796   0.409
 5165WAT     H115737   2.569   4.823   0.456
 5165WAT     H215738   2.507   4.746   0.326
 5166WAT      O15739   4.942   4.189   2.406
 5166WAT     H115740   4.886   4.137   2.341
 5166WAT     H215741   4.911   4.170   2.499
 5167WAT      O15742   4.261   9.738   2.478
 5167WAT     H115743   4.226   9.645   2.471
 5167WAT     H215744   4.288   9.771   2.388
 5168WAT      O15745   3.332   9.247   7.787
 5168WAT     H115746   3.378   9.262   7.875
 5168WAT     H215747   3.291   9.156   7.786
 5169WAT      O15748   1.640   5.650   0.671
 5169WAT     H115749   1.611   5.562   0.634
 5169WAT     H215750   1.629   5.721   0.601
 5170WAT      O15751   6.871   6.077   7.901
 5170WAT     H115752   6.874   6.024   7.816
 5170WAT     H215753   6.857   6.016   7.978
 5171WAT      O15754   5.346   9.221   0.534
 5171WAT     H115755   5.361   9.139   0.479
 5171WAT     H215756   5.427   9.280   0.529
 5172WAT      O15757   7.538   6.133   5.754
 5172WAT     H115758   7.578   6.224   5.757
 5172WAT     H215759   7.572   6.084   5.674
 5173WAT      O15760   7.456   4.389   7.758
 5173WAT     H115761   7.546   4.416   7.790
 5173WAT     H215762   7.465   4.319   7.687
 5174WAT      O15763   3.218   4.334   7.224
 5174WAT     H115764   3.216   4.427   7.187
 5174WAT     H215765   3.243   4.337   7.321
 5175WAT      O15766   3.908   6.607   0.508
 5175WAT     H115767   3.853   6.560   0.439
 5175WAT     H215768   3.994   6.637   0.468
 5176WAT      O15769   8.830   3.834   9.501
 5176WAT     H115770   8.911   3.821   9.443
 5176WAT     H215771   8.845   3.913   9.561
 5177WAT      O15772   3.887   5.135   3.173
 5177WAT     H115773   3.842   5.164   3.258
 5177WAT     H215774   3.854   5.192   3.097
 5178WAT      O15775   7.525   1.402   9.045
 5178WAT     H115776   7.545   1.498   9.025
 5178WAT     H215777   7.517   1.389   9.144
 5179WAT      O15778   8.805   8.468   9.015
 5179WAT     H115779   8.721   8.453   8.962
 5179WAT     H215780   8.857   8.543   8.975
 5180WAT      O15781   5.415   0.214   7.497
 5180WAT     H115782   5.374   0.153   7.566
 5180WAT     H215783   5.506   0.181   7.474
 5181WAT      O15784   4.129   7.458   7.311
 5181WAT     H115785   4.030   7.469   7.304
 5181WAT     H215786   4.174   7.546   7.293
 5182WAT      O15787   5.570   5.533   0.555
 5182WAT     H115788   5.526   5.460   0.609
 5182WAT     H215789   5.506   5.566   0.486
 5183WAT      O15790   1.232   5.213   3.414
 5183WAT     H115791   1.202   5.252   3.501
 5183WAT     H215792   1.321   5.169   3.426
 5184WAT      O15793   5.164   4.959   7.743
 5184WAT     H115794   5.218   5.006   7.813
 5184WAT     H215795   5.225   4.923   7.672
 5185WAT      O15796   8.426   0.706   6.214
 5185WAT     H115797   8.355   0.716   6.283
 5185WAT     H215798   8.384   0.706   6.123
 5186WAT      O15799   1.882   0.994   9.424
 5186WAT     H115800   1.840   1.062   9.364
 5186WAT     H215801   1.963   0.955   9.378
 5187WAT      O15802   3.106   5.052   7.862
 5187WAT     H115803   3.120   5.130   7.801
 5187WAT     H215804   3.075   4.974   7.808
 5188WAT      O15805   9.131   5.121   6.947
 5188WAT     H115806   9.042   5.127   6.902
 5188WAT     H215807   9.136   5.036   7.000
 5189WAT      O15808   7.176   4.035   5.682
 5189WAT     H115809   7.155   3.946   5.724
 5189WAT     H215810   7.248   4.023   5.614
 5190WAT      O15811   2.162   1.050   7.566
 5190WAT     H115812   2.160   1.026   7.664
 5190WAT     H215813   2.255   1.077   7.541
 5191WAT      O15814   6.486   8.422   4.882
 5191WAT     H115815   6.525   8.399   4.792
 5191WAT     H215816   6.509   8.350   4.947
 5192WAT      O15817   5.474   0.904   8.946
 5192WAT     H115818   5.417   0.941   9.019
 5192WAT     H215819   5.568   0.937   8.957
 5193WAT      O15820   4.166   5.216   8.162
 5193WAT     H115821   4.182   5.212   8.261
 5193WAT     H215822   4.102   5.145   8.135
 5194WAT      O15823   2.365   6.378   1.143
 5194WAT     H115824   2.308   6.408   1.219
 5194WAT     H215825   2.459   6.409   1.157
 5195WAT      O15826   0.173   3.549   6.925
 5195WAT     H115827   0.222   3.602   6.855
 5195WAT     H215828   0.216   3.460   6.936
 5196WAT      O15829   7.206   7.633   2.141
 5196WAT     H115830   7.302   7.658   2.144
 5196WAT     H215831   7.197   7.533   2.144
 5197WAT      O15832   2.799   3.481   7.124
 5197WAT     H115833   2.856   3.537   7.064
 5197WAT     H215834   2.703   3.496   7.101
 5198WAT      O15835   2.691   9.419   2.628
 5198WAT     H115836   2.659   9.470   2.708
 5198WAT     H215837   2.621   9.423   2.557
 5199WAT      O15838   8.112   3.120   7.595
 5199WAT     H115839   8.119   3.213   7.561
 5199WAT     H215840   8.022   3.083   7.573
 5200WAT      O15841   1.267   4.913   6.847
 5200WAT     H115842   1.303   5.006   6.846
 5200WAT     H215843   1.227   4.892   6.758
 5201WAT      O15844   3.068   2.279   5.859
 5201WAT     H115845   3.016   2.216   5.917
 5201WAT     H215846   3.138   2.325   5.914
 5202WAT      O15847   0.273   2.529   0.640
 5202WAT     H115848   0.342   2.493   0.578
 5202WAT     H215849   0.309   2.609   0.688
 5203WAT      O15850   6.672   2.548   9.555
 5203WAT     H115851   6.685   2.522   9.459
 5203WAT     H215852   6.670   2.648   9.562
 5204WAT      O15853   4.887   7.541   9.876
 5204WAT     H115854   4.835   7.466   9.917
 5204WAT     H215855   4.947   7.582   9.945
 5205WAT      O15856   1.223   5.561   9.497
 5205WAT     H115857   1.183   5.572   9.588
 5205WAT     H215858   1.311   5.607   9.493
 5206WAT      O15859   4.721   7.248   0.371
 5206WAT     H115860   4.749   7.277   0.279
 5206WAT     H215861   4.705   7.328   0.428
 5207WAT      O15862   5.455   8.887   1.230
 5207WAT     H115863   5.433   8.950   1.156
 5207WAT     H215864   5.393   8.809   1.228
 5208WAT      O15865   9.637   1.762   9.875
 5208WAT     H115866   9.550   1.712   9.882
 5208WAT     H215867   9.684   1.760   9.963
 5209WAT      O15868   3.997   3.711   1.196
 5209WAT     H115869   3.906   3.703   1.235
 5209WAT     H215870   4.016   3.632   1.138
 5210WAT      O15871   7.952   6.642   0.644
 5210WAT     H115872   7.973   6.721   0.701
 5210WAT     H215873   7.951   6.670   0.548
 5211WAT      O15874   6.368   9.744   0.828
 5211WAT     H115875   6.319   9.744   0.915
 5211WAT     H215876   6.302   9.751   0.753
 5212WAT      O15877   5.146   4.107   3.037
 5212WAT     H115878   5.180   4.185   2.984
 5212WAT     H215879   5.205   4.092   3.116
 5213WAT      O15880   2.549   3.381   3.266
 5213WAT     H115881   2.507   3.294   3.289
 5213WAT     H215882   2.558   3.437   3.348
 5214WAT      O15883   6.460   7.854   4.446
 5214WAT     H115884   6.367   7.885   4.468
 5214WAT     H215885   6.526   7.914   4.491
 5215WAT      O15886   0.298   8.083   8.366
 5215WAT     H115887   0.230   8.134   8.312
 5215WAT     H215888   0.390   8.115   8.342
 5216WAT      O15889   0.351   1.299   4.879
 5216WAT     H115890   0.339   1.323   4.975
 5216WAT     H215891   0.381   1.379   4.828
 5217WAT      O15892   6.548   6.575   9.239
 5217WAT     H115893   6.631   6.584   9.185
 5217WAT     H215894   6.571   6.550   9.333
 5218WAT      O15895   3.505   0.574   2.117
 5218WAT     H115896   3.533   0.567   2.021
 5218WAT     H215897   3.570   0.524   2.174
 5219WAT      O15898   8.219   3.948   5.371
 5219WAT     H115899   8.189   4.042   5.386
 5219WAT     H215900   8.317   3.947   5.349
 5220WAT      O15901   3.956   3.317   9.469
 5220WAT     H115902   3.919   3.313   9.376
 5220WAT     H215903   4.003   3.231   9.490
 5221WAT      O15904   9.691   3.791   1.198
 5221WAT     H115905   9.693   3.767   1.101
 5221WAT     H215906   9.767   3.853   1.219
 5222WAT      O15907   4.890   3.350   5.233
 5222WAT     H115908   4.885   3.405   5.150
 5222WAT     H215909   4.801   3.350   5.279
 5223WAT      O15910   0.357   1.293   4.596
 5223WAT     H115911   0.367   1.315   4.693
 5223WAT     H215912   0.272   1.241   4.582
 5224WAT      O15913   7.835   1.507   7.403
 5224WAT     H115914   7.929   1.490   7.374
 5224WAT     H215915   7.794   1.423   7.436
 5225WAT      O15916   4.266   3.247   8.981
 5225WAT     H115917   4.274   3.230   9.079
 5225WAT     H215918   4.219   3.334   8.966
 5226WAT      O15919   8.914   4.959   6.574
 5226WAT     H115920   9.009   4.985   6.593
 5226WAT     H215921   8.902   4.948   6.475
 5227WAT      O15922   7.188   3.545   9.622
 5227WAT     H115923   7.193   3.620   9.557
 5227WAT     H215924   7.189   3.458   9.573
 5228WAT      O15925   1.003   2.603   8.347
 5228WAT     H115926   0.929   2.588   8.281
 5228WAT     H215927   1.091   2.579   8.304
 5229WAT      O15928   6.472   3.810   1.157
 5229WAT     H115929   6.499   3.799   1.252
 5229WAT     H215930   6.372   3.821   1.151
 5230WAT      O15931   2.797   1.773   8.989
 5230WAT     H115932   2.807   1.745   9.085
 5230WAT     H215933   2.865   1.842   8.967
 5231WAT      O15934   0.954   9.091   3.842
 5231WAT     H115935   0.885   9.048   3.901
 5231WAT     H215936   1.010   9.019   3.800
 5232WAT      O15937   1.756   3.018   0.805
 5232WAT     H115938   1.737   2.973   0.893
 5232WAT     H215939   1.852   3.044   0.800
 5233WAT      O15940   5.974   7.050   4.478
 5233WAT     H115941   6.056   7.101   4.454
 5233WAT     H215942   5.919   7.034   4.395
 5234WAT      O15943   0.187   0.058   1.932
 5234WAT     H115944   0.102   0.027   1.975
 5234WAT     H215945   0.206   0.152   1.961
 5235WAT      O15946   7.400   5.403   9.032
 5235WAT     H115947   7.393   5.445   8.941
 5235WAT     H215948   7.334   5.445   9.094
 5236WAT      O15949   0.254   6.111   2.384
 5236WAT     H115950   0.159   6.128   2.360
 5236WAT     H215951   0.258   6.052   2.464
 5237WAT      O15952   7.655   1.739   7.863
 5237WAT     H115953   7.557   1.729   7.883
 5237WAT     H215954   7.670   1.732   7.764
 5238WAT      O15955   3.282   4.673   6.168
 5238WAT     H115956   3.367   4.627   6.146
 5238WAT     H215957   3.250   4.725   6.088
 5239WAT      O15958   9.232   3.164   7.334
 5239WAT     H115959   9.220   3.227   7.257
 5239WAT     H215960   9.204   3.210   7.419
 5240WAT      O15961   9.746   1.563   9.709
 5240WAT     H115962   9.724   1.645   9.762
 5240WAT     H215963   9.843   1.566   9.683
 5241WAT      O15964   1.554   7.606   6.248
 5241WAT     H115965   1.534   7.512   6.221
 5241WAT     H215966   1.516   7.624   6.338
 5242WAT      O15967   3.692   9.374   6.734
 5242WAT     H115968   3.598   9.344   6.718
 5242WAT     H215969   3.754   9.327   6.671
 5243WAT      O15970   8.652   1.390   4.579
 5243WAT     H115971   8.637   1.472   4.634
 5243WAT     H215972   8.573   1.375   4.519
 5244WAT      O15973   3.734   2.161   0.085
 5244WAT     H115974   3.718   2.189  -0.010
 5244WAT     H215975   3.719   2.063   0.094
 5245WAT      O15976   0.199   0.945   1.060
 5245WAT     H115977   0.152   0.918   1.145
 5245WAT     H215978   0.289   0.980   1.083
 5246WAT      O15979   2.313   0.743   1.081
 5246WAT     H115980   2.230   0.728   1.135
 5246WAT     H215981   2.290   0.797   1.000
 5247WAT      O15982   5.341   4.011   8.276
 5247WAT     H115983   5.388   3.931   8.240
 5247WAT     H215984   5.263   4.033   8.218
 5248WAT      O15985   1.848   0.717   0.205
 5248WAT     H115986   1.759   0.719   0.159
 5248WAT     H215987   1.881   0.811   0.216
 5249WAT      O15988   5.962   4.237   3.474
 5249WAT     H115989   5.978   4.162   3.539
 5249WAT     H215990   5.864   4.251   3.463
 5250WAT      O15991   9.144   0.311   9.817
 5250WAT     H115992   9.188   0.243   9.759
 5250WAT     H215993   9.173   0.403   9.788
 5251WAT      O15994   5.717   0.897   1.597
 5251WAT     H115995   5.638   0.855   1.552
 5251WAT     H215996   5.795   0.834   1.592
 5252WAT      O15997   2.532   7.381   9.185
 5252WAT     H115998   2.451   7.438   9.201
 5252WAT     H215999   2.613   7.428   9.218
 5253WAT      O16000   8.405   7.051   6.467
 5253WAT     H116001   8.364   7.008   6.548
 5253WAT     H216002   8.335   7.102   6.417
 5254WAT      O16003   6.811   5.793   1.093
 5254WAT     H116004   6.790   5.769   0.999
 5254WAT     H216005   6.896   5.846   1.096
 5255WAT      O16006   6.839   3.924   0.084
 5255WAT     H116007   6.918   3.915   0.144
 5255WAT     H216008   6.768   3.860   0.112
 5256WAT      O16009   5.799   5.319   7.991
 5256WAT     H116010   5.882   5.367   7.963
 5256WAT     H216011   5.803   5.225   7.959
 5257WAT      O16012   9.591   3.793   6.464
 5257WAT     H116013   9.551   3.729   6.530
 5257WAT     H216014   9.568   3.762   6.371
 5258WAT      O16015   3.022   8.289   5.459
 5258WAT     H116016   2.993   8.345   5.381
 5258WAT     H216017   2.946   8.230   5.486
 5259WAT      O16018   9.148   8.022   6.588
 5259WAT     H116019   9.095   7.942   6.616
 5259WAT     H216020   9.175   8.074   6.669
 5260WAT      O16021   3.299   2.561   7.412
 5260WAT     H116022   3.259   2.525   7.496
 5260WAT     H216023   3.279   2.498   7.336
 5261WAT      O16024   3.253   0.591   7.715
 5261WAT     H116025   3.244   0.673   7.659
 5261WAT     H216026   3.193   0.599   7.795
 5262WAT      O16027   6.511   6.460   6.708
 5262WAT     H116028   6.491   6.362   6.698
 5262WAT     H216029   6.607   6.476   6.687
 5263WAT      O16030   7.816   3.126   4.569
 5263WAT     H116031   7.740   3.069   4.600
 5263WAT     H216032   7.784   3.190   4.500
 5264WAT      O16033   0.658   1.491   3.700
 5264WAT     H116034   0.559   1.484   3.688
 5264WAT     H216035   0.684   1.458   3.791
 5265WAT      O16036   9.130   2.656   7.396
 5265WAT     H116037   9.116   2.747   7.357
 5265WAT     H216038   9.217   2.655   7.447
 5266WAT      O16039   4.609   1.046   5.802
 5266WAT     H116040   4.572   1.000   5.883
 5266WAT     H216041   4.702   1.077   5.820
 5267WAT      O16042   6.884   8.226   5.923
 5267WAT     H116043   6.868   8.237   6.021
 5267WAT     H216044   6.846   8.138   5.893
 5268WAT      O16045   1.444   9.460   6.291
 5268WAT     H116046   1.416   9.422   6.380
 5268WAT     H216047   1.495   9.391   6.240
 5269WAT      O16048   4.303   5.932   4.932
 5269WAT     H116049   4.293   6.022   4.975
 5269WAT     H216050   4.392   5.927   4.886
 5270WAT      O16051   2.865   5.976   1.738
 5270WAT     H116052   2.882   5.966   1.837
 5270WAT     H216053   2.952   5.969   1.689
 5271WAT      O16054   5.886   7.194   5.992
 5271WAT     H116055   5.859   7.160   6.082
 5271WAT     H216056   5.878   7.120   5.925
 5272WAT      O16057   2.741   4.438   2.903
 5272WAT     H116058   2.841   4.434   2.909
 5272WAT     H216059   2.712   4.533   2.899
 5273WAT      O16060   9.125   1.864   0.223
 5273WAT     H116061   9.157   1.770   0.217
 5273WAT     H216062   9.057   1.881   0.152
 5274WAT      O16063   0.667   9.171   0.471
 5274WAT     H116064   0.712   9.187   0.384
 5274WAT     H216065   0.661   9.072   0.488
 5275WAT      O16066   1.974   4.270   4.295
 5275WAT     H116067   1.942   4.196   4.355
 5275WAT     H216068   2.071   4.286   4.312
 5276WAT      O16069   5.624   2.944   4.350
 5276WAT     H116070   5.678   2.991   4.281
 5276WAT     H216071   5.604   2.851   4.320
 5277WAT      O16072   1.174   8.042   8.556
 5277WAT     H116073   1.227   7.965   8.519
 5277WAT     H216074   1.077   8.027   8.536
 5278WAT      O16075   5.472   6.631   7.079
 5278WAT     H116076   5.429   6.579   7.153
 5278WAT     H216077   5.572   6.625   7.088
 5279WAT      O16078   3.837   0.695   7.866
 5279WAT     H116079   3.838   0.663   7.771
 5279WAT     H216080   3.796   0.786   7.870
 5280WAT      O16081   9.753   6.003   2.683
 5280WAT     H116082   9.725   6.096   2.658
 5280WAT     H216083   9.746   5.991   2.782
 5281WAT      O16084   5.806   7.629   3.146
 5281WAT     H116085   5.818   7.689   3.225
 5281WAT     H216086   5.719   7.651   3.101
 5282WAT      O16087   3.940   5.648   3.552
 5282WAT     H116088   4.034   5.620   3.533
 5282WAT     H216089   3.940   5.721   3.620
 5283WAT      O16090   3.253   0.552   6.492
 5283WAT     H116091   3.289   0.549   6.585
 5283WAT     H216092   3.154   0.569   6.495
 5284WAT      O16093   5.323   2.376   4.896
 5284WAT     H116094   5.407   2.399   4.846
 5284WAT     H216095   5.299   2.281   4.879
 5285WAT      O16096   1.064   3.367   3.614
 5285WAT     H116097   1.118   3.443   3.648
 5285WAT     H216098   0.971   3.374   3.649
 5286WAT      O16099   6.854   0.841   6.869
 5286WAT     H116100   6.767   0.882   6.896
 5286WAT     H216101   6.903   0.811   6.951
 5287WAT      O16102   0.733   9.412   6.653
 5287WAT     H116103   0.766   9.322   6.682
 5287WAT     H216104   0.653   9.437   6.706
 5288WAT      O16105   8.329   0.194   5.730
 5288WAT     H116106   8.288   0.140   5.803
 5288WAT     H216107   8.429   0.187   5.736
 5289WAT      O16108   7.773   2.443   6.808
 5289WAT     H116109   7.778   2.367   6.744
 5289WAT     H216110   7.820   2.522   6.769
 5290WAT      O16111   8.639   9.219   0.135
 5290WAT     H116112   8.686   9.304   0.111
 5290WAT     H216113   8.582   9.235   0.215
 5291WAT      O16114   8.933   5.814   9.337
 5291WAT     H116115   8.846   5.817   9.287
 5291WAT     H216116   8.999   5.760   9.286
 5292WAT      O16117   8.232   4.213   8.696
 5292WAT     H116118   8.283   4.150   8.755
 5292WAT     H216119   8.187   4.282   8.753
 5293WAT      O16120   0.869   8.110   2.340
 5293WAT     H116121   0.811   8.131   2.419
 5293WAT     H216122   0.814   8.068   2.268
 5294WAT      O16123   0.481   4.756   8.087
 5294WAT     H116124   0.473   4.662   8.054
 5294WAT     H216125   0.571   4.770   8.128
 5295WAT      O16126   0.995   5.903   2.285
 5295WAT     H116127   1.038   5.992   2.291
 5295WAT     H216128   0.896   5.913   2.294
 5296WAT      O16129   2.541   7.199   8.955
 5296WAT     H116130   2.493   7.256   8.887
 5296WAT     H216131   2.558   7.253   9.037
 5297WAT      O16132   3.853   3.497   5.710
 5297WAT     H116133   3.772   3.464   5.758
 5297WAT     H216134   3.915   3.540   5.775
 5298WAT      O16135   9.209   6.973   0.585
 5298WAT     H116136   9.216   6.879   0.551
 5298WAT     H216137   9.125   6.983   0.639
 5299WAT      O16138   0.303   0.545   7.328
 5299WAT     H116139   0.257   0.623   7.286
 5299WAT     H216140   0.288   0.464   7.271
 5300WAT      O16141   3.338   3.638   4.938
 5300WAT     H116142   3.435   3.626   4.960
 5300WAT     H216143   3.326   3.718   4.881
 5301WAT      O16144   0.414   7.619   7.371
 5301WAT     H116145   0.498   7.646   7.324
 5301WAT     H216146   0.387   7.691   7.435
 5302WAT      O16147   8.906   4.850   5.850
 5302WAT     H116148   8.821   4.818   5.808
 5302WAT     H216149   8.966   4.773   5.867
 5303WAT      O16150   9.382   0.841   2.516
 5303WAT     H116151   9.320   0.906   2.472
 5303WAT     H216152   9.347   0.818   2.606
 5304WAT      O16153   8.081   9.071   2.379
 5304WAT     H116154   8.046   9.150   2.429
 5304WAT     H216155   8.102   9.098   2.285
 5305WAT      O16156   9.540   3.705   3.773
 5305WAT     H116157   9.502   3.796   3.789
 5305WAT     H216158   9.630   3.713   3.730
 5306WAT      O16159   7.396   5.100   4.039
 5306WAT     H116160   7.355   5.074   4.126
 5306WAT     H216161   7.495   5.084   4.042
 5307WAT      O16162   2.381   7.162   7.985
 5307WAT     H116163   2.301   7.101   7.983
 5307WAT     H216164   2.464   7.108   7.972
 5308WAT      O16165   1.774   2.831   2.566
 5308WAT     H116166   1.741   2.818   2.473
 5308WAT     H216167   1.793   2.741   2.607
 5309WAT      O16168   3.129   6.186   0.086
 5309WAT     H116169   3.114   6.154  -0.008
 5309WAT     H216170   3.040   6.204   0.129
 5310WAT      O16171   4.954   5.758   0.543
 5310WAT     H116172   4.930   5.765   0.639
 5310WAT     H216173   4.965   5.849   0.504
 5311WAT      O16174   6.049   0.496   8.210
 5311WAT     H116175   6.039   0.520   8.306
 5311WAT     H216176   6.146   0.491   8.187
 5312WAT      O16177   9.663   7.758   9.741
 5312WAT     H116178   9.743   7.698   9.736
 5312WAT     H216179   9.580   7.702   9.731
 5313WAT      O16180   7.168   3.146   2.945
 5313WAT     H116181   7.147   3.051   2.920
 5313WAT     H216182   7.158   3.157   3.044
 5314WAT      O16183   3.889   0.594   6.241
 5314WAT     H116184   3.960   0.642   6.293
 5314WAT     H216185   3.799   0.624   6.272
 5315WAT      O16186   5.117   1.069   1.629
 5315WAT     H116187   5.094   1.130   1.705
 5315WAT     H216188   5.212   1.085   1.601
 5316WAT      O16189   5.580   9.530   6.633
 5316WAT     H116190   5.565   9.448   6.688
 5316WAT     H216191   5.560   9.611   6.688
 5317WAT      O16192   7.639   6.775   5.902
 5317WAT     H116193   7.618   6.707   5.832
 5317WAT     H216194   7.558   6.794   5.956
 5318WAT      O16195   2.653   4.776   4.213
 5318WAT     H116196   2.601   4.761   4.298
 5318WAT     H216197   2.723   4.845   4.228
 5319WAT      O16198   1.564   0.116   2.092
 5319WAT     H116199   1.512   0.114   2.178
 5319WAT     H216200   1.583   0.023   2.062
 5320WAT      O16201   8.430   1.604   1.060
 5320WAT     H116202   8.497   1.678   1.058
 5320WAT     H216203   8.461   1.533   1.124
 5321WAT      O16204   5.046   2.082   5.501
 5321WAT     H116205   5.042   2.074   5.600
 5321WAT     H216206   5.059   1.991   5.460
 5322WAT      O16207   3.265   5.400   2.509
 5322WAT     H116208   3.224   5.489   2.489
 5322WAT     H216209   3.292   5.356   2.423
 5323WAT      O16210   2.425   4.007   3.119
 5323WAT     H116211   2.495   3.945   3.086
 5323WAT     H216212   2.466   4.074   3.182
 5324WAT      O16213   8.660   6.500   0.667
 5324WAT     H116214   8.674   6.545   0.755
 5324WAT     H216215   8.677   6.402   0.678
 5325WAT      O16216   9.761   2.685   1.710
 5325WAT     H116217   9.769   2.730   1.799
 5325WAT     H216218   9.852   2.675   1.669
 5326WAT      O16219   8.542   6.384   4.572
 5326WAT     H116220   8.555   6.285   4.579
 5326WAT     H216221   8.623   6.430   4.609
 5327WAT      O16222   5.075   4.833   1.850
 5327WAT     H116223   5.085   4.733   1.856
 5327WAT     H216224   5.161   4.873   1.817
 5328WAT      O16225   8.425   7.968   2.419
 5328WAT     H116226   8.331   7.983   2.447
 5328WAT     H216227   8.439   8.003   2.326
 5329WAT      O16228   2.968   8.208   8.746
 5329WAT     H116229   2.950   8.127   8.692
 5329WAT     H216230   2.885   8.237   8.792
 5330WAT      O16231   1.231   3.692   7.805
 5330WAT     H116232   1.176   3.630   7.862
 5330WAT     H216233   1.292   3.638   7.748
 5331WAT      O16234   7.544   8.924   1.448
 5331WAT     H116235   7.530   8.903   1.351
 5331WAT     H216236   7.626   8.979   1.458
 5332WAT      O16237   4.119   4.823   7.706
 5332WAT     H116238   4.026   4.787   7.708
 5332WAT     H216239   4.179   4.758   7.661
 5333WAT      O16240   5.566   5.175   7.146
 5333WAT     H116241   5.499   5.196   7.075
 5333WAT     H216242   5.605   5.260   7.182
 5334WAT      O16243   8.096   4.547   8.148
 5334WAT     H116244   8.191   4.529   8.122
 5334WAT     H216245   8.037   4.477   8.110
 5335WAT      O16246   3.660   6.737   0.617
 5335WAT     H116247   3.693   6.817   0.667
 5335WAT     H216248   3.737   6.697   0.566
 5336WAT      O16249   8.049   3.382   5.094
 5336WAT     H116250   8.098   3.351   5.013
 5336WAT     H216251   7.975   3.443   5.067
 5337WAT      O16252   2.891   6.235   0.195
 5337WAT     H116253   2.825   6.310   0.185
 5337WAT     H216254   2.843   6.150   0.214
 5338WAT      O16255   8.958   7.769   5.819
 5338WAT     H116256   8.910   7.813   5.743
 5338WAT     H216257   8.950   7.826   5.901
 5339WAT      O16258   6.576   9.580   9.003
 5339WAT     H116259   6.564   9.586   9.102
 5339WAT     H216260   6.624   9.661   8.970
 5340WAT      O16261   7.618   0.628   6.151
 5340WAT     H116262   7.614   0.677   6.064
 5340WAT     H216263   7.711   0.594   6.165
 5341WAT      O16264   3.089   9.732   3.359
 5341WAT     H116265   3.161   9.795   3.388
 5341WAT     H216266   3.026   9.717   3.435
 5342WAT      O16267   9.090   3.365   3.701
 5342WAT     H116268   9.185   3.392   3.717
 5342WAT     H216269   9.078   3.344   3.604
 5343WAT      O16270   9.603   6.380   8.455
 5343WAT     H116271   9.565   6.323   8.528
 5343WAT     H216272   9.677   6.331   8.410
 5344WAT      O16273   3.543   6.997   5.347
 5344WAT     H116274   3.555   6.956   5.257
 5344WAT     H216275   3.589   7.086   5.350
 5345WAT      O16276   8.181   7.009   0.584
 5345WAT     H116277   8.253   7.015   0.653
 5345WAT     H216278   8.099   7.057   0.615
 5346WAT      O16279   5.133   8.993   0.372
 5346WAT     H116280   5.109   9.090   0.379
 5346WAT     H216281   5.225   8.983   0.335
 5347WAT      O16282   9.374   5.692   2.298
 5347WAT     H116283   9.408   5.743   2.219
 5347WAT     H216284   9.435   5.706   2.375
 5348WAT      O16285   6.863   7.580   7.646
 5348WAT     H116286   6.862   7.590   7.746
 5348WAT     H216287   6.913   7.496   7.622
 5349WAT      O16288   9.231   5.162   3.411
 5349WAT     H116289   9.153   5.099   3.406
 5349WAT     H216290   9.299   5.125   3.475
 5350WAT      O16291   2.446   6.643   0.961
 5350WAT     H116292   2.539   6.661   0.928
 5350WAT     H216293   2.423   6.708   1.034
 5351WAT      O16294   0.417   9.423   4.270
 5351WAT     H116295   0.421   9.512   4.225
 5351WAT     H216296   0.462   9.428   4.360
 5352WAT      O16297   4.067   4.369   0.875
 5352WAT     H116298   4.080   4.273   0.899
 5352WAT     H216299   4.019   4.375   0.788
 5353WAT      O16300   5.676   1.281   4.279
 5353WAT     H116301   5.698   1.194   4.235
 5353WAT     H216302   5.637   1.344   4.211
 5354WAT      O16303   3.515   8.283   8.957
 5354WAT     H116304   3.470   8.201   8.993
 5354WAT     H216305   3.614   8.275   8.970
 5355WAT      O16306   7.799   2.079   5.747
 5355WAT     H116307   7.842   2.137   5.816
 5355WAT     H216308   7.771   1.993   5.787
 5356WAT      O16309   6.950   1.096   6.305
 5356WAT     H116310   6.860   1.113   6.344
 5356WAT     H216311   6.951   1.006   6.260
 5357WAT      O16312   2.273   2.001   0.562
 5357WAT     H116313   2.366   1.976   0.535
 5357WAT     H216314   2.254   1.963   0.652
 5358WAT      O16315   8.158   5.319   1.223
 5358WAT     H116316   8.190   5.366   1.305
 5358WAT     H216317   8.237   5.287   1.170
 5359WAT      O16318   1.086   2.233   7.814
 5359WAT     H116319   1.094   2.310   7.878
 5359WAT     H216320   1.109   2.148   7.861
 5360WAT      O16321   2.232   5.820   2.107
 5360WAT     H116322   2.315   5.788   2.061
 5360WAT     H216323   2.213   5.764   2.187
 5361WAT      O16324   0.153   9.349   5.857
 5361WAT     H116325   0.234   9.353   5.917
 5361WAT     H216326   0.101   9.266   5.878
 5362WAT      O16327   3.602   5.128   0.440
 5362WAT     H116328   3.553   5.071   0.374
 5362WAT     H216329   3.700   5.127   0.419
 5363WAT      O16330   1.518   7.582   4.599
 5363WAT     H116331   1.511   7.680   4.617
 5363WAT     H216332   1.575   7.567   4.518
 5364WAT      O16333   6.075   4.673   6.238
 5364WAT     H116334   6.152   4.619   6.203
 5364WAT     H216335   6.109   4.758   6.277
 5365WAT      O16336   5.876   6.989   5.829
 5365WAT     H116337   5.874   7.044   5.745
 5365WAT     H216338   5.815   6.910   5.819
 5366WAT      O16339   7.495   8.180   8.357
 5366WAT     H116340   7.474   8.200   8.452
 5366WAT     H216341   7.421   8.211   8.298
 5367WAT      O16342   7.625   7.110   6.554
 5367WAT     H116343   7.705   7.168   6.570
 5367WAT     H216344   7.645   7.047   6.479
 5368WAT      O16345   1.383   5.319   1.748
 5368WAT     H116346   1.357   5.320   1.652
 5368WAT     H216347   1.355   5.405   1.791
 5369WAT      O16348   4.984   2.555   7.477
 5369WAT     H116349   4.941   2.526   7.391
 5369WAT     H216350   5.081   2.533   7.474
 5370WAT      O16351   0.700   1.236   2.395
 5370WAT     H116352   0.612   1.258   2.355
 5370WAT     H216353   0.760   1.316   2.390
 5371WAT      O16354   0.720   0.372   8.186
 5371WAT     H116355   0.632   0.326   8.170
 5371WAT     H216356   0.705   0.471   8.193
 5372WAT      O16357   1.406   1.359   3.704
 5372WAT     H116358   1.465   1.415   3.762
 5372WAT     H216359   1.462   1.295   3.651
 5373WAT      O16360   6.847   0.419   7.374
 5373WAT     H116361   6.750   0.415   7.348
 5373WAT     H216362   6.890   0.330   7.355
 5374WAT      O16363   1.910   4.794   1.280
 5374WAT     H116364   1.846   4.728   1.318
 5374WAT     H216365   1.977   4.820   1.350
 5375WAT      O16366   5.253   2.140   6.993
 5375WAT     H116367   5.276   2.159   6.897
 5375WAT     H216368   5.156   2.158   7.008
 5376WAT      O16369   4.361   3.059   5.320
 5376WAT     H116370   4.298   3.125   5.279
 5376WAT     H216371   4.394   2.997   5.249
 5377WAT      O16372   7.699   8.082   2.152
 5377WAT     H116373   7.725   8.113   2.244
 5377WAT     H216374   7.782   8.072   2.097
 5378WAT      O16375   5.419   0.699   3.481
 5378WAT     H116376   5.360   0.696   3.401
 5378WAT     H216377   5.468   0.786   3.484
 5379WAT      O16378   7.178   4.261   2.888
 5379WAT     H116379   7.191   4.354   2.854
 5379WAT     H216380   7.081   4.237   2.884
 5380WAT      O16381   3.172   4.297   1.963
 5380WAT     H116382   3.106   4.368   1.939
 5380WAT     H216383   3.126   4.209   1.967
 5381WAT      O16384   2.842   4.919   5.632
 5381WAT     H116385   2.767   4.947   5.572
 5381WAT     H216386   2.929   4.949   5.593
 5382WAT      O16387   5.596   1.749   3.211
 5382WAT     H116388   5.582   1.798   3.298
 5382WAT     H216389   5.543   1.794   3.140
 5383WAT      O16390   0.099   5.649   8.017
 5383WAT     H116391  -0.001   5.660   8.014
 5383WAT     H216392   0.142   5.739   8.021
 5384WAT      O16393   5.104   4.092   7.366
 5384WAT     H116394   5.176   4.101   7.435
 5384WAT     H216395   5.145   4.064   7.279
 5385WAT      O16396   8.884   2.539   1.725
 5385WAT     H116397   8.869   2.616   1.786
 5385WAT     H216398   8.837   2.556   1.638
 5386WAT      O16399   7.537   3.719   0.543
 5386WAT     H116400   7.632   3.713   0.573
 5386WAT     H216401   7.532   3.779   0.463
 5387WAT      O16402   4.480   6.482   8.394
 5387WAT     H116403   4.469   6.428   8.310
 5387WAT     H216404   4.552   6.550   8.380
 5388WAT      O16405   2.322   5.033   5.349
 5388WAT     H116406   2.273   4.984   5.277
 5388WAT     H216407   2.279   5.013   5.437
 5389WAT      O16408   7.138   6.893   4.600
 5389WAT     H116409   7.141   6.937   4.690
 5389WAT     H216410   7.228   6.856   4.578
 5390WAT      O16411   6.723   5.974   8.233
 5390WAT     H116412   6.821   5.987   8.247
 5390WAT     H216413   6.684   5.923   8.310
 5391WAT      O16414   1.918   8.812   6.306
 5391WAT     H116415   1.879   8.843   6.219
 5391WAT     H216416   1.846   8.769   6.361
 5392WAT      O16417   6.212   5.232   6.654
 5392WAT     H116418   6.219   5.189   6.744
 5392WAT     H216419   6.303   5.255   6.621
 5393WAT      O16420   4.106   7.722   9.480
 5393WAT     H116421   4.039   7.753   9.412
 5393WAT     H216422   4.124   7.795   9.546
 5394WAT      O16423   1.118   9.317   7.324
 5394WAT     H116424   1.152   9.410   7.313
 5394WAT     H216425   1.174   9.254   7.269
 5395WAT      O16426   1.975   1.019   1.826
 5395WAT     H116427   1.984   1.071   1.741
 5395WAT     H216428   1.882   0.981   1.832
 5396WAT      O16429   0.183   5.609   6.268
 5396WAT     H116430   0.230   5.597   6.181
 5396WAT     H216431   0.214   5.693   6.312
 5397WAT      O16432   9.729   8.330   2.173
 5397WAT     H116433   9.723   8.240   2.129
 5397WAT     H216434   9.637   8.360   2.199
 5398WAT      O16435   9.721   1.511   4.970
 5398WAT     H116436   9.757   1.418   4.984
 5398WAT     H216437   9.626   1.506   4.938
 5399WAT      O16438   0.351   1.581   4.779
 5399WAT     H116439   0.316   1.657   4.834
 5399WAT     H216440   0.436   1.607   4.735
 5400WAT      O16441   6.144   7.406   6.241
 5400WAT     H116442   6.052   7.399   6.280
 5400WAT     H216443   6.192   7.320   6.254
 5401WAT      O16444   2.493   1.448   7.715
 5401WAT     H116445   2.414   1.509   7.729
 5401WAT     H216446   2.515   1.445   7.618
 5402WAT      O16447   9.763   0.774   4.884
 5402WAT     H116448   9.708   0.764   4.801
 5402WAT     H216449   9.702   0.784   4.963
 5403WAT      O16450   5.865   6.323   8.378
 5403WAT     H116451   5.931   6.377   8.326
 5403WAT     H216452   5.811   6.267   8.316
 5404WAT      O16453   2.726   1.611   5.582
 5404WAT     H116454   2.823   1.630   5.597
 5404WAT     H216455   2.698   1.649   5.494
 5405WAT      O16456   3.684   6.914   4.349
 5405WAT     H116457   3.710   7.006   4.318
 5405WAT     H216458   3.645   6.920   4.440
 5406WAT      O16459   0.290   3.649   1.047
 5406WAT     H116460   0.219   3.578   1.049
 5406WAT     H216461   0.252   3.735   1.081
 5407WAT      O16462   3.619   4.508   4.985
 5407WAT     H116463   3.543   4.545   5.038
 5407WAT     H216464   3.705   4.524   5.033
 5408WAT      O16465   6.855   0.058   7.846
 5408WAT     H116466   6.766   0.053   7.801
 5408WAT     H216467   6.887   0.153   7.845
 5409WAT      O16468   2.940   2.149   8.062
 5409WAT     H116469   2.953   2.147   7.963
 5409WAT     H216470   2.936   2.244   8.094
 5410WAT      O16471   0.257   6.836   7.739
 5410WAT     H116472   0.328   6.894   7.779
 5410WAT     H216473   0.181   6.893   7.707
 5411WAT      O16474   4.083   3.458   3.707
 5411WAT     H116475   4.108   3.466   3.611
 5411WAT     H216476   4.088   3.362   3.735
 5412WAT      O16477   5.694   0.985   6.545
 5412WAT     H116478   5.739   0.897   6.532
 5412WAT     H216479   5.757   1.059   6.519
 5413WAT      O16480   3.434   8.628   0.944
 5413WAT     H116481   3.367   8.601   1.013
 5413WAT     H216482   3.406   8.593   0.854
 5414WAT      O16483   8.712   0.225   2.510
 5414WAT     H116484   8.743   0.219   2.415
 5414WAT     H216485   8.766   0.293   2.559
 5415WAT      O16486   7.485   4.803   5.856
 5415WAT     H116487   7.532   4.724   5.816
 5415WAT     H216488   7.504   4.884   5.801
 5416WAT      O16489   3.421   3.038   9.408
 5416WAT     H116490   3.401   3.064   9.314
 5416WAT     H216491   3.518   3.053   9.427
 5417WAT      O16492   2.469   0.417   5.878
 5417WAT     H116493   2.498   0.485   5.945
 5417WAT     H216494   2.369   0.416   5.872
 5418WAT      O16495   7.252   0.213   7.824
 5418WAT     H116496   7.331   0.209   7.885
 5418WAT     H216497   7.276   0.264   7.741
 5419WAT      O16498   0.955   2.042   5.037
 5419WAT     H116499   0.982   2.120   5.094
 5419WAT     H216500   1.030   1.976   5.032
 5420WAT      O16501   1.876   6.792   6.984
 5420WAT     H116502   1.949   6.769   7.048
 5420WAT     H216503   1.914   6.845   6.908
 5421WAT      O16504   9.365   6.821   0.801
 5421WAT     H116505   9.308   6.764   0.742
 5421WAT     H216506   9.444   6.768   0.832
 5422WAT      O16507   4.739   0.815   7.720
 5422WAT     H116508   4.779   0.802   7.629
 5422WAT     H216509   4.643   0.842   7.711
 5423WAT      O16510   3.632   2.554   0.643
 5423WAT     H116511   3.564   2.530   0.712
 5423WAT     H216512   3.714   2.498   0.656
 5424WAT      O16513   1.467   3.285   3.555
 5424WAT     H116514   1.414   3.294   3.470
 5424WAT     H216515   1.493   3.376   3.587
 5425WAT      O16516   3.048   2.368   9.365
 5425WAT     H116517   2.999   2.437   9.311
 5425WAT     H216518   3.120   2.413   9.417
 5426WAT      O16519   1.526   1.862   7.862
 5426WAT     H116520   1.577   1.779   7.888
 5426WAT     H216521   1.452   1.837   7.800
 5427WAT      O16522   2.816   9.472   7.171
 5427WAT     H116523   2.808   9.561   7.215
 5427WAT     H216524   2.818   9.483   7.072
 5428WAT      O16525   5.121   7.826   6.360
 5428WAT     H116526   5.056   7.863   6.427
 5428WAT     H216527   5.209   7.810   6.405
 5429WAT      O16528   7.358   3.119   4.771
 5429WAT     H116529   7.342   3.139   4.867
 5429WAT     H216530   7.276   3.079   4.730
 5430WAT      O16531   2.949   8.478   2.869
 5430WAT     H116532   2.905   8.567   2.854
 5430WAT     H216533   2.936   8.450   2.964
 5431WAT      O16534   1.094   1.186   0.257
 5431WAT     H116535   1.081   1.200   0.159
 5431WAT     H216536   1.158   1.254   0.292
 5432WAT      O16537   3.607   5.770   3.161
 5432WAT     H116538   3.538   5.836   3.130
 5432WAT     H216539   3.566   5.711   3.231
 5433WAT      O16540   0.225   4.328   5.769
 5433WAT     H116541   0.243   4.338   5.671
 5433WAT     H216542   0.255   4.409   5.818
 5434WAT      O16543   0.743   1.217   8.341
 5434WAT     H116544   0.676   1.223   8.268
 5434WAT     H216545   0.724   1.136   8.397
 5435WAT      O16546   0.499   3.634   7.481
 5435WAT     H116547   0.482   3.606   7.386
 5435WAT     H216548   0.575   3.580   7.518
 5436WAT      O16549   3.291   8.176   7.755
 5436WAT     H116550   3.272   8.101   7.819
 5436WAT     H216551   3.376   8.222   7.782
 5437WAT      O16552   6.201   3.566   7.567
 5437WAT     H116553   6.194   3.497   7.639
 5437WAT     H216554   6.247   3.647   7.603
 5438WAT      O16555   5.778   9.590   4.897
 5438WAT     H116556   5.789   9.645   4.815
 5438WAT     H216557   5.862   9.595   4.952
 5439WAT      O16558   7.153   4.033   0.585
 5439WAT     H116559   7.120   4.084   0.664
 5439WAT     H216560   7.226   3.971   0.613
 5440WAT      O16561   6.677   5.130   5.283
 5440WAT     H116562   6.646   5.215   5.325
 5440WAT     H216563   6.761   5.098   5.328
 5441WAT      O16564   3.221   3.876   4.855
 5441WAT     H116565   3.181   3.944   4.794
 5441WAT     H216566   3.154   3.849   4.924
 5442WAT      O16567   4.263   0.341   5.968
 5442WAT     H116568   4.298   0.428   5.935
 5442WAT     H216569   4.180   0.356   6.022
 5443WAT      O16570   2.976   2.207   4.382
 5443WAT     H116571   2.919   2.279   4.343
 5443WAT     H216572   3.038   2.246   4.451
 5444WAT      O16573   7.176   5.362   8.791
 5444WAT     H116574   7.190   5.369   8.693
 5444WAT     H216575   7.137   5.273   8.814
 5445WAT      O16576   3.945   4.893   1.891
 5445WAT     H116577   3.946   4.794   1.901
 5445WAT     H216578   3.983   4.935   1.974
 5446WAT      O16579   4.426   6.580   8.652
 5446WAT     H116580   4.426   6.525   8.568
 5446WAT     H216581   4.496   6.546   8.714
 5447WAT      O16582   6.817   6.804   7.636
 5447WAT     H116583   6.822   6.757   7.724
 5447WAT     H216584   6.729   6.785   7.593
 5448WAT      O16585   8.862   6.709   1.866
 5448WAT     H116586   8.907   6.798   1.852
 5448WAT     H216587   8.899   6.643   1.800
 5449WAT      O16588   8.705   0.579   6.722
 5449WAT     H116589   8.735   0.494   6.678
 5449WAT     H216590   8.621   0.612   6.678
 5450WAT      O16591   4.406   6.461   6.926
 5450WAT     H116592   4.462   6.534   6.964
 5450WAT     H216593   4.317   6.496   6.899
 5451WAT      O16594   7.805   7.056   5.432
 5451WAT     H116595   7.717   7.052   5.385
 5451WAT     H216596   7.829   7.151   5.449
 5452WAT      O16597   9.868   9.686   7.403
 5452WAT     H116598   9.849   9.724   7.313
 5452WAT     H216599   9.924   9.604   7.393
 5453WAT      O16600   3.888   8.059   3.604
 5453WAT     H116601   3.947   8.078   3.682
 5453WAT     H216602   3.898   8.130   3.535
 5454WAT      O16603   6.236   3.156   7.462
 5454WAT     H116604   6.232   3.185   7.557
 5454WAT     H216605   6.165   3.087   7.445
 5455WAT      O16606   8.121   0.439   0.954
 5455WAT     H116607   8.166   0.355   0.983
 5455WAT     H216608   8.022   0.428   0.964
 5456WAT      O16609   5.415   7.906   3.909
 5456WAT     H116610   5.325   7.945   3.931
 5456WAT     H216611   5.475   7.979   3.875
 5457WAT      O16612   4.349   2.548   9.351
 5457WAT     H116613   4.324   2.643   9.367
 5457WAT     H216614   4.338   2.496   9.436
 5458WAT      O16615   7.755   3.244   0.912
 5458WAT     H116616   7.675   3.295   0.941
 5458WAT     H216617   7.799   3.290   0.835
 5459WAT      O16618   1.678   3.160   6.679
 5459WAT     H116619   1.732   3.076   6.683
 5459WAT     H216620   1.581   3.137   6.670
 5460WAT      O16621   8.813   3.758   4.598
 5460WAT     H116622   8.724   3.712   4.608
 5460WAT     H216623   8.883   3.703   4.643
 5461WAT      O16624   9.284   4.183   7.554
 5461WAT     H116625   9.383   4.172   7.569
 5461WAT     H216626   9.252   4.112   7.492
 5462WAT      O16627   5.472   6.927   5.011
 5462WAT     H116628   5.472   7.027   5.018
 5462WAT     H216629   5.507   6.901   4.921
 5463WAT      O16630   7.370   7.111   5.696
 5463WAT     H116631   7.300   7.042   5.678
 5463WAT     H216632   7.364   7.183   5.627
 5464WAT      O16633   1.575   6.899   2.923
 5464WAT     H116634   1.551   6.861   3.012
 5464WAT     H216635   1.555   6.997   2.921
 5465WAT      O16636   9.592   8.780   5.087
 5465WAT     H116637   9.666   8.812   5.027
 5465WAT     H216638   9.543   8.705   5.042
 5466WAT      O16639   8.747   3.825   0.730
 5466WAT     H116640   8.825   3.794   0.784
 5466WAT     H216641   8.695   3.893   0.782
 5467WAT      O16642   1.593   2.788   5.834
 5467WAT     H116643   1.552   2.878   5.851
 5467WAT     H216644   1.521   2.720   5.825
 5468WAT      O16645   5.210   0.702   0.657
 5468WAT     H116646   5.217   0.661   0.566
 5468WAT     H216647   5.192   0.800   0.648
 5469WAT      O16648   6.751   9.443   7.247
 5469WAT     H116649   6.822   9.475   7.185
 5469WAT     H216650   6.661   9.472   7.212
 5470WAT      O16651   4.098   2.828   3.065
 5470WAT     H116652   4.003   2.805   3.045
 5470WAT     H216653   4.137   2.758   3.125
 5471WAT      O16654   5.803   0.866   5.170
 5471WAT     H116655   5.851   0.937   5.221
 5471WAT     H216656   5.850   0.778   5.183
 5472WAT      O16657   1.685   0.907   4.768
 5472WAT     H116658   1.609   0.931   4.828
 5472WAT     H216659   1.691   0.808   4.758
 5473WAT      O16660   3.765   3.963   7.311
 5473WAT     H116661   3.810   3.883   7.351
 5473WAT     H216662   3.778   3.962   7.212
 5474WAT      O16663   7.821   5.251   8.711
 5474WAT     H116664   7.860   5.322   8.653
 5474WAT     H216665   7.725   5.238   8.687
 5475WAT      O16666   6.851   3.005   1.048
 5475WAT     H116667   6.820   3.096   1.020
 5475WAT     H216668   6.838   2.941   0.973
 5476WAT      O16669   1.921   1.300   6.358
 5476WAT     H116670   1.861   1.380   6.369
 5476WAT     H216671   2.013   1.331   6.332
 5477WAT      O16672   3.508   1.619   9.386
 5477WAT     H116673   3.541   1.552   9.453
 5477WAT     H216674   3.550   1.600   9.298
 5478WAT      O16675   4.701   3.656   7.246
 5478WAT     H116676   4.783   3.605   7.222
 5478WAT     H216677   4.664   3.702   7.165
 5479WAT      O16678   5.157   6.872   8.110
 5479WAT     H116679   5.255   6.870   8.091
 5479WAT     H216680   5.124   6.779   8.124
 5480WAT      O16681   9.730   5.102   3.246
 5480WAT     H116682   9.713   5.171   3.316
 5480WAT     H216683   9.775   5.146   3.168
 5481WAT      O16684   9.284   0.731   5.386
 5481WAT     H116685   9.253   0.797   5.318
 5481WAT     H216686   9.307   0.645   5.342
 5482WAT      O16687   0.338   8.219   8.602
 5482WAT     H116688   0.313   8.171   8.686
 5482WAT     H216689   0.318   8.160   8.523
 5483WAT      O16690   9.845   9.432   3.263
 5483WAT     H116691   9.770   9.475   3.314
 5483WAT     H216692   9.826   9.440   3.165
 5484WAT      O16693   0.197   4.757   5.620
 5484WAT     H116694   0.152   4.743   5.707
 5484WAT     H216695   0.129   4.760   5.547
 5485WAT      O16696   0.604   5.783   0.023
 5485WAT     H116697   0.560   5.767   0.112
 5485WAT     H216698   0.634   5.696  -0.015
 5486WAT      O16699   5.914   5.690   0.746
 5486WAT     H116700   5.974   5.613   0.768
 5486WAT     H216701   5.866   5.672   0.661
 5487WAT      O16702   7.505   4.098   5.065
 5487WAT     H116703   7.529   4.081   4.970
 5487WAT     H216704   7.584   4.076   5.124
 5488WAT      O16705   8.897   7.213   9.281
 5488WAT     H116706   8.950   7.247   9.359
 5488WAT     H216707   8.953   7.150   9.227
 5489WAT      O16708   8.335   1.785   4.381
 5489WAT     H116709   8.419   1.837   4.369
 5489WAT     H216710   8.277   1.831   4.448
 5490WAT      O16711   7.872   8.011   8.971
 5490WAT     H116712   7.861   8.064   8.888
 5490WAT     H216713   7.829   7.921   8.959
 5491WAT      O16714   8.437   0.936   0.974
 5491WAT     H116715   8.463   0.918   0.879
 5491WAT     H216716   8.393   0.855   1.013
 5492WAT      O16717   9.745   8.422   6.588
 5492WAT     H116718   9.745   8.422   6.488
 5492WAT     H216719   9.651   8.416   6.621
 5493WAT      O16720   4.920   6.168   1.790
 5493WAT     H116721   4.904   6.205   1.699
 5493WAT     H216722   4.944   6.072   1.784
 5494WAT      O16723   0.719   2.804   1.461
 5494WAT     H116724   0.725   2.876   1.392
 5494WAT     H216725   0.760   2.835   1.546
 5495WAT      O16726   4.796   3.260   1.794
 5495WAT     H116727   4.858   3.200   1.743
 5495WAT     H216728   4.702   3.232   1.779
 5496WAT      O16729   3.099   5.903   4.923
 5496WAT     H116730   3.002   5.927   4.918
 5496WAT     H216731   3.114   5.813   4.883
 5497WAT      O16732   3.589   7.063   2.848
 5497WAT     H116733   3.676   7.100   2.814
 5497WAT     H216734   3.604   6.972   2.887
 5498WAT      O16735   1.897   7.699   6.590
 5498WAT     H116736   1.882   7.794   6.618
 5498WAT     H216737   1.815   7.645   6.613
 5499WAT      O16738   9.325   8.365   1.619
 5499WAT     H116739   9.377   8.428   1.677
 5499WAT     H216740   9.231   8.358   1.653
 5500WAT      O16741   8.853   0.381   1.965
 5500WAT     H116742   8.936   0.375   2.020
 5500WAT     H216743   8.803   0.294   1.971
 5501WAT      O16744   2.254   3.705   6.496
 5501WAT     H116745   2.155   3.702   6.486
 5501WAT     H216746   2.290   3.612   6.504
 5502WAT      O16747   0.238   0.895   1.389
 5502WAT     H116748   0.334   0.912   1.367
 5502WAT     H216749   0.211   0.805   1.354
 5503WAT      O16750   6.473   7.874   5.791
 5503WAT     H116751   6.438   7.792   5.836
 5503WAT     H216752   6.397   7.934   5.768
 5504WAT      O16753   6.442   5.605   6.247
 5504WAT     H116754   6.447   5.689   6.193
 5504WAT     H216755   6.533   5.569   6.262
 5505WAT      O16756   5.162   9.052   9.556
 5505WAT     H116757   5.199   9.133   9.601
 5505WAT     H216758   5.070   9.034   9.591
 5506WAT      O16759   4.727   6.981   9.091
 5506WAT     H116760   4.647   6.963   9.034
 5506WAT     H216761   4.794   7.036   9.040
 5507WAT      O16762   4.875   2.388   1.651
 5507WAT     H116763   4.789   2.413   1.605
 5507WAT     H216764   4.919   2.314   1.600
 5508WAT      O16765   6.908   9.411   4.868
 5508WAT     H116766   6.922   9.312   4.868
 5508WAT     H216767   6.811   9.431   4.854
 5509WAT      O16768   1.822   8.695   5.122
 5509WAT     H116769   1.906   8.729   5.163
 5509WAT     H216770   1.760   8.663   5.194
 5510WAT      O16771   3.924   9.202   3.996
 5510WAT     H116772   3.905   9.285   3.944
 5510WAT     H216773   3.953   9.227   4.089
 5511WAT      O16774   3.381   0.795   6.367
 5511WAT     H116775   3.322   0.874   6.352
 5511WAT     H216776   3.327   0.711   6.363
 5512WAT      O16777   8.524   2.065   2.714
 5512WAT     H116778   8.596   2.016   2.763
 5512WAT     H216779   8.509   2.023   2.625
 5513WAT      O16780   8.395   2.141   1.070
 5513WAT     H116781   8.363   2.061   1.120
 5513WAT     H216782   8.352   2.143   0.980
 5514WAT      O16783   7.288   6.750   3.045
 5514WAT     H116784   7.345   6.808   2.987
 5514WAT     H216785   7.221   6.702   2.989
 5515WAT      O16786   9.350   1.644   7.816
 5515WAT     H116787   9.264   1.638   7.766
 5515WAT     H216788   9.421   1.681   7.756
 5516WAT      O16789   6.617   9.339   4.435
 5516WAT     H116790   6.682   9.263   4.441
 5516WAT     H216791   6.665   9.426   4.449
 5517WAT      O16792   7.206   8.525   4.202
 5517WAT     H116793   7.160   8.499   4.117
 5517WAT     H216794   7.252   8.445   4.241
 5518WAT      O16795   4.587   5.278   5.808
 5518WAT     H116796   4.628   5.363   5.842
 5518WAT     H216797   4.658   5.207   5.805
 5519WAT      O16798   9.155   1.818   6.928
 5519WAT     H116799   9.252   1.820   6.903
 5519WAT     H216800   9.143   1.864   7.016
 5520WAT      O16801   0.136   3.852   1.123
 5520WAT     H116802   0.182   3.938   1.101
 5520WAT     H216803   0.097   3.858   1.215
 5521WAT      O16804   0.457   6.250   7.996
 5521WAT     H116805   0.536   6.214   7.948
 5521WAT     H216806   0.432   6.188   8.071
 5522WAT      O16807   4.372   7.924   7.170
 5522WAT     H116808   4.385   7.995   7.240
 5522WAT     H216809   4.278   7.889   7.176
 5523WAT      O16810   3.006   7.196   2.377
 5523WAT     H116811   2.920   7.152   2.352
 5523WAT     H216812   2.993   7.295   2.382
 5524WAT      O16813   0.052   6.694   9.009
 5524WAT     H116814   0.027   6.791   9.004
 5524WAT     H216815   0.096   6.667   8.923
 5525WAT      O16816   6.892   6.232   9.543
 5525WAT     H116817   6.818   6.224   9.476
 5525WAT     H216818   6.864   6.292   9.617
 5526WAT      O16819   3.508   4.421   7.042
 5526WAT     H116820   3.412   4.446   7.054
 5526WAT     H216821   3.525   4.331   7.082
 5527WAT      O16822   5.672   3.688   5.231
 5527WAT     H116823   5.622   3.774   5.237
 5527WAT     H216824   5.622   3.617   5.280
 5528WAT      O16825   5.495   8.141   3.607
 5528WAT     H116826   5.579   8.156   3.554
 5528WAT     H216827   5.481   8.218   3.669
 5529WAT      O16828   3.941   3.116   1.679
 5529WAT     H116829   3.926   3.197   1.622
 5529WAT     H216830   3.879   3.043   1.650
 5530WAT      O16831   2.079   8.292   1.502
 5530WAT     H116832   2.019   8.213   1.517
 5530WAT     H216833   2.172   8.268   1.529
 5531WAT      O16834   1.506   5.763   1.323
 5531WAT     H116835   1.562   5.839   1.356
 5531WAT     H216836   1.442   5.735   1.395
 5532WAT      O16837   0.650   7.503   7.949
 5532WAT     H116838   0.574   7.440   7.935
 5532WAT     H216839   0.708   7.468   8.023
 5533WAT      O16840   0.066   4.983   3.325
 5533WAT     H116841  -0.032   5.000   3.312
 5533WAT     H216842   0.110   5.066   3.358
 5534WAT      O16843   2.128   9.032   3.548
 5534WAT     H116844   2.202   9.056   3.611
 5534WAT     H216845   2.165   8.995   3.464
 5535WAT      O16846   8.748   8.529   0.527
 5535WAT     H116847   8.811   8.594   0.486
 5535WAT     H216848   8.742   8.546   0.626
 5536WAT      O16849   4.838   7.412   8.167
 5536WAT     H116850   4.873   7.326   8.204
 5536WAT     H216851   4.911   7.480   8.166
 5537WAT      O16852   0.366   9.111   5.562
 5537WAT     H116853   0.271   9.081   5.555
 5537WAT     H216854   0.414   9.056   5.630
 5538WAT      O16855   7.643   9.636   1.170
 5538WAT     H116856   7.615   9.709   1.107
 5538WAT     H216857   7.642   9.672   1.264
 5539WAT      O16858   4.874   1.583   8.213
 5539WAT     H116859   4.785   1.561   8.174
 5539WAT     H216860   4.925   1.643   8.151
 5540WAT      O16861   4.230   1.993   1.444
 5540WAT     H116862   4.285   1.913   1.467
 5540WAT     H216863   4.180   1.975   1.359
 5541WAT      O16864   5.395   9.508   4.849
 5541WAT     H116865   5.313   9.465   4.886
 5541WAT     H216866   5.469   9.501   4.916
 5542WAT      O16867   4.851   8.084   2.135
 5542WAT     H116868   4.940   8.105   2.093
 5542WAT     H216869   4.838   7.985   2.135
 5543WAT      O16870   2.313   7.671   0.067
 5543WAT     H116871   2.222   7.708   0.087
 5543WAT     H216872   2.375   7.690   0.143
 5544WAT      O16873   7.160   1.640   8.491
 5544WAT     H116874   7.060   1.639   8.488
 5544WAT     H216875   7.195   1.548   8.473
 5545WAT      O16876   2.185   7.049   5.877
 5545WAT     H116877   2.219   6.955   5.872
 5545WAT     H216878   2.217   7.091   5.962
 5546WAT      O16879   6.119   6.135   2.994
 5546WAT     H116880   6.055   6.122   2.918
 5546WAT     H216881   6.081   6.200   3.059
 5547WAT      O16882   8.339   0.457   5.287
 5547WAT     H116883   8.395   0.540   5.284
 5547WAT     H216884   8.305   0.443   5.380
 5548WAT      O16885   1.761   3.508   8.644
 5548WAT     H116886   1.757   3.412   8.671
 5548WAT     H216887   1.699   3.523   8.567
 5549WAT      O16888   8.606   1.191   8.990
 5549WAT     H116889   8.696   1.155   9.015
 5549WAT     H216890   8.537   1.121   9.007
 5550WAT      O16891   5.343   3.918   4.328
 5550WAT     H116892   5.426   3.972   4.314
 5550WAT     H216893   5.362   3.844   4.393
 5551WAT      O16894   6.952   3.995   4.062
 5551WAT     H116895   6.916   3.930   4.129
 5551WAT     H216896   6.928   4.088   4.089
 5552WAT      O16897   3.883   5.817   5.979
 5552WAT     H116898   3.970   5.855   5.948
 5552WAT     H216899   3.863   5.850   6.071
 5553WAT      O16900   1.378   2.642   3.880
 5553WAT     H116901   1.415   2.734   3.868
 5553WAT     H216902   1.445   2.574   3.851
 5554WAT      O16903   7.471   7.174   3.855
 5554WAT     H116904   7.496   7.196   3.761
 5554WAT     H216905   7.439   7.257   3.901
 5555WAT      O16906   9.184   0.151   8.646
 5555WAT     H116907   9.120   0.074   8.647
 5555WAT     H216908   9.249   0.140   8.571
 5556WAT      O16909  -0.001   3.188   1.696
 5556WAT     H116910  -0.025   3.257   1.628
 5556WAT     H216911   0.068   3.126   1.658
 5557WAT      O16912   0.153   8.759   6.380
 5557WAT     H116913   0.101   8.815   6.315
 5557WAT     H216914   0.245   8.743   6.343
 5558WAT      O16915   4.752   5.071   1.574
 5558WAT     H116916   4.818   5.112   1.510
 5558WAT     H216917   4.702   5.143   1.621
 5559WAT      O16918   8.029   6.121   3.582
 5559WAT     H116919   8.098   6.059   3.621
 5559WAT     H216920   7.938   6.090   3.610
 5560WAT      O16921   2.485   4.405   2.127
 5560WAT     H116922   2.580   4.387   2.102
 5560WAT     H216923   2.462   4.352   2.209
 5561WAT      O16924   7.180   7.505   8.888
 5561WAT     H116925   7.088   7.541   8.898
 5561WAT     H216926   7.179   7.406   8.898
 5562WAT      O16927   2.819   8.967   4.304
 5562WAT     H116928   2.824   8.966   4.404
 5562WAT     H216929   2.789   8.877   4.272
 5563WAT      O16930   6.474   8.680   1.951
 5563WAT     H116931   6.556   8.622   1.951
 5563WAT     H216932   6.428   8.673   1.862
 5564WAT      O16933   1.476   9.774   3.645
 5564WAT     H116934   1.525   9.691   3.618
 5564WAT     H216935   1.379   9.753   3.656
 5565WAT      O16936   1.326   9.094   3.933
 5565WAT     H116937   1.423   9.088   3.912
 5565WAT     H216938   1.274   9.037   3.869
 5566WAT      O16939   5.524   0.405   5.555
 5566WAT     H116940   5.519   0.321   5.501
 5566WAT     H216941   5.593   0.465   5.516
 5567WAT      O16942   0.711   6.756   8.663
 5567WAT     H116943   0.739   6.674   8.712
 5567WAT     H216944   0.773   6.831   8.684
 5568WAT      O16945   2.880   4.124   1.823
 5568WAT     H116946   2.918   4.055   1.884
 5568WAT     H216947   2.784   4.142   1.847
 5569WAT      O16948   8.052   8.389   3.812
 5569WAT     H116949   7.977   8.380   3.878
 5569WAT     H216950   8.079   8.485   3.806
 5570WAT      O16951   2.070   5.643   7.462
 5570WAT     H116952   1.997   5.710   7.451
 5570WAT     H216953   2.138   5.677   7.527
 5571WAT      O16954   4.543   1.917   1.966
 5571WAT     H116955   4.568   2.014   1.963
 5571WAT     H216956   4.450   1.905   1.933
 5572WAT      O16957   0.527   3.768   5.550
 5572WAT     H116958   0.551   3.809   5.461
 5572WAT     H216959   0.538   3.669   5.545
 5573WAT      O16960   2.934   2.998   6.158
 5573WAT     H116961   3.016   2.947   6.133
 5573WAT     H216962   2.952   3.052   6.240
 5574WAT      O16963   1.346   6.327   3.365
 5574WAT     H116964   1.336   6.412   3.418
 5574WAT     H216965   1.267   6.268   3.381
 5575WAT      O16966   3.683   6.730   2.904
 5575WAT     H116967   3.720   6.787   2.977
 5575WAT     H216968   3.654   6.642   2.942
 5576WAT      O16969   5.631   6.632   5.116
 5576WAT     H116970   5.633   6.599   5.211
 5576WAT     H216971   5.547   6.684   5.101
 5577WAT      O16972   0.131   5.473   8.693
 5577WAT     H116973   0.079   5.548   8.650
 5577WAT     H216974   0.110   5.388   8.646
 5578WAT      O16975   3.138   9.714   0.648
 5578WAT     H116976   3.198   9.793   0.662
 5578WAT     H216977   3.065   9.738   0.584
 5579WAT      O16978   8.476   5.128   0.350
 5579WAT     H116979   8.418   5.206   0.329
 5579WAT     H216980   8.550   5.157   0.411
 5580WAT      O16981   5.120   4.213   8.791
 5580WAT     H116982   5.094   4.187   8.884
 5580WAT     H216983   5.194   4.280   8.794
 5581WAT      O16984   3.081   9.827   2.689
 5581WAT     H116985   3.032   9.846   2.605
 5581WAT     H216986   3.151   9.757   2.672
 5582WAT      O16987   0.881   0.924   8.287
 5582WAT     H116988   0.806   0.919   8.353
 5582WAT     H216989   0.962   0.881   8.326
 5583WAT      O16990   1.371   7.476   3.690
 5583WAT     H116991   1.316   7.543   3.639
 5583WAT     H216992   1.453   7.454   3.638
 5584WAT      O16993   9.143   7.363   3.125
 5584WAT     H116994   9.232   7.387   3.164
 5584WAT     H216995   9.153   7.284   3.064
 5585WAT      O16996   3.404   3.797   9.724
 5585WAT     H116997   3.447   3.770   9.637
 5585WAT     H216998   3.356   3.719   9.763
 5586WAT      O16999   3.920   0.575   0.518
 5586WAT     H117000   3.918   0.540   0.612
 5586WAT     H217001   3.986   0.649   0.512
 5587WAT      O17002   4.094   9.478   0.006
 5587WAT     H117003   4.179   9.531   0.015
 5587WAT     H217004   4.117   9.383  -0.014
 5588WAT      O17005   1.506   6.732   0.800
 5588WAT     H117006   1.526   6.698   0.892
 5588WAT     H217007   1.592   6.755   0.754
 5589WAT      O17008   8.282   2.047   2.839
 5589WAT     H117009   8.218   2.099   2.782
 5589WAT     H217010   8.375   2.057   2.803
 5590WAT      O17011   5.090   1.291   4.904
 5590WAT     H117012   5.121   1.338   4.822
 5590WAT     H217013   5.153   1.309   4.979
 5591WAT      O17014   2.466   0.152   5.098
 5591WAT     H117015   2.469   0.069   5.041
 5591WAT     H217016   2.373   0.166   5.132
 5592WAT      O17017   9.195   4.578   9.066
 5592WAT     H117018   9.255   4.515   9.017
 5592WAT     H217019   9.201   4.669   9.025
 5593WAT      O17020   8.990   6.579   0.858
 5593WAT     H117021   8.893   6.598   0.873
 5593WAT     H217022   9.009   6.578   0.760
 5594WAT      O17023   8.936   7.448   3.798
 5594WAT     H117024   8.917   7.477   3.705
 5594WAT     H217025   8.872   7.493   3.861
 5595WAT      O17026   3.262   7.540   9.085
 5595WAT     H117027   3.165   7.566   9.081
 5595WAT     H217028   3.272   7.457   9.140
 5596WAT      O17029   8.844   9.447   6.024
 5596WAT     H117030   8.760   9.455   5.971
 5596WAT     H217031   8.853   9.354   6.059
 5597WAT      O17032   5.179   1.020   5.618
 5597WAT     H117033   5.211   0.978   5.534
 5597WAT     H217034   5.132   0.951   5.674
 5598WAT      O17035   7.250   5.381   9.438
 5598WAT     H117036   7.168   5.416   9.391
 5598WAT     H217037   7.222   5.333   9.521
 5599WAT      O17038   9.379   7.310   3.960
 5599WAT     H117039   9.427   7.223   3.947
 5599WAT     H217040   9.371   7.329   4.058
 5600WAT      O17041   2.978   3.759   8.240
 5600WAT     H117042   3.068   3.786   8.275
 5600WAT     H217043   2.987   3.729   8.145
 5601WAT      O17044   8.383   0.400   6.571
 5601WAT     H117045   8.453   0.340   6.609
 5601WAT     H217046   8.373   0.382   6.473
 5602WAT      O17047   0.183   5.610   0.171
 5602WAT     H117048   0.108   5.560   0.214
 5602WAT     H217049   0.187   5.587   0.074
 5603WAT      O17050   6.894   1.109   2.161
 5603WAT     H117051   6.928   1.153   2.245
 5603WAT     H217052   6.811   1.155   2.130
 5604WAT      O17053   4.095   1.504   6.532
 5604WAT     H117054   4.016   1.446   6.548
 5604WAT     H217055   4.167   1.451   6.488
 5605WAT      O17056   1.518   3.112   5.076
 5605WAT     H117057   1.604   3.162   5.089
 5605WAT     H217058   1.518   3.066   4.987
 5606WAT      O17059   0.491   8.562   4.935
 5606WAT     H117060   0.532   8.473   4.952
 5606WAT     H217061   0.513   8.625   5.010
 5607WAT      O17062   2.100   9.157   0.031
 5607WAT     H117063   2.172   9.226   0.024
 5607WAT     H217064   2.018   9.198   0.070
 5608WAT      O17065   6.203   1.520   5.479
 5608WAT     H117066   6.124   1.505   5.419
 5608WAT     H217067   6.219   1.438   5.534
 5609WAT      O17068   2.117   4.567   3.756
 5609WAT     H117069   2.061   4.571   3.673
 5609WAT     H217070   2.094   4.643   3.816
 5610WAT      O17071   4.650   1.018   5.429
 5610WAT     H117072   4.669   1.055   5.338
 5610WAT     H217073   4.553   0.993   5.436
 5611WAT      O17074   2.388   0.033   3.518
 5611WAT     H117075   2.424   0.112   3.469
 5611WAT     H217076   2.304   0.001   3.473
 5612WAT      O17077   3.103   3.991   9.116
 5612WAT     H117078   3.200   3.967   9.111
 5612WAT     H217079   3.093   4.091   9.122
 5613WAT      O17080   5.612   8.874   2.081
 5613WAT     H117081   5.668   8.907   2.158
 5613WAT     H217082   5.655   8.793   2.042
 5614WAT      O17083   3.149   4.779   7.433
 5614WAT     H117084   3.239   4.817   7.456
 5614WAT     H217085   3.112   4.729   7.511
 5615WAT      O17086   9.653   8.890   8.328
 5615WAT     H117087   9.665   8.966   8.264
 5615WAT     H217088   9.743   8.854   8.353
 5616WAT      O17089   2.729   2.598   2.391
 5616WAT     H117090   2.659   2.664   2.416
 5616WAT     H217091   2.700   2.506   2.418
 5617WAT      O17092   6.001   9.578   0.371
 5617WAT     H117093   6.000   9.627   0.284
 5617WAT     H217094   5.910   9.541   0.390
 5618WAT      O17095   2.584   4.601   5.046
 5618WAT     H117096   2.623   4.689   5.019
 5618WAT     H217097   2.658   4.536   5.066
 5619WAT      O17098   7.668   8.228   6.807
 5619WAT     H117099   7.736   8.206   6.877
 5619WAT     H217100   7.714   8.266   6.727
 5620WAT      O17101   7.494   0.375   8.612
 5620WAT     H117102   7.508   0.334   8.522
 5620WAT     H217103   7.558   0.333   8.677
 5621WAT      O17104   6.203   1.611   3.071
 5621WAT     H117105   6.284   1.579   3.021
 5621WAT     H217106   6.147   1.533   3.098
 5622WAT      O17107   5.287   1.509   0.809
 5622WAT     H117108   5.210   1.460   0.766
 5622WAT     H217109   5.254   1.560   0.888
 5623WAT      O17110   8.262   6.843   0.281
 5623WAT     H117111   8.232   6.873   0.372
 5623WAT     H217112   8.200   6.771   0.249
 5624WAT      O17113   3.437   9.400   7.101
 5624WAT     H117114   3.504   9.472   7.085
 5624WAT     H217115   3.400   9.409   7.194
 5625WAT      O17116   3.107   1.987   1.469
 5625WAT     H117117   3.022   2.040   1.475
 5625WAT     H217118   3.149   2.003   1.380
 5626WAT      O17119   1.681   5.474   7.734
 5626WAT     H117120   1.739   5.554   7.738
 5626WAT     H217121   1.659   5.443   7.827
 5627WAT      O17122   8.004   3.573   6.379
 5627WAT     H117123   7.937   3.518   6.429
 5627WAT     H217124   8.008   3.665   6.418
 5628WAT      O17125   5.541   4.959   6.485
 5628WAT     H117126   5.458   5.010   6.465
 5628WAT     H217127   5.604   4.966   6.408
 5629WAT      O17128   3.652   9.532   1.937
 5629WAT     H117129   3.652   9.439   1.901
 5629WAT     H217130   3.621   9.531   2.032
 5630WAT      O17131   3.660   2.751   2.035
 5630WAT     H117132   3.590   2.783   1.971
 5630WAT     H217133   3.735   2.817   2.038
 5631WAT      O17134   9.696   1.010   7.471
 5631WAT     H117135   9.735   1.044   7.557
 5631WAT     H217136   9.626   0.941   7.492
 5632WAT      O17137   1.721   5.647   9.295
 5632WAT     H117138   1.692   5.624   9.202
 5632WAT     H217139   1.715   5.566   9.353
 5633WAT      O17140   8.285   0.842   6.461
 5633WAT     H117141   8.210   0.840   6.395
 5633WAT     H217142   8.315   0.936   6.474
 5634WAT      O17143   8.539   6.179   6.322
 5634WAT     H117144   8.544   6.100   6.384
 5634WAT     H217145   8.463   6.238   6.349
 5635WAT      O17146   7.601   6.538   3.943
 5635WAT     H117147   7.559   6.628   3.960
 5635WAT     H217148   7.632   6.499   4.030
 5636WAT      O17149   3.838   9.165   7.133
 5636WAT     H117150   3.871   9.235   7.070
 5636WAT     H217151   3.739   9.171   7.141
 5637WAT      O17152   5.158   9.138   0.715
 5637WAT     H117153   5.230   9.156   0.648
 5637WAT     H217154   5.132   9.042   0.712
 5638WAT      O17155   0.357   6.529   0.457
 5638WAT     H117156   0.257   6.528   0.451
 5638WAT     H217157   0.396   6.544   0.366
 5639WAT      O17158   2.390   5.718   2.448
 5639WAT     H117159   2.437   5.714   2.536
 5639WAT     H217160   2.312   5.781   2.455
 5640WAT      O17161   0.326   8.445   5.533
 5640WAT     H117162   0.282   8.469   5.446
 5640WAT     H217163   0.421   8.420   5.516
 5641WAT      O17164   9.408   6.988   5.189
 5641WAT     H117165   9.336   6.923   5.165
 5641WAT     H217166   9.368   7.079   5.199
 5642WAT      O17167   7.986   7.688   9.140
 5642WAT     H117168   7.965   7.758   9.208
 5642WAT     H217169   8.073   7.645   9.163
 5643WAT      O17170   6.396   7.249   7.703
 5643WAT     H117171   6.449   7.183   7.650
 5643WAT     H217172   6.389   7.217   7.798
 5644WAT      O17173   6.368   5.668   1.236
 5644WAT     H117174   6.278   5.704   1.263
 5644WAT     H217175   6.418   5.739   1.186
 5645WAT      O17176   1.398   2.812   1.660
 5645WAT     H117177   1.465   2.806   1.734
 5645WAT     H217178   1.352   2.901   1.664
 5646WAT      O17179   1.425   6.756   3.408
 5646WAT     H117180   1.356   6.685   3.419
 5646WAT     H217181   1.387   6.844   3.439
 5647WAT      O17182   3.926   8.978   2.410
 5647WAT     H117183   3.899   8.887   2.379
 5647WAT     H217184   3.846   9.026   2.445
 5648WAT      O17185   6.721   4.982   6.112
 5648WAT     H117186   6.807   4.975   6.061
 5648WAT     H217187   6.644   4.960   6.051
 5649WAT      O17188   8.519   8.981   5.496
 5649WAT     H117189   8.453   9.034   5.443
 5649WAT     H217190   8.512   8.884   5.473
 5650WAT      O17191   6.838   6.859   5.692
 5650WAT     H117192   6.896   6.816   5.623
 5650WAT     H217193   6.781   6.929   5.649
 5651WAT      O17194   9.294   0.212   3.393
 5651WAT     H117195   9.336   0.125   3.365
 5651WAT     H217196   9.209   0.193   3.443
 5652WAT      O17197   3.785   6.499   1.514
 5652WAT     H117198   3.727   6.530   1.439
 5652WAT     H217199   3.744   6.418   1.556
 5653WAT      O17200   6.164   4.526   4.846
 5653WAT     H117201   6.236   4.467   4.883
 5653WAT     H217202   6.204   4.612   4.815
 5654WAT      O17203   4.125   3.089   2.378
 5654WAT     H117204   4.060   3.076   2.453
 5654WAT     H217205   4.132   3.187   2.357
 5655WAT      O17206   2.447   9.033   1.051
 5655WAT     H117207   2.382   9.104   1.023
 5655WAT     H217208   2.540   9.070   1.047
 5656WAT      O17209   4.983   9.525   3.765
 5656WAT     H117210   5.041   9.577   3.703
 5656WAT     H217211   4.991   9.428   3.745
 5657WAT      O17212   7.139   6.177   8.406
 5657WAT     H117213   7.114   6.274   8.409
 5657WAT     H217214   7.065   6.125   8.364
 5658WAT      O17215   2.050   0.769   2.472
 5658WAT     H117216   2.024   0.724   2.386
 5658WAT     H217217   2.089   0.859   2.453
 5659WAT      O17218   9.065   6.243   4.748
 5659WAT     H117219   8.975   6.205   4.727
 5659WAT     H217220   9.134   6.201   4.689
 5660WAT      O17221   4.311   3.404   8.151
 5660WAT     H117222   4.218   3.403   8.190
 5660WAT     H217223   4.310   3.361   8.061
 5661WAT      O17224   5.460   6.500   4.288
 5661WAT     H117225   5.393   6.437   4.247
 5661WAT     H217226   5.462   6.486   4.387
 5662WAT      O17227   0.787   6.263   0.767
 5662WAT     H117228   0.802   6.356   0.800
 5662WAT     H217229   0.873   6.226   0.733
 5663WAT      O17230   6.701   3.598   4.537
 5663WAT     H117231   6.683   3.606   4.635
 5663WAT     H217232   6.648   3.666   4.487
 5664WAT      O17233   1.975   3.790   2.194
 5664WAT     H117234   2.038   3.734   2.140
 5664WAT     H217235   2.003   3.789   2.290
 5665WAT      O17236   7.693   0.983   6.334
 5665WAT     H117237   7.775   1.001   6.388
 5665WAT     H217238   7.686   1.051   6.261
 5666WAT      O17239   2.565   1.666   4.100
 5666WAT     H117240   2.621   1.606   4.158
 5666WAT     H217241   2.477   1.682   4.144
 5667WAT      O17242   2.774   9.411   4.374
 5667WAT     H117243   2.846   9.404   4.443
 5667WAT     H217244   2.773   9.329   4.318
 5668WAT      O17245   3.327   1.595   6.205
 5668WAT     H117246   3.373   1.574   6.119
 5668WAT     H217247   3.344   1.691   6.230
 5669WAT      O17248   3.907   4.133   9.120
 5669WAT     H117249   3.966   4.057   9.093
 5669WAT     H217250   3.906   4.141   9.220
 5670WAT      O17251   0.107   6.373   4.437
 5670WAT     H117252   0.010   6.350   4.438
 5670WAT     H217253   0.158   6.303   4.386
 5671WAT      O17254   6.108   4.936   6.433
 5671WAT     H117255   6.179   5.004   6.418
 5671WAT     H217256   6.045   4.969   6.503
 5672WAT      O17257   7.059   1.984   1.348
 5672WAT     H117258   7.064   1.985   1.248
 5672WAT     H217259   7.144   1.946   1.385
 5673WAT      O17260   6.822   4.594   3.402
 5673WAT     H117261   6.738   4.611   3.352
 5673WAT     H217262   6.800   4.573   3.498
 5674WAT      O17263   2.538   9.754   1.537
 5674WAT     H117264   2.589   9.716   1.460
 5674WAT     H217265   2.512   9.848   1.517
 5675WAT      O17266   1.149   2.941   0.231
 5675WAT     H117267   1.200   2.866   0.272
 5675WAT     H217268   1.205   2.987   0.163
 5676WAT      O17269   0.255   1.649   0.742
 5676WAT     H117270   0.259   1.571   0.804
 5676WAT     H217271   0.266   1.617   0.648
 5677WAT      O17272   0.108   3.150   0.287
 5677WAT     H117273   0.201   3.142   0.324
 5677WAT     H217274   0.107   3.116   0.193
 5678WAT      O17275   1.750   5.268   6.013
 5678WAT     H117276   1.826   5.245   5.951
 5678WAT     H217277   1.667   5.223   5.982
 5679WAT      O17278   5.392   3.573   7.702
 5679WAT     H117279   5.474   3.521   7.678
 5679WAT     H217280   5.316   3.544   7.644
 5680WAT      O17281   1.615   4.173   5.812
 5680WAT     H117282   1.691   4.238   5.821
 5680WAT     H217283   1.649   4.080   5.824
 5681WAT      O17284   8.387   4.862   7.990
 5681WAT     H117285   8.384   4.946   8.045
 5681WAT     H217286   8.482   4.838   7.972
 5682WAT      O17287   9.077   9.468   6.391
 5682WAT     H117288   9.160   9.460   6.335
 5682WAT     H217289   9.003   9.506   6.336
 5683WAT      O17290   1.174   8.275   5.921
 5683WAT     H117291   1.251   8.253   5.980
 5683WAT     H217292   1.144   8.369   5.938
 5684WAT      O17293   3.669   3.059   6.779
 5684WAT     H117294   3.725   2.978   6.759
 5684WAT     H217295   3.714   3.141   6.743
 5685WAT      O17296   7.218   5.784   7.375
 5685WAT     H117297   7.176   5.863   7.330
 5685WAT     H217298   7.317   5.789   7.365
 5686WAT      O17299   7.641   1.147   0.032
 5686WAT     H117300   7.620   1.242   0.057
 5686WAT     H217301   7.689   1.103   0.108
 5687WAT      O17302   0.031   4.091   8.015
 5687WAT     H117303  -0.019   4.055   8.093
 5687WAT     H217304  -0.010   4.055   7.930
 5688WAT      O17305   4.962   7.110   8.023
 5688WAT     H117306   4.937   7.120   8.120
 5688WAT     H217307   5.037   7.045   8.015
 5689WAT      O17308   5.685   4.299   6.081
 5689WAT     H117309   5.692   4.220   6.141
 5689WAT     H217310   5.589   4.320   6.064
 5690WAT      O17311   0.475   4.158   1.988
 5690WAT     H117312   0.533   4.227   1.944
 5690WAT     H217313   0.440   4.193   2.075
 5691WAT      O17314   9.010   7.606   6.217
 5691WAT     H117315   9.087   7.582   6.277
 5691WAT     H217316   8.993   7.530   6.154
 5692WAT      O17317   4.589   4.598   3.012
 5692WAT     H117318   4.505   4.553   2.981
 5692WAT     H217319   4.582   4.620   3.109
 5693WAT      O17320   2.374   1.428   3.634
 5693WAT     H117321   2.360   1.353   3.698
 5693WAT     H217322   2.315   1.414   3.554
 5694WAT      O17323   7.456   9.475   4.021
 5694WAT     H117324   7.508   9.392   4.002
 5694WAT     H217325   7.507   9.533   4.085
 5695WAT      O17326   2.218   1.651   2.270
 5695WAT     H117327   2.143   1.681   2.329
 5695WAT     H217328   2.180   1.614   2.185
 5696WAT      O17329   7.048   3.342   6.453
 5696WAT     H117330   6.996   3.427   6.461
 5696WAT     H217331   7.078   3.312   6.543
 5697WAT      O17332   1.982   2.511   8.803
 5697WAT     H117333   2.045   2.438   8.829
 5697WAT     H217334   1.986   2.525   8.704
 5698WAT      O17335   1.225   0.379   4.273
 5698WAT     H117336   1.321   0.410   4.277
 5698WAT     H217337   1.222   0.286   4.235
 5699WAT      O17338   5.409   1.832   3.016
 5699WAT     H117339   5.318   1.874   3.017
 5699WAT     H217340   5.478   1.902   2.995
 5700WAT      O17341   5.761   1.432   7.393
 5700WAT     H117342   5.845   1.487   7.390
 5700WAT     H217343   5.737   1.403   7.301
 5701WAT      O17344   3.233   3.363   7.893
 5701WAT     H117345   3.190   3.297   7.832
 5701WAT     H217346   3.166   3.396   7.959
 5702WAT      O17347   4.320   7.171   1.628
 5702WAT     H117348   4.321   7.169   1.528
 5702WAT     H217349   4.318   7.077   1.663
 5703WAT      O17350   5.460   0.423   9.730
 5703WAT     H117351   5.464   0.385   9.637
 5703WAT     H217352   5.393   0.497   9.732
 5704WAT      O17353   9.590   5.460   5.215
 5704WAT     H117354   9.682   5.421   5.216
 5704WAT     H217355   9.529   5.403   5.160
 5705WAT      O17356   6.980   1.499   4.922
 5705WAT     H117357   7.007   1.449   4.840
 5705WAT     H217358   6.889   1.538   4.908
 5706WAT      O17359   2.903   5.356   5.550
 5706WAT     H117360   2.805   5.335   5.551
 5706WAT     H217361   2.948   5.306   5.623
 5707WAT      O17362   9.734   4.649   1.495
 5707WAT     H117363   9.791   4.689   1.423
 5707WAT     H217364   9.639   4.675   1.481
 5708WAT      O17365   9.067   1.486   2.394
 5708WAT     H117366   9.003   1.513   2.322
 5708WAT     H217367   9.104   1.568   2.437
 5709WAT      O17368   4.226   0.688   3.135
 5709WAT     H117369   4.202   0.609   3.192
 5709WAT     H217370   4.230   0.770   3.193
 5710WAT      O17371   2.563   4.133   4.952
 5710WAT     H117372   2.504   4.180   5.018
 5710WAT     H217373   2.519   4.135   4.862
 5711WAT      O17374   9.642   0.772   7.818
 5711WAT     H117375   9.716   0.724   7.771
 5711WAT     H217376   9.555   0.754   7.773
 5712WAT      O17377   5.831   9.448   0.105
 5712WAT     H117378   5.803   9.405   0.019
 5712WAT     H217379   5.842   9.378   0.175
 5713WAT      O17380   4.319   2.006   0.665
 5713WAT     H117381   4.329   1.925   0.607
 5713WAT     H217382   4.294   2.084   0.608
 5714WAT      O17383   2.796   7.339   6.898
 5714WAT     H117384   2.727   7.371   6.832
 5714WAT     H217385   2.777   7.379   6.988
 5715WAT      O17386   2.087   6.620   4.916
 5715WAT     H117387   2.035   6.535   4.907
 5715WAT     H217388   2.026   6.694   4.943
 5716WAT      O17389   3.473   2.279   7.371
 5716WAT     H117390   3.415   2.206   7.405
 5716WAT     H217391   3.426   2.328   7.298
 5717WAT      O17392   9.503   5.284   1.622
 5717WAT     H117393   9.418   5.278   1.675
 5717WAT     H217394   9.560   5.357   1.659
 5718WAT      O17395   2.502   9.523   4.453
 5718WAT     H117396   2.447   9.466   4.393
 5718WAT     H217397   2.599   9.516   4.427
 5719WAT      O17398   5.711   3.226   5.711
 5719WAT     H117399   5.807   3.253   5.709
 5719WAT     H217400   5.664   3.265   5.631
 5720WAT      O17401   4.735   0.895   4.235
 5720WAT     H117402   4.726   0.888   4.136
 5720WAT     H217403   4.678   0.969   4.269
 5721WAT      O17404   3.117   2.102   6.546
 5721WAT     H117405   3.165   2.017   6.526
 5721WAT     H217406   3.162   2.177   6.497
 5722WAT      O17407   8.626   8.911   7.807
 5722WAT     H117408   8.542   8.870   7.770
 5722WAT     H217409   8.617   9.011   7.807
 5723WAT      O17410   3.522   0.849   0.785
 5723WAT     H117411   3.518   0.912   0.863
 5723WAT     H217412   3.563   0.763   0.814
 5724WAT      O17413   0.303   3.991   7.787
 5724WAT     H117414   0.322   3.981   7.885
 5724WAT     H217415   0.349   3.918   7.737
 5725WAT      O17416   7.021   2.876   1.633
 5725WAT     H117417   6.987   2.788   1.665
 5725WAT     H217418   6.977   2.898   1.545
 5726WAT      O17419   0.137   3.353   8.025
 5726WAT     H117420   0.176   3.310   8.106
 5726WAT     H217421   0.170   3.307   7.943
 5727WAT      O17422   1.434   7.908   7.369
 5727WAT     H117423   1.410   8.003   7.353
 5727WAT     H217424   1.362   7.848   7.335
 5728WAT      O17425   5.380   1.382   8.007
 5728WAT     H117426   5.472   1.406   8.038
 5728WAT     H217427   5.376   1.285   7.987
 5729WAT      O17428   2.919   3.669   1.412
 5729WAT     H117429   2.937   3.619   1.497
 5729WAT     H217430   2.912   3.603   1.336
 5730WAT      O17431   5.881   0.103   9.434
 5730WAT     H117432   5.916   0.165   9.505
 5730WAT     H217433   5.789   0.132   9.407
 5731WAT      O17434   8.151   6.944   4.185
 5731WAT     H117435   8.191   7.022   4.233
 5731WAT     H217436   8.082   6.977   4.121
 5732WAT      O17437   8.161   8.071   3.456
 5732WAT     H117438   8.205   8.094   3.543
 5732WAT     H217439   8.140   8.155   3.406
 5733WAT      O17440   7.668   2.260   2.546
 5733WAT     H117441   7.660   2.327   2.619
 5733WAT     H217442   7.694   2.171   2.584
 5734WAT      O17443   2.452   5.117   2.211
 5734WAT     H117444   2.445   5.100   2.113
 5734WAT     H217445   2.482   5.034   2.257
 5735WAT      O17446   5.831   2.125   3.566
 5735WAT     H117447   5.871   2.183   3.637
 5735WAT     H217448   5.850   2.029   3.587
 5736WAT      O17449   6.170   0.652   3.142
 5736WAT     H117450   6.193   0.563   3.102
 5736WAT     H217451   6.142   0.640   3.238
 5737WAT      O17452   8.298   9.531   2.871
 5737WAT     H117453   8.222   9.596   2.878
 5737WAT     H217454   8.362   9.563   2.802
 5738WAT      O17455   2.268   7.400   8.988
 5738WAT     H117456   2.279   7.451   9.074
 5738WAT     H217457   2.344   7.422   8.927
 5739WAT      O17458   9.393   3.682   0.775
 5739WAT     H117459   9.330   3.685   0.698
 5739WAT     H217460   9.470   3.743   0.758
 5740WAT      O17461   0.949   1.458   0.613
 5740WAT     H117462   0.899   1.542   0.635
 5740WAT     H217463   1.046   1.471   0.632
 5741WAT      O17464   1.624   1.193   6.624
 5741WAT     H117465   1.557   1.227   6.690
 5741WAT     H217466   1.607   1.234   6.534
 5742WAT      O17467   7.045   8.904   3.176
 5742WAT     H117468   7.138   8.940   3.167
 5742WAT     H217469   7.003   8.941   3.258
 5743WAT      O17470   2.171   2.552   0.490
 5743WAT     H117471   2.246   2.544   0.424
 5743WAT     H217472   2.120   2.637   0.473
 5744WAT      O17473   8.547   2.654   9.786
 5744WAT     H117474   8.602   2.592   9.842
 5744WAT     H217475   8.573   2.645   9.690
 5745WAT      O17476   4.257   5.617   1.555
 5745WAT     H117477   4.268   5.632   1.653
 5745WAT     H217478   4.165   5.583   1.536
 5746WAT      O17479   7.865   1.106   3.011
 5746WAT     H117480   7.778   1.128   3.055
 5746WAT     H217481   7.939   1.151   3.060
 5747WAT      O17482   0.412   1.916   0.597
 5747WAT     H117483   0.385   2.012   0.588
 5747WAT     H217484   0.344   1.857   0.554
 5748WAT      O17485   8.105   4.578   0.078
 5748WAT     H117486   8.032   4.579   0.146
 5748WAT     H217487   8.135   4.484   0.064
 5749WAT      O17488   0.139   2.066   4.607
 5749WAT     H117489   0.190   2.094   4.526
 5749WAT     H217490   0.086   2.144   4.642
 5750WAT      O17491   3.056   7.712   0.316
 5750WAT     H117492   3.070   7.640   0.248
 5750WAT     H217493   3.136   7.715   0.377
 5751WAT      O17494   5.755   9.424   1.659
 5751WAT     H117495   5.767   9.493   1.587
 5751WAT     H217496   5.839   9.417   1.713
 5752WAT      O17497   7.632   6.894   0.867
 5752WAT     H117498   7.595   6.879   0.959
 5752WAT     H217499   7.561   6.933   0.808
 5753WAT      O17500   0.460   6.954   7.916
 5753WAT     H117501   0.531   6.926   7.982
 5753WAT     H217502   0.445   7.052   7.923
 5754WAT      O17503   3.286   2.380   7.191
 5754WAT     H117504   3.230   2.297   7.187
 5754WAT     H217505   3.258   2.443   7.119
 5755WAT      O17506   0.730   2.938   0.021
 5755WAT     H117507   0.783   3.023   0.007
 5755WAT     H217508   0.784   2.875   0.077
 5756WAT      O17509   5.466   9.822   8.879
 5756WAT     H117510   5.425   9.739   8.918
 5756WAT     H217511   5.501   9.802   8.788
 5757WAT      O17512   0.243   9.836   3.321
 5757WAT     H117513   0.189   9.892   3.258
 5757WAT     H217514   0.235   9.740   3.296
 5758WAT      O17515   9.117   3.137   1.355
 5758WAT     H117516   9.112   3.237   1.361
 5758WAT     H217517   9.162   3.101   1.437
 5759WAT      O17518   5.702   1.585   7.873
 5759WAT     H117519   5.655   1.642   7.941
 5759WAT     H217520   5.783   1.543   7.916
 5760WAT      O17521   6.265   3.886   8.890
 5760WAT     H117522   6.241   3.947   8.965
 5760WAT     H217523   6.364   3.884   8.878
 5761WAT      O17524   3.962   7.509   9.612
 5761WAT     H117525   3.892   7.527   9.680
 5761WAT     H217526   3.971   7.587   9.551
 5762WAT      O17527   2.356   6.398   2.764
 5762WAT     H117528   2.412   6.325   2.804
 5762WAT     H217529   2.318   6.455   2.837
 5763WAT      O17530   6.628   3.049   1.586
 5763WAT     H117531   6.642   3.068   1.683
 5763WAT     H217532   6.705   2.997   1.551
 5764WAT      O17533   8.961   8.668   6.517
 5764WAT     H117534   8.975   8.733   6.593
 5764WAT     H217535   9.050   8.640   6.481
 5765WAT      O17536   4.680   7.914   3.763
 5765WAT     H117537   4.753   7.920   3.695
 5765WAT     H217538   4.655   8.006   3.793
 5766WAT      O17539   6.112   5.707   9.203
 5766WAT     H117540   6.039   5.757   9.156
 5766WAT     H217541   6.086   5.611   9.212
 5767WAT      O17542   9.521   5.004   1.718
 5767WAT     H117543   9.541   5.100   1.697
 5767WAT     H217544   9.562   4.946   1.648
 5768WAT      O17545   5.110   6.861   0.426
 5768WAT     H117546   5.149   6.891   0.339
 5768WAT     H217547   5.045   6.930   0.458
 5769WAT      O17548   4.882   5.178   2.536
 5769WAT     H117549   4.830   5.179   2.621
 5769WAT     H217550   4.928   5.266   2.524
 5770WAT      O17551   1.880   0.183   5.509
 5770WAT     H117552   1.881   0.133   5.422
 5770WAT     H217553   1.970   0.178   5.552
 5771WAT      O17554   1.853   6.332   4.465
 5771WAT     H117555   1.882   6.272   4.390
 5771WAT     H217556   1.924   6.334   4.535
 5772WAT      O17557   4.359   2.964   9.811
 5772WAT     H117558   4.412   2.879   9.818
 5772WAT     H217559   4.262   2.943   9.805
 5773WAT      O17560   3.707   3.036   9.405
 5773WAT     H117561   3.776   2.978   9.360
 5773WAT     H217562   3.723   3.036   9.504
 5774WAT      O17563   3.403   4.238   3.712
 5774WAT     H117564   3.378   4.216   3.806
 5774WAT     H217565   3.502   4.250   3.706
 5775WAT      O17566   4.778   5.180   7.850
 5775WAT     H117567   4.702   5.176   7.915
 5775WAT     H217568   4.853   5.122   7.882
 5776WAT      O17569   9.496   1.723   0.498
 5776WAT     H117570   9.464   1.807   0.540
 5776WAT     H217571   9.421   1.678   0.450
 5777WAT      O17572   5.343   5.163   9.000
 5777WAT     H117573   5.334   5.098   8.925
 5777WAT     H217574   5.373   5.252   8.964
 5778WAT      O17575   2.709   8.754   0.006
 5778WAT     H117576   2.614   8.726  -0.005
 5778WAT     H217577   2.746   8.784  -0.082
 5779WAT      O17578   6.400   9.565   8.167
 5779WAT     H117579   6.417   9.638   8.100
 5779WAT     H217580   6.485   9.545   8.216
 5780WAT      O17581   6.406   1.109   7.029
 5780WAT     H117582   6.501   1.083   7.013
 5780WAT     H217583   6.377   1.174   6.960
 5781WAT      O17584   5.758   5.725   0.531
 5781WAT     H117585   5.719   5.816   0.540
 5781WAT     H217586   5.692   5.657   0.564
 5782WAT      O17587   8.662   3.528   0.928
 5782WAT     H117588   8.681   3.430   0.929
 5782WAT     H217589   8.629   3.554   0.837
 5783WAT      O17590   3.108   0.112   1.366
 5783WAT     H117591   3.073   0.165   1.443
 5783WAT     H217592   3.118   0.016   1.393
 5784WAT      O17593   9.167   7.410   4.282
 5784WAT     H117594   9.135   7.502   4.304
 5784WAT     H217595   9.259   7.415   4.242
 5785WAT      O17596   8.298   3.314   7.067
 5785WAT     H117597   8.308   3.287   7.163
 5785WAT     H217598   8.387   3.340   7.031
 5786WAT      O17599   6.874   0.708   4.467
 5786WAT     H117600   6.860   0.624   4.415
 5786WAT     H217601   6.947   0.762   4.425
 5787WAT      O17602   3.630   9.840   0.929
 5787WAT     H117603   3.599   9.755   0.886
 5787WAT     H217604   3.620   9.832   1.028
 5788WAT      O17605   5.999   8.692   5.986
 5788WAT     H117606   6.061   8.621   6.023
 5788WAT     H217607   6.053   8.771   5.957
 5789WAT      O17608   2.154   7.207   1.472
 5789WAT     H117609   2.155   7.276   1.545
 5789WAT     H217610   2.242   7.160   1.471
 5790WAT      O17611   0.049   9.726   4.645
 5790WAT     H117612   0.059   9.794   4.573
 5790WAT     H217613   0.136   9.677   4.657
 5791WAT      O17614   2.777   0.173   6.915
 5791WAT     H117615   2.778   0.273   6.901
 5791WAT     H217616   2.833   0.150   6.994
 5792WAT      O17617   3.887   7.585   5.373
 5792WAT     H117618   3.923   7.513   5.433
 5792WAT     H217619   3.954   7.604   5.301
 5793WAT      O17620   0.946   6.259   0.327
 5793WAT     H117621   0.922   6.346   0.369
 5793WAT     H217622   1.000   6.275   0.244
 5794WAT      O17623   4.480   1.074   8.612
 5794WAT     H117624   4.524   1.002   8.666
 5794WAT     H217625   4.517   1.163   8.639
 5795WAT      O17626   3.556   6.798   8.662
 5795WAT     H117627   3.557   6.893   8.692
 5795WAT     H217628   3.564   6.794   8.563
 5796WAT      O17629   7.276   0.171   8.318
 5796WAT     H117630   7.179   0.193   8.302
 5796WAT     H217631   7.333   0.233   8.264
 5797WAT      O17632   9.216   4.299   2.513
 5797WAT     H117633   9.194   4.348   2.428
 5797WAT     H217634   9.309   4.320   2.540
 5798WAT      O17635   7.112   7.441   9.735
 5798WAT     H117636   7.052   7.397   9.801
 5798WAT     H217637   7.160   7.517   9.778
 5799WAT      O17638   6.545   9.659   9.261
 5799WAT     H117639   6.642   9.666   9.281
 5799WAT     H217640   6.492   9.682   9.343
 5800WAT      O17641   8.510   6.705   6.292
 5800WAT     H117642   8.416   6.696   6.324
 5800WAT     H217643   8.540   6.800   6.301
 5801WAT      O17644   0.972   5.417   0.924
 5801WAT     H117645   0.884   5.378   0.899
 5801WAT     H217646   1.013   5.462   0.845
 5802WAT      O17647   4.570   2.019   1.463
 5802WAT     H117648   4.497   1.950   1.459
 5802WAT     H217649   4.568   2.075   1.381
 5803WAT      O17650   6.830   7.036   0.128
 5803WAT     H117651   6.773   6.970   0.176
 5803WAT     H217652   6.836   7.121   0.181
 5804WAT      O17653   0.090   1.267   8.105
 5804WAT     H117654   0.003   1.313   8.089
 5804WAT     H217655   0.073   1.184   8.159
 5805WAT      O17656   6.850   5.284   8.404
 5805WAT     H117657   6.830   5.350   8.332
 5805WAT     H217658   6.938   5.306   8.446
 5806WAT      O17659   3.459   3.549   9.029
 5806WAT     H117660   3.526   3.523   8.959
 5806WAT     H217661   3.367   3.543   8.990
 5807WAT      O17662   5.737   1.731   7.637
 5807WAT     H117663   5.822   1.703   7.594
 5807WAT     H217664   5.720   1.674   7.718
 5808WAT      O17665   4.749   2.390   1.270
 5808WAT     H117666   4.707   2.400   1.360
 5808WAT     H217667   4.765   2.293   1.251
 5809WAT      O17668   5.823   4.491   1.740
 5809WAT     H117669   5.827   4.409   1.683
 5809WAT     H217670   5.869   4.473   1.827
 5810WAT      O17671   2.237   0.957   1.919
 5810WAT     H117672   2.146   0.971   1.880
 5810WAT     H217673   2.259   0.859   1.920
 5811WAT      O17674   4.440   4.548   7.922
 5811WAT     H117675   4.452   4.464   7.870
 5811WAT     H217676   4.522   4.567   7.975
 5812WAT      O17677   8.961   5.091   9.356
 5812WAT     H117678   8.866   5.063   9.346
 5812WAT     H217679   9.002   5.102   9.265
 5813WAT      O17680   2.551   9.468   5.755
 5813WAT     H117681   2.561   9.541   5.823
 5813WAT     H217682   2.472   9.411   5.779
 5814WAT      O17683   4.475   1.432   1.165
 5814WAT     H117684   4.508   1.519   1.202
 5814WAT     H217685   4.387   1.445   1.121
 5815WAT      O17686   1.412   9.019   6.746
 5815WAT     H117687   1.440   8.983   6.835
 5815WAT     H217688   1.321   8.984   6.724
 5816WAT      O17689   4.051   1.775   0.913
 5816WAT     H117690   3.994   1.841   0.865
 5816WAT     H217691   4.138   1.817   0.937
 5817WAT      O17692   9.657   0.729   4.632
 5817WAT     H117693   9.711   0.791   4.575
 5817WAT     H217694   9.565   0.721   4.594
 5818WAT      O17695   4.506   8.075   3.478
 5818WAT     H117696   4.549   8.161   3.452
 5818WAT     H217697   4.424   8.093   3.533
 5819WAT      O17698   7.698   2.970   5.877
 5819WAT     H117699   7.609   2.973   5.923
 5819WAT     H217700   7.730   3.064   5.861
 5820WAT      O17701   4.176   4.144   7.992
 5820WAT     H117702   4.108   4.080   8.027
 5820WAT     H217703   4.266   4.121   8.031
 5821WAT      O17704   6.499   9.398   8.557
 5821WAT     H117705   6.434   9.331   8.522
 5821WAT     H217706   6.472   9.428   8.648
 5822WAT      O17707   8.977   4.641   6.621
 5822WAT     H117708   8.953   4.738   6.611
 5822WAT     H217709   9.077   4.632   6.625
 5823WAT      O17710   4.886   4.095   2.650
 5823WAT     H117711   4.862   4.180   2.698
 5823WAT     H217712   4.839   4.018   2.694
 5824WAT      O17713   1.701   2.072   6.650
 5824WAT     H117714   1.705   2.171   6.668
 5824WAT     H217715   1.785   2.029   6.682
 5825WAT      O17716   1.053   7.553   2.621
 5825WAT     H117717   1.081   7.492   2.547
 5825WAT     H217718   1.120   7.547   2.695
 5826WAT      O17719   4.774   1.516   1.756
 5826WAT     H117720   4.707   1.471   1.697
 5826WAT     H217721   4.866   1.485   1.733
 5827WAT      O17722   5.729   0.979   4.699
 5827WAT     H117723   5.740   1.074   4.727
 5827WAT     H217724   5.783   0.920   4.759
 5828WAT      O17725   4.834   3.123   6.530
 5828WAT     H117726   4.803   3.083   6.617
 5828WAT     H217727   4.799   3.216   6.523
 5829WAT      O17728   0.597   3.846   6.267
 5829WAT     H117729   0.508   3.850   6.311
 5829WAT     H217730   0.611   3.929   6.213
 5830WAT      O17731   1.434   6.875   5.051
 5830WAT     H117732   1.360   6.886   4.984
 5830WAT     H217733   1.408   6.918   5.137
 5831WAT      O17734   9.387   4.318   1.278
 5831WAT     H117735   9.465   4.351   1.330
 5831WAT     H217736   9.318   4.390   1.273
 5832WAT      O17737   2.877   2.361   9.044
 5832WAT     H117738   2.818   2.391   8.970
 5832WAT     H217739   2.886   2.433   9.112
 5833WAT      O17740   1.351   6.878   6.413
 5833WAT     H117741   1.310   6.965   6.440
 5833WAT     H217742   1.292   6.803   6.445
 5834WAT      O17743   1.060   4.464   8.919
 5834WAT     H117744   1.002   4.449   8.999
 5834WAT     H217745   1.154   4.481   8.949
 5835WAT      O17746   6.559   5.056   7.643
 5835WAT     H117747   6.494   4.981   7.645
 5835WAT     H217748   6.564   5.093   7.550
 5836WAT      O17749   8.871   6.781   6.319
 5836WAT     H117750   8.793   6.843   6.312
 5836WAT     H217751   8.906   6.763   6.227
 5837WAT      O17752   4.366   8.795   2.757
 5837WAT     H117753   4.297   8.835   2.818
 5837WAT     H217754   4.455   8.796   2.803
 5838WAT      O17755   4.143   9.655   9.092
 5838WAT     H117756   4.049   9.666   9.059
 5838WAT     H217757   4.142   9.634   9.190
 5839WAT      O17758   7.623   2.549   3.869
 5839WAT     H117759   7.543   2.531   3.926
 5839WAT     H217760   7.679   2.621   3.910
 5840WAT      O17761   4.614   0.551   4.800
 5840WAT     H117762   4.622   0.460   4.760
 5840WAT     H217763   4.677   0.559   4.877
 5841WAT      O17764   3.409   9.465   5.484
 5841WAT     H117765   3.363   9.552   5.495
 5841WAT     H217766   3.348   9.400   5.438
 5842WAT      O17767   4.329   4.557   4.349
 5842WAT     H117768   4.413   4.511   4.319
 5842WAT     H217769   4.297   4.515   4.434
 5843WAT      O17770   7.178   8.665   4.722
 5843WAT     H117771   7.097   8.712   4.686
 5843WAT     H217772   7.250   8.665   4.652
 5844WAT      O17773   0.825   1.227   4.558
 5844WAT     H117774   0.756   1.168   4.516
 5844WAT     H217775   0.811   1.229   4.657
 5845WAT      O17776   3.633   2.775   8.577
 5845WAT     H117777   3.639   2.679   8.550
 5845WAT     H217778   3.658   2.832   8.498
 5846WAT      O17779   2.337   7.632   1.373
 5846WAT     H117780   2.302   7.709   1.427
 5846WAT     H217781   2.413   7.589   1.423
 5847WAT      O17782   9.684   3.641   4.977
 5847WAT     H117783   9.739   3.720   5.005
 5847WAT     H217784   9.588   3.668   4.972
 5848WAT      O17785   9.528   5.120   6.437
 5848WAT     H117786   9.618   5.091   6.468
 5848WAT     H217787   9.491   5.188   6.501
 5849WAT      O17788   6.745   2.443   5.824
 5849WAT     H117789   6.807   2.519   5.805
 5849WAT     H217790   6.728   2.439   5.923
 5850WAT      O17791   3.186   4.081   5.379
 5850WAT     H117792   3.121   4.111   5.309
 5850WAT     H217793   3.160   4.120   5.467
 5851WAT      O17794   7.774   8.662   3.801
 5851WAT     H117795   7.831   8.651   3.882
 5851WAT     H217796   7.823   8.717   3.733
 5852WAT      O17797   9.754   6.898   4.783
 5852WAT     H117798   9.702   6.887   4.698
 5852WAT     H217799   9.707   6.851   4.857
 5853WAT      O17800   0.422   3.193   1.163
 5853WAT     H117801   0.447   3.097   1.169
 5853WAT     H217802   0.505   3.248   1.152
 5854WAT      O17803   6.953   0.732   9.389
 5854WAT     H117804   7.041   0.714   9.346
 5854WAT     H217805   6.947   0.828   9.414
 5855WAT      O17806   6.624   7.457   8.821
 5855WAT     H117807   6.644   7.486   8.914
 5855WAT     H217808   6.549   7.513   8.785
 5856WAT      O17809   6.872   2.554   2.508
 5856WAT     H117810   6.836   2.495   2.580
 5856WAT     H217811   6.833   2.646   2.517
 5857WAT      O17812   7.194   5.615   0.476
 5857WAT     H117813   7.142   5.582   0.397
 5857WAT     H217814   7.281   5.653   0.445
 5858WAT      O17815   7.128   2.508   0.532
 5858WAT     H117816   7.190   2.445   0.578
 5858WAT     H217817   7.116   2.590   0.589
 5859WAT      O17818   9.411   1.083   1.494
 5859WAT     H117819   9.341   1.117   1.556
 5859WAT     H217820   9.408   0.983   1.492
 5860WAT      O17821   5.434   0.735   5.603
 5860WAT     H117822   5.365   0.808   5.601
 5860WAT     H217823   5.472   0.722   5.512
 5861WAT      O17824   5.305   2.937   1.576
 5861WAT     H117825   5.249   3.000   1.630
 5861WAT     H217826   5.388   2.913   1.628
 5862WAT      O17827   7.059   6.907   1.366
 5862WAT     H117828   7.095   6.930   1.457
 5862WAT     H217829   6.968   6.947   1.355
 5863WAT      O17830   8.713   4.978   9.295
 5863WAT     H117831   8.693   4.902   9.233
 5863WAT     H217832   8.648   4.977   9.371
 5864WAT      O17833   2.511   6.774   3.284
 5864WAT     H117834   2.557   6.699   3.236
 5864WAT     H217835   2.522   6.858   3.231
 5865WAT      O17836   4.761   0.687   1.439
 5865WAT     H117837   4.707   0.766   1.410
 5865WAT     H217838   4.707   0.603   1.426
 5866WAT      O17839   4.261   8.331   5.974
 5866WAT     H117840   4.284   8.419   5.932
 5866WAT     H217841   4.295   8.329   6.068
 5867WAT      O17842   1.432   9.197   8.714
 5867WAT     H117843   1.482   9.182   8.800
 5867WAT     H217844   1.497   9.206   8.639
 5868WAT      O17845   6.321   3.405   6.249
 5868WAT     H117846   6.239   3.461   6.241
 5868WAT     H217847   6.334   3.379   6.345
 5869WAT      O17848   7.317   7.740   9.326
 5869WAT     H117849   7.391   7.700   9.271
 5869WAT     H217850   7.327   7.839   9.328
 5870WAT      O17851   2.187   9.535   2.842
 5870WAT     H117852   2.173   9.476   2.762
 5870WAT     H217853   2.272   9.510   2.888
 5871WAT      O17854   0.371   6.992   4.214
 5871WAT     H117855   0.448   6.955   4.163
 5871WAT     H217856   0.405   7.040   4.296
 5872WAT      O17857   5.893   1.910   8.877
 5872WAT     H117858   5.905   1.818   8.840
 5872WAT     H217859   5.974   1.935   8.931
 5873WAT      O17860   4.660   1.023   6.103
 5873WAT     H117861   4.700   0.933   6.117
 5873WAT     H217862   4.570   1.027   6.146
 5874WAT      O17863   0.785   3.591   2.364
 5874WAT     H117864   0.740   3.632   2.443
 5874WAT     H217865   0.861   3.533   2.395
 5875WAT      O17866   1.084   3.159   7.596
 5875WAT     H117867   0.993   3.133   7.628
 5875WAT     H217868   1.076   3.203   7.506
 5876WAT      O17869   4.713   3.383   0.932
 5876WAT     H117870   4.677   3.385   1.026
 5876WAT     H217871   4.651   3.332   0.873
 5877WAT      O17872   6.850   9.258   1.669
 5877WAT     H117873   6.814   9.199   1.597
 5877WAT     H217874   6.831   9.217   1.758
 5878WAT      O17875   0.347   1.706   2.493
 5878WAT     H117876   0.424   1.646   2.474
 5878WAT     H217877   0.371   1.770   2.566
 5879WAT      O17878   9.389   0.819   6.242
 5879WAT     H117879   9.480   0.799   6.208
 5879WAT     H217880   9.327   0.745   6.218
 5880WAT      O17881   5.090   8.247   3.632
 5880WAT     H117882   5.094   8.265   3.534
 5880WAT     H217883   5.176   8.204   3.662
 5881WAT      O17884   2.803   0.380   5.271
 5881WAT     H117885   2.829   0.319   5.345
 5881WAT     H217886   2.816   0.334   5.183
 5882WAT      O17887   9.513   6.862   0.347
 5882WAT     H117888   9.540   6.775   0.388
 5882WAT     H217889   9.508   6.852   0.248
 5883WAT      O17890   0.488   2.546   3.049
 5883WAT     H117891   0.581   2.550   3.012
 5883WAT     H217892   0.479   2.467   3.109
 5884WAT      O17893   6.404   8.414   6.348
 5884WAT     H117894   6.457   8.422   6.433
 5884WAT     H217895   6.433   8.334   6.297
 5885WAT      O17896   5.213   7.905   1.544
 5885WAT     H117897   5.311   7.898   1.524
 5885WAT     H217898   5.175   7.813   1.557
 5886WAT      O17899   2.651   7.563   9.389
 5886WAT     H117900   2.677   7.526   9.479
 5886WAT     H217901   2.729   7.554   9.326
 5887WAT      O17902   5.735   2.050   8.674
 5887WAT     H117903   5.752   1.988   8.750
 5887WAT     H217904   5.682   2.128   8.705
 5888WAT      O17905   8.469   5.744   4.003
 5888WAT     H117906   8.563   5.709   4.002
 5888WAT     H217907   8.426   5.722   4.091
 5889WAT      O17908   2.122   2.819   5.099
 5889WAT     H117909   2.153   2.847   5.190
 5889WAT     H217910   2.159   2.881   5.030
 5890WAT      O17911   1.029   3.138   6.726
 5890WAT     H117912   0.941   3.137   6.679
 5890WAT     H217913   1.031   3.215   6.790
 5891WAT      O17914   3.235   8.740   4.712
 5891WAT     H117915   3.251   8.642   4.704
 5891WAT     H217916   3.168   8.768   4.644
 5892WAT      O17917   9.351   4.872   7.393
 5892WAT     H117918   9.373   4.799   7.459
 5892WAT     H217919   9.378   4.960   7.432
 5893WAT      O17920   8.939   6.106   3.978
 5893WAT     H117921   9.010   6.036   3.977
 5893WAT     H217922   8.971   6.187   3.927
 5894WAT      O17923   7.470   2.467   2.018
 5894WAT     H117924   7.468   2.373   2.053
 5894WAT     H217925   7.539   2.519   2.068
 5895WAT      O17926   5.535   2.105   4.442
 5895WAT     H117927   5.585   2.189   4.461
 5895WAT     H217928   5.543   2.083   4.344
 5896WAT      O17929   3.078   6.402   2.235
 5896WAT     H117930   3.057   6.331   2.168
 5896WAT     H217931   3.163   6.379   2.282
 5897WAT      O17932   2.169   6.836   4.047
 5897WAT     H117933   2.137   6.928   4.067
 5897WAT     H217934   2.208   6.796   4.130
 5898WAT      O17935   3.889   9.495   6.227
 5898WAT     H117936   3.872   9.510   6.130
 5898WAT     H217937   3.966   9.551   6.258
 5899WAT      O17938   5.070   2.765   6.761
 5899WAT     H117939   5.165   2.775   6.731
 5899WAT     H217940   5.022   2.702   6.699
 5900WAT      O17941   3.547   9.578   0.385
 5900WAT     H117942   3.455   9.540   0.381
 5900WAT     H217943   3.589   9.573   0.295
 5901WAT      O17944   0.241   1.666   7.112
 5901WAT     H117945   0.337   1.638   7.118
 5901WAT     H217946   0.236   1.765   7.095
 5902WAT      O17947   7.680   6.577   0.539
 5902WAT     H117948   7.727   6.656   0.578
 5902WAT     H217949   7.729   6.547   0.457
 5903WAT      O17950   4.026   2.145   5.887
 5903WAT     H117951   3.963   2.118   5.814
 5903WAT     H217952   4.091   2.213   5.852
 5904WAT      O17953   5.604   9.180   5.055
 5904WAT     H117954   5.565   9.178   5.147
 5904WAT     H217955   5.617   9.275   5.026
 5905WAT      O17956   8.330   7.434   6.262
 5905WAT     H117957   8.313   7.337   6.247
 5905WAT     H217958   8.415   7.445   6.313
 5906WAT      O17959   7.131   4.536   1.802
 5906WAT     H117960   7.205   4.603   1.807
 5906WAT     H217961   7.138   4.475   1.881
 5907WAT      O17962   6.296   6.904   0.625
 5907WAT     H117963   6.254   6.995   0.621
 5907WAT     H217964   6.268   6.859   0.710
 5908WAT      O17965   6.730   7.923   5.020
 5908WAT     H117966   6.719   7.866   4.939
 5908WAT     H217967   6.810   7.982   5.009
 5909WAT      O17968   7.702   2.305   3.118
 5909WAT     H117969   7.610   2.342   3.102
 5909WAT     H217970   7.723   2.308   3.215
 5910WAT      O17971   1.347   8.443   6.896
 5910WAT     H117972   1.254   8.463   6.864
 5910WAT     H217973   1.355   8.467   6.992
 5911WAT      O17974   4.997   3.928   4.988
 5911WAT     H117975   4.944   4.010   4.966
 5911WAT     H217976   4.990   3.909   5.086
 5912WAT      O17977   8.181   1.026   2.972
 5912WAT     H117978   8.146   0.935   2.994
 5912WAT     H217979   8.280   1.024   2.966
 5913WAT      O17980   1.749   6.671   9.301
 5913WAT     H117981   1.792   6.757   9.275
 5913WAT     H217982   1.650   6.684   9.309
 5914WAT      O17983   5.705   8.535   6.263
 5914WAT     H117984   5.697   8.527   6.163
 5914WAT     H217985   5.796   8.508   6.291
 5915WAT      O17986   3.864   2.541   8.178
 5915WAT     H117987   3.813   2.610   8.126
 5915WAT     H217988   3.851   2.451   8.137
 5916WAT      O17989   1.783   0.268   8.365
 5916WAT     H117990   1.704   0.246   8.422
 5916WAT     H217991   1.820   0.184   8.325
 5917WAT      O17992   0.082   1.933   2.037
 5917WAT     H117993   0.069   1.848   1.986
 5917WAT     H217994   0.175   1.938   2.071
 5918WAT      O17995   6.612   3.368   0.179
 5918WAT     H117996   6.530   3.311   0.191
 5918WAT     H217997   6.673   3.325   0.111
 5919WAT      O17998   9.540   3.663   8.347
 5919WAT     H117999   9.522   3.663   8.445
 5919WAT     H218000   9.509   3.750   8.308
 5920WAT      O18001   4.624   2.464   2.328
 5920WAT     H118002   4.544   2.434   2.381
 5920WAT     H218003   4.705   2.417   2.362
 5921WAT      O18004   4.402   1.785   1.468
 5921WAT     H118005   4.461   1.739   1.402
 5921WAT     H218006   4.381   1.722   1.543
 5922WAT      O18007   6.232   4.689   3.847
 5922WAT     H118008   6.238   4.750   3.926
 5922WAT     H218009   6.288   4.725   3.773
 5923WAT      O18010   6.927   8.359   1.184
 5923WAT     H118011   6.952   8.424   1.255
 5923WAT     H218012   6.871   8.405   1.115
 5924WAT      O18013   6.729   2.889   6.337
 5924WAT     H118014   6.822   2.920   6.359
 5924WAT     H218015   6.669   2.968   6.330
 5925WAT      O18016   2.074   7.833   5.029
 5925WAT     H118017   1.977   7.813   5.014
 5925WAT     H218018   2.084   7.894   5.108
 5926WAT      O18019   3.770   8.768   2.297
 5926WAT     H118020   3.859   8.724   2.306
 5926WAT     H218021   3.750   8.784   2.201
 5927WAT      O18022   4.899   4.616   0.833
 5927WAT     H118023   4.932   4.635   0.740
 5927WAT     H218024   4.972   4.634   0.899
 5928WAT      O18025   7.589   3.325   5.174
 5928WAT     H118026   7.557   3.239   5.214
 5928WAT     H218027   7.635   3.305   5.087
 5929WAT      O18028   6.248   3.636   6.774
 5929WAT     H118029   6.283   3.557   6.824
 5929WAT     H218030   6.248   3.717   6.833
 5930WAT      O18031   7.292   4.302   0.396
 5930WAT     H118032   7.225   4.229   0.406
 5930WAT     H218033   7.245   4.388   0.375
 5931WAT      O18034   6.904   8.736   6.496
 5931WAT     H118035   6.877   8.760   6.403
 5931WAT     H218036   6.865   8.802   6.560
 5932WAT      O18037   8.888   1.036   4.427
 5932WAT     H118038   8.810   1.061   4.370
 5932WAT     H218039   8.973   1.057   4.379
 5933WAT      O18040   0.575   2.426   1.165
 5933WAT     H118041   0.527   2.342   1.193
 5933WAT     H218042   0.588   2.425   1.066
 5934WAT      O18043   5.558   4.020   1.294
 5934WAT     H118044   5.649   4.027   1.253
 5934WAT     H218045   5.566   4.025   1.394
 5935WAT      O18046   7.080   1.029   3.640
 5935WAT     H118047   7.016   1.050   3.714
 5935WAT     H218048   7.172   1.017   3.677
 5936WAT      O18049   1.148   1.596   2.735
 5936WAT     H118050   1.193   1.674   2.780
 5936WAT     H218051   1.058   1.624   2.703
 5937WAT      O18052   7.038   2.477   1.957
 5937WAT     H118053   7.032   2.458   2.055
 5937WAT     H218054   7.021   2.394   1.905
 5938WAT      O18055   0.848   3.705   6.186
 5938WAT     H118056   0.776   3.755   6.235
 5938WAT     H218057   0.806   3.647   6.116
 5939WAT      O18058   5.425   1.763   8.305
 5939WAT     H118059   5.503   1.756   8.366
 5939WAT     H218060   5.341   1.767   8.359
 5940WAT      O18061   8.616   0.793   5.650
 5940WAT     H118062   8.619   0.870   5.713
 5940WAT     H218063   8.564   0.818   5.568
 5941WAT      O18064   1.200   1.630   0.293
 5941WAT     H118065   1.163   1.702   0.351
 5941WAT     H218066   1.132   1.605   0.223
 5942WAT      O18067   3.023   8.069   2.709
 5942WAT     H118068   2.936   8.119   2.709
 5942WAT     H218069   3.070   8.083   2.621
 5943WAT      O18070   1.760   7.814   0.099
 5943WAT     H118071   1.806   7.902   0.114
 5943WAT     H218072   1.706   7.819   0.015
 5944WAT      O18073   8.721   9.092   1.338
 5944WAT     H118074   8.674   9.075   1.252
 5944WAT     H218075   8.689   9.178   1.378
 5945WAT      O18076   8.086   8.898   4.495
 5945WAT     H118077   8.015   8.899   4.565
 5945WAT     H218078   8.174   8.876   4.537
 5946WAT      O18079   8.036   2.017   0.989
 5946WAT     H118080   7.973   2.012   0.911
 5946WAT     H218081   8.066   1.924   1.013
 5947WAT      O18082   7.753   8.997   8.985
 5947WAT     H118083   7.780   8.945   8.904
 5947WAT     H218084   7.690   8.942   9.040
 5948WAT      O18085   6.616   3.605   1.040
 5948WAT     H118086   6.585   3.516   1.073
 5948WAT     H218087   6.560   3.677   1.081
 5949WAT      O18088   5.269   6.451   4.867
 5949WAT     H118089   5.264   6.353   4.845
 5949WAT     H218090   5.311   6.463   4.957
 5950WAT      O18091   5.978   7.820   6.220
 5950WAT     H118092   6.059   7.782   6.264
 5950WAT     H218093   5.909   7.841   6.290
 5951WAT      O18094   3.964   2.387   9.067
 5951WAT     H118095   3.972   2.484   9.088
 5951WAT     H218096   3.955   2.375   8.968
 5952WAT      O18097   1.707   3.936   6.513
 5952WAT     H118098   1.712   3.839   6.538
 5952WAT     H218099   1.666   3.988   6.588
 5953WAT      O18100   9.169   5.724   5.324
 5953WAT     H118101   9.124   5.805   5.362
 5953WAT     H218102   9.228   5.751   5.248
 5954WAT      O18103   8.904   0.504   3.331
 5954WAT     H118104   8.816   0.535   3.367
 5954WAT     H218105   8.898   0.497   3.232
 5955WAT      O18106   7.046   2.511   7.663
 5955WAT     H118107   6.962   2.505   7.716
 5955WAT     H218108   7.063   2.423   7.617
 5956WAT      O18109   7.772   0.289   7.725
 5956WAT     H118110   7.761   0.387   7.713
 5956WAT     H218111   7.684   0.243   7.709
 5957WAT      O18112   3.464   6.765   9.656
 5957WAT     H118113   3.406   6.810   9.724
 5957WAT     H218114   3.459   6.815   9.569
 5958WAT      O18115   7.806   7.930   8.066
 5958WAT     H118116   7.833   7.839   8.036
 5958WAT     H218117   7.738   7.922   8.139
 5959WAT      O18118   9.852   7.805   0.350
 5959WAT     H118119   9.765   7.766   0.381
 5959WAT     H218120   9.925   7.738   0.364
 5960WAT      O18121   7.390   6.860   4.516
 5960WAT     H118122   7.424   6.954   4.511
 5960WAT     H218123   7.453   6.804   4.570
 5961WAT      O18124   2.398   1.090   2.663
 5961WAT     H118125   2.447   1.057   2.744
 5961WAT     H218126   2.301   1.095   2.684
 5962WAT      O18127   4.227   8.121   1.654
 5962WAT     H118128   4.290   8.198   1.639
 5962WAT     H218129   4.265   8.039   1.613
 5963WAT      O18130   5.406   3.127   0.558
 5963WAT     H118131   5.400   3.226   0.549
 5963WAT     H218132   5.325   3.085   0.516
 5964WAT      O18133   0.859   2.536   6.561
 5964WAT     H118134   0.947   2.559   6.601
 5964WAT     H218135   0.786   2.584   6.610
 5965WAT      O18136   1.816   5.491   2.361
 5965WAT     H118137   1.842   5.477   2.265
 5965WAT     H218138   1.859   5.573   2.396
 5966WAT      O18139   8.831   4.701   3.465
 5966WAT     H118140   8.745   4.723   3.510
 5966WAT     H218141   8.884   4.785   3.451
 5967WAT      O18142   4.032   3.171   4.845
 5967WAT     H118143   3.965   3.184   4.772
 5967WAT     H218144   3.991   3.118   4.919
 5968WAT      O18145   7.103   2.333   7.453
 5968WAT     H118146   7.114   2.314   7.355
 5968WAT     H218147   7.137   2.255   7.506
 5969WAT      O18148   5.551   9.581   7.295
 5969WAT     H118149   5.484   9.628   7.354
 5969WAT     H218150   5.601   9.650   7.242
 5970WAT      O18151   7.395   1.375   7.933
 5970WAT     H118152   7.355   1.347   8.020
 5970WAT     H218153   7.446   1.460   7.946
 5971WAT      O18154   2.140   9.712   4.608
 5971WAT     H118155   2.048   9.680   4.582
 5971WAT     H218156   2.159   9.797   4.559
 5972WAT      O18157   3.486   3.549   3.296
 5972WAT     H118158   3.387   3.538   3.301
 5972WAT     H218159   3.521   3.582   3.383
 5973WAT      O18160   3.884   1.745   8.816
 5973WAT     H118161   3.957   1.684   8.847
 5973WAT     H218162   3.860   1.808   8.890
 5974WAT      O18163   7.545   4.532   6.677
 5974WAT     H118164   7.470   4.598   6.676
 5974WAT     H218165   7.631   4.579   6.696
 5975WAT      O18166   8.906   0.076   5.160
 5975WAT     H118167   8.954   0.162   5.176
 5975WAT     H218168   8.938   0.035   5.075
 5976WAT      O18169   5.674   4.827   5.615
 5976WAT     H118170   5.590   4.881   5.618
 5976WAT     H218171   5.752   4.883   5.643
 5977WAT      O18172   0.820   6.391   9.386
 5977WAT     H118173   0.765   6.308   9.384
 5977WAT     H218174   0.913   6.369   9.416
 5978WAT      O18175   5.931   9.178   5.345
 5978WAT     H118176   5.919   9.139   5.436
 5978WAT     H218177   5.879   9.124   5.279
 5979WAT      O18178   7.980   8.034   6.540
 5979WAT     H118179   8.011   8.012   6.632
 5979WAT     H218180   8.047   8.001   6.474
 5980WAT      O18181   4.589   3.211   6.339
 5980WAT     H118182   4.532   3.230   6.420
 5980WAT     H218183   4.592   3.292   6.281
 5981WAT      O18184   5.838   1.754   1.347
 5981WAT     H118185   5.919   1.792   1.302
 5981WAT     H218186   5.853   1.750   1.446
 5982WAT      O18187   5.383   6.827   6.417
 5982WAT     H118188   5.446   6.905   6.424
 5982WAT     H218189   5.398   6.780   6.330
 5983WAT      O18190   7.642   4.141   7.602
 5983WAT     H118191   7.671   4.196   7.523
 5983WAT     H218192   7.703   4.160   7.679
 5984WAT      O18193   1.476   2.480   0.556
 5984WAT     H118194   1.516   2.532   0.632
 5984WAT     H218195   1.400   2.425   0.590
 5985WAT      O18196   7.351   2.525   4.722
 5985WAT     H118197   7.275   2.469   4.755
 5985WAT     H218198   7.429   2.516   4.785
 5986WAT      O18199   2.885   4.793   1.637
 5986WAT     H118200   2.853   4.712   1.686
 5986WAT     H218201   2.842   4.797   1.547
 5987WAT      O18202   1.370   8.286   7.777
 5987WAT     H118203   1.448   8.224   7.764
 5987WAT     H218204   1.378   8.330   7.867
 5988WAT      O18205   9.513   6.277   7.499
 5988WAT     H118206   9.436   6.339   7.514
 5988WAT     H218207   9.539   6.234   7.585
 5989WAT      O18208   9.689   2.096   7.239
 5989WAT     H118209   9.590   2.112   7.235
 5989WAT     H218210   9.708   2.026   7.309
 5990WAT      O18211   8.692   9.684   5.316
 5990WAT     H118212   8.684   9.593   5.275
 5990WAT     H218213   8.702   9.675   5.415
 5991WAT      O18214   5.427   5.615   2.956
 5991WAT     H118215   5.420   5.708   2.991
 5991WAT     H218216   5.443   5.552   3.032
 5992WAT      O18217   8.733   1.683   5.863
 5992WAT     H118218   8.795   1.618   5.818
 5992WAT     H218219   8.781   1.769   5.879
 5993WAT      O18220   5.369   4.162   5.103
 5993WAT     H118221   5.289   4.172   5.162
 5993WAT     H218222   5.412   4.252   5.089
 5994WAT      O18223   7.189   6.671   7.763
 5994WAT     H118224   7.249   6.677   7.843
 5994WAT     H218225   7.188   6.758   7.715
 5995WAT      O18226   9.555   2.748   3.182
 5995WAT     H118227   9.490   2.804   3.233
 5995WAT     H218228   9.514   2.719   3.096
 5996WAT      O18229   2.563   0.085   6.336
 5996WAT     H118230   2.464   0.073   6.345
 5996WAT     H218231   2.597   0.137   6.414
 5997WAT      O18232   8.000   6.901   2.003
 5997WAT     H118233   8.028   6.877   1.910
 5997WAT     H218234   7.977   6.998   2.007
 5998WAT      O18235   8.713   2.653   4.947
 5998WAT     H118236   8.754   2.733   4.903
 5998WAT     H218237   8.654   2.683   5.022
 5999WAT      O18238   9.851   3.927   8.637
 5999WAT     H118239   9.753   3.943   8.644
 5999WAT     H218240   9.900   4.012   8.656
 6000WAT      O18241   2.638   2.206   8.951
 6000WAT     H118242   2.671   2.152   9.028
 6000WAT     H218243   2.552   2.168   8.918
 6001WAT      O18244   9.398   6.764   7.335
 6001WAT     H118245   9.439   6.827   7.401
 6001WAT     H218246   9.400   6.804   7.244
 6002WAT      O18247   4.461   1.736   5.422
 6002WAT     H118248   4.437   1.759   5.517
 6002WAT     H218249   4.412   1.652   5.395
 6003WAT      O18250   2.083   5.098   4.068
 6003WAT     H118251   2.162   5.092   4.007
 6003WAT     H218252   2.039   5.187   4.056
 6004WAT      O18253   6.706   5.668   0.858
 6004WAT     H118254   6.731   5.575   0.885
 6004WAT     H218255   6.684   5.670   0.760
 6005WAT      O18256   3.236   2.570   7.019
 6005WAT     H118257   3.324   2.603   6.984
 6005WAT     H218258   3.165   2.638   6.999
 6006WAT      O18259   9.685   5.008   8.933
 6006WAT     H118260   9.744   4.963   8.867
 6006WAT     H218261   9.617   4.943   8.968
 6007WAT      O18262   7.582   1.981   4.062
 6007WAT     H118263   7.588   1.882   4.075
 6007WAT     H218264   7.493   2.014   4.095
 6008WAT      O18265   7.118   1.025   0.307
 6008WAT     H118266   7.149   1.028   0.402
 6008WAT     H218267   7.051   1.098   0.292
 6009WAT      O18268   2.485   0.524   1.442
 6009WAT     H118269   2.515   0.566   1.528
 6009WAT     H218270   2.486   0.593   1.370
 6010WAT      O18271   6.077   2.512   7.430
 6010WAT     H118272   6.104   2.496   7.525
 6010WAT     H218273   6.037   2.430   7.392
 6011WAT      O18274   2.049   2.192   3.907
 6011WAT     H118275   2.132   2.139   3.891
 6011WAT     H218276   1.983   2.173   3.834
 6012WAT      O18277   9.399   1.075   8.312
 6012WAT     H118278   9.456   1.146   8.353
 6012WAT     H218279   9.439   1.046   8.225
 6013WAT      O18280   9.612   9.719   2.244
 6013WAT     H118281   9.617   9.812   2.209
 6013WAT     H218282   9.681   9.706   2.316
 6014WAT      O18283   6.384   4.245   2.608
 6014WAT     H118284   6.458   4.209   2.665
 6014WAT     H218285   6.318   4.295   2.665
 6015WAT      O18286   6.448   1.548   4.690
 6015WAT     H118287   6.456   1.631   4.745
 6015WAT     H218288   6.501   1.475   4.731
 6016WAT      O18289   8.976   9.830   3.162
 6016WAT     H118290   9.052   9.796   3.217
 6016WAT     H218291   8.997   9.818   3.065
 6017WAT      O18292   0.486   0.256   8.453
 6017WAT     H118293   0.574   0.246   8.500
 6017WAT     H218294   0.502   0.287   8.359
 6018WAT      O18295   5.856   4.383   4.320
 6018WAT     H118296   5.918   4.455   4.351
 6018WAT     H218297   5.775   4.381   4.379
 6019WAT      O18298   8.831   5.774   3.734
 6019WAT     H118299   8.783   5.853   3.772
 6019WAT     H218300   8.897   5.805   3.666
 6020WAT      O18301   9.073   3.472   9.682
 6020WAT     H118302   9.169   3.447   9.690
 6020WAT     H218303   9.016   3.392   9.696
 6021WAT      O18304   0.797   0.181   4.469
 6021WAT     H118305   0.776   0.239   4.547
 6021WAT     H218306   0.876   0.218   4.420
 6022WAT      O18307   0.660   5.879   1.920
 6022WAT     H118308   0.677   5.966   1.966
 6022WAT     H218309   0.696   5.804   1.975
 6023WAT      O18310   8.502   7.909   3.717
 6023WAT     H118311   8.583   7.869   3.672
 6023WAT     H218312   8.512   7.903   3.816
 6024WAT      O18313   3.813   7.302   9.421
 6024WAT     H118314   3.838   7.205   9.428
 6024WAT     H218315   3.831   7.347   9.508
 6025WAT      O18316   1.699   3.309   9.057
 6025WAT     H118317   1.783   3.315   9.003
 6025WAT     H218318   1.644   3.391   9.043
 6026WAT      O18319   0.172   6.869   6.280
 6026WAT     H118320   0.236   6.858   6.356
 6026WAT     H218321   0.129   6.781   6.260
 6027WAT      O18322   5.833   1.080   6.085
 6027WAT     H118323   5.885   1.117   6.008
 6027WAT     H218324   5.761   1.144   6.111
 6028WAT      O18325   1.188   0.074   1.503
 6028WAT     H118326   1.255   0.090   1.431
 6028WAT     H218327   1.227   0.098   1.592
 6029WAT      O18328   6.060   0.923   7.113
 6029WAT     H118329   6.153   0.889   7.098
 6029WAT     H218330   5.996   0.847   7.111
 6030WAT      O18331   8.310   6.978   8.940
 6030WAT     H118332   8.220   6.937   8.931
 6030WAT     H218333   8.380   6.907   8.934
 6031WAT      O18334   2.091   6.696   1.486
 6031WAT     H118335   2.127   6.770   1.543
 6031WAT     H218336   1.998   6.718   1.458
 6032WAT      O18337   8.997   3.915   5.858
 6032WAT     H118338   8.949   3.901   5.772
 6032WAT     H218339   9.094   3.930   5.839
 6033WAT      O18340   2.154   3.301   8.800
 6033WAT     H118341   2.241   3.313   8.754
 6033WAT     H218342   2.088   3.259   8.737
 6034WAT      O18343   0.374   7.319   7.109
 6034WAT     H118344   0.279   7.290   7.115
 6034WAT     H218345   0.415   7.281   7.026
 6035WAT      O18346   6.719   6.607   4.955
 6035WAT     H118347   6.765   6.622   5.043
 6035WAT     H218348   6.785   6.621   4.881
 6036WAT      O18349   6.359   6.290   7.890
 6036WAT     H118350   6.293   6.249   7.827
 6036WAT     H218351   6.452   6.269   7.859
 6037WAT      O18352   5.316   1.370   1.460
 6037WAT     H118353   5.360   1.459   1.477
 6037WAT     H218354   5.347   1.304   1.528
 6038WAT      O18355   0.102   3.391   1.355
 6038WAT     H118356   0.033   3.397   1.428
 6038WAT     H218357   0.067   3.436   1.273
 6039WAT      O18358   0.652   7.291   9.648
 6039WAT     H118359   0.715   7.366   9.629
 6039WAT     H218360   0.672   7.214   9.587
 6040WAT      O18361   1.138   2.696   7.272
 6040WAT     H118362   1.198   2.632   7.224
 6040WAT     H218363   1.053   2.708   7.219
 6041WAT      O18364   6.855   0.225   9.123
 6041WAT     H118365   6.908   0.211   9.206
 6041WAT     H218366   6.910   0.275   9.056
 6042WAT      O18367   1.375   1.402   9.311
 6042WAT     H118368   1.461   1.380   9.264
 6042WAT     H218369   1.367   1.346   9.394
 6043WAT      O18370   0.508   9.324   7.768
 6043WAT     H118371   0.447   9.255   7.808
 6043WAT     H218372   0.576   9.279   7.710
 6044WAT      O18373   8.525   3.226   0.861
 6044WAT     H118374   8.442   3.280   0.872
 6044WAT     H218375   8.576   3.226   0.947
 6045WAT      O18376   9.499   7.996   8.940
 6045WAT     H118377   9.524   8.047   8.859
 6045WAT     H218378   9.512   7.898   8.923
 6046WAT      O18379   5.617   0.108   9.670
 6046WAT     H118380   5.597   0.065   9.582
 6046WAT     H218381   5.544   0.087   9.735
 6047WAT      O18382   4.409   1.534   9.243
 6047WAT     H118383   4.490   1.544   9.300
 6047WAT     H218384   4.433   1.546   9.147
 6048WAT      O18385   2.366   7.114   3.411
 6048WAT     H118386   2.466   7.125   3.412
 6048WAT     H218387   2.338   7.057   3.488
 6049WAT      O18388   3.626   3.783   8.415
 6049WAT     H118389   3.700   3.848   8.434
 6049WAT     H218390   3.625   3.711   8.484
 6050WAT      O18391   1.343   5.457   7.445
 6050WAT     H118392   1.398   5.480   7.365
 6050WAT     H218393   1.249   5.435   7.416
 6051WAT      O18394   6.070   7.824   6.631
 6051WAT     H118395   5.975   7.806   6.655
 6051WAT     H218396   6.125   7.743   6.649
 6052WAT      O18397   4.008   4.179   2.017
 6052WAT     H118398   4.001   4.273   2.052
 6052WAT     H218399   4.095   4.168   1.969
 6053WAT      O18400   7.139   6.012   7.272
 6053WAT     H118401   7.172   6.071   7.198
 6053WAT     H218402   7.040   6.023   7.282
 6054WAT      O18403   1.604   5.841   5.547
 6054WAT     H118404   1.555   5.849   5.633
 6054WAT     H218405   1.559   5.896   5.477
 6055WAT      O18406   3.761   5.655   7.487
 6055WAT     H118407   3.723   5.698   7.405
 6055WAT     H218408   3.854   5.624   7.469
 6056WAT      O18409   0.471   4.327   9.643
 6056WAT     H118410   0.397   4.394   9.648
 6056WAT     H218411   0.518   4.335   9.555
 6057WAT      O18412   9.795   6.423   3.131
 6057WAT     H118413   9.736   6.489   3.085
 6057WAT     H218414   9.742   6.373   3.200
 6058WAT      O18415   6.218   7.667   1.857
 6058WAT     H118416   6.300   7.611   1.847
 6058WAT     H218417   6.197   7.712   1.771
 6059WAT      O18418   9.035   4.329   1.808
 6059WAT     H118419   9.119   4.345   1.860
 6059WAT     H218420   9.057   4.317   1.712
 6060WAT      O18421   5.845   0.425   4.552
 6060WAT     H118422   5.762   0.370   4.559
 6060WAT     H218423   5.920   0.368   4.519
 6061WAT      O18424   9.024   8.451   4.926
 6061WAT     H118425   9.045   8.366   4.974
 6061WAT     H218426   8.939   8.441   4.874
 6062WAT      O18427   1.859   0.522   8.451
 6062WAT     H118428   1.863   0.511   8.550
 6062WAT     H218429   1.846   0.432   8.408
 6063WAT      O18430   0.799   7.704   9.136
 6063WAT     H118431   0.789   7.776   9.205
 6063WAT     H218432   0.887   7.658   9.147
 6064WAT      O18433   6.958   2.601   8.055
 6064WAT     H118434   6.917   2.667   8.119
 6064WAT     H218435   6.899   2.521   8.048
 6065WAT      O18436   4.344   1.097   7.538
 6065WAT     H118437   4.379   1.161   7.470
 6065WAT     H218438   4.248   1.075   7.517
 6066WAT      O18439   4.322   9.468   8.751
 6066WAT     H118440   4.279   9.557   8.741
 6066WAT     H218441   4.392   9.457   8.681
 6067WAT      O18442   9.768   2.373   7.828
 6067WAT     H118443   9.690   2.377   7.766
 6067WAT     H218444   9.811   2.283   7.821
 6068WAT      O18445   7.160   7.242   5.927
 6068WAT     H118446   7.110   7.322   5.894
 6068WAT     H218447   7.159   7.171   5.857
 6069WAT      O18448   2.485   2.016   3.076
 6069WAT     H118449   2.487   2.113   3.099
 6069WAT     H218450   2.524   1.963   3.151
 6070WAT      O18451   7.270   9.761   9.495
 6070WAT     H118452   7.347   9.822   9.476
 6070WAT     H218453   7.204   9.807   9.554
 6071WAT      O18454   9.354   4.198   0.058
 6071WAT     H118455   9.355   4.298   0.053
 6071WAT     H218456   9.423   4.160  -0.003
 6072WAT      O18457   0.880   1.950   6.053
 6072WAT     H118458   0.902   1.858   6.083
 6072WAT     H218459   0.965   2.003   6.043
 6073WAT      O18460   9.151   5.595   6.437
 6073WAT     H118461   9.072   5.656   6.425
 6073WAT     H218462   9.140   5.544   6.522
 6074WAT      O18463   5.091   9.089   8.308
 6074WAT     H118464   5.115   9.133   8.394
 6074WAT     H218465   4.993   9.070   8.306
 6075WAT      O18466   2.636   7.744   3.557
 6075WAT     H118467   2.588   7.823   3.518
 6075WAT     H218468   2.618   7.663   3.501
 6076WAT      O18469   4.390   0.446   1.246
 6076WAT     H118470   4.387   0.355   1.205
 6076WAT     H218471   4.298   0.475   1.271
 6077WAT      O18472   6.946   1.529   9.634
 6077WAT     H118473   6.942   1.429   9.637
 6077WAT     H218474   6.900   1.562   9.552
 6078WAT      O18475   4.286   6.390   5.740
 6078WAT     H118476   4.378   6.357   5.719
 6078WAT     H218477   4.287   6.441   5.826
 6079WAT      O18478   7.187   8.615   7.953
 6079WAT     H118479   7.284   8.630   7.935
 6079WAT     H218480   7.147   8.699   7.992
 6080WAT      O18481   9.536   6.701   6.912
 6080WAT     H118482   9.611   6.670   6.853
 6080WAT     H218483   9.515   6.796   6.892
 6081WAT      O18484   4.803   5.252   4.539
 6081WAT     H118485   4.803   5.153   4.550
 6081WAT     H218486   4.893   5.282   4.508
 6082WAT      O18487   8.844   0.111   5.517
 6082WAT     H118488   8.944   0.098   5.519
 6082WAT     H218489   8.820   0.163   5.435
 6083WAT      O18490   5.361   8.176   9.315
 6083WAT     H118491   5.301   8.106   9.355
 6083WAT     H218492   5.395   8.144   9.227
 6084WAT      O18493   0.662   2.010   7.525
 6084WAT     H118494   0.574   2.000   7.477
 6084WAT     H218495   0.660   2.092   7.582
 6085WAT      O18496   0.639   9.195   2.239
 6085WAT     H118497   0.639   9.154   2.148
 6085WAT     H218498   0.624   9.293   2.232
 6086WAT      O18499   2.665   6.763   9.342
 6086WAT     H118500   2.615   6.735   9.424
 6086WAT     H218501   2.713   6.684   9.305
 6087WAT      O18502   5.109   8.008   5.870
 6087WAT     H118503   5.097   7.955   5.955
 6087WAT     H218504   5.019   8.027   5.830
 6088WAT      O18505   7.282   0.718   5.720
 6088WAT     H118506   7.185   0.720   5.694
 6088WAT     H218507   7.303   0.799   5.775
 6089WAT      O18508   3.766   9.702   7.353
 6089WAT     H118509   3.852   9.753   7.351
 6089WAT     H218510   3.786   9.604   7.352
 6090WAT      O18511   9.294   9.576   4.191
 6090WAT     H118512   9.247   9.642   4.250
 6090WAT     H218513   9.383   9.554   4.231
 6091WAT      O18514   8.255   2.995   7.285
 6091WAT     H118515   8.353   2.979   7.272
 6091WAT     H218516   8.218   2.925   7.346
 6092WAT      O18517   5.119   3.848   3.614
 6092WAT     H118518   5.194   3.781   3.618
 6092WAT     H218519   5.042   3.816   3.668
 6093WAT      O18520   1.904   5.754   2.426
 6093WAT     H118521   1.880   5.821   2.355
 6093WAT     H218522   2.003   5.755   2.441
 6094WAT      O18523   2.778   2.130   3.451
 6094WAT     H118524   2.833   2.154   3.371
 6094WAT     H218525   2.780   2.205   3.517
 6095WAT      O18526   0.592   5.951   5.558
 6095WAT     H118527   0.624   5.987   5.470
 6095WAT     H218528   0.671   5.919   5.611
 6096WAT      O18529   9.554   8.348   2.553
 6096WAT     H118530   9.630   8.404   2.585
 6096WAT     H218531   9.530   8.374   2.460
 6097WAT      O18532   0.043   9.832   5.751
 6097WAT     H118533   0.072   9.763   5.818
 6097WAT     H218534  -0.005   9.787   5.676
 6098WAT      O18535   7.974   7.122   8.744
 6098WAT     H118536   8.069   7.151   8.733
 6098WAT     H218537   7.957   7.040   8.689
 6099WAT      O18538   9.180   4.997   0.201
 6099WAT     H118539   9.254   5.009   0.135
 6099WAT     H218540   9.106   5.062   0.181
 6100WAT      O18541   0.331   0.007   1.709
 6100WAT     H118542   0.350  -0.091   1.702
 6100WAT     H218543   0.286   0.026   1.796
 6101WAT      O18544   1.640   0.837   5.104
 6101WAT     H118545   1.676   0.747   5.129
 6101WAT     H218546   1.712   0.890   5.059
 6102WAT      O18547   8.788   2.749   4.208
 6102WAT     H118548   8.819   2.829   4.259
 6102WAT     H218549   8.716   2.776   4.144
 6103WAT      O18550   8.466   3.256   4.054
 6103WAT     H118551   8.423   3.284   3.968
 6103WAT     H218552   8.396   3.241   4.124
 6104WAT      O18553   0.237   1.129   5.114
 6104WAT     H118554   0.229   1.033   5.090
 6104WAT     H218555   0.294   1.139   5.196
 6105WAT      O18556   0.668   3.416   4.796
 6105WAT     H118557   0.622   3.347   4.853
 6105WAT     H218558   0.633   3.506   4.818
 6106WAT      O18559   3.464   2.509   8.883
 6106WAT     H118560   3.530   2.545   8.817
 6106WAT     H218561   3.388   2.467   8.834
 6107WAT      O18562   8.003   2.471   9.108
 6107WAT     H118563   7.944   2.496   9.032
 6107WAT     H218564   8.063   2.395   9.081
 6108WAT      O18565   3.272   0.531   0.824
 6108WAT     H118566   3.240   0.575   0.908
 6108WAT     H218567   3.297   0.600   0.757
 6109WAT      O18568   9.083   9.681   5.034
 6109WAT     H118569   9.018   9.733   4.980
 6109WAT     H218570   9.064   9.693   5.131
 6110WAT      O18571   6.333   7.796   0.077
 6110WAT     H118572   6.281   7.750   0.149
 6110WAT     H218573   6.380   7.728   0.021
 6111WAT      O18574   5.958   4.824   5.374
 6111WAT     H118575   5.951   4.866   5.465
 6111WAT     H218576   6.047   4.779   5.365
 6112WAT      O18577   4.287   3.031   3.358
 6112WAT     H118578   4.242   3.080   3.284
 6112WAT     H218579   4.361   2.975   3.321
 6113WAT      O18580   0.756   7.667   4.884
 6113WAT     H118581   0.811   7.679   4.966
 6113WAT     H218582   0.662   7.696   4.902
 6114WAT      O18583   2.382   6.449   6.115
 6114WAT     H118584   2.458   6.503   6.077
 6114WAT     H218585   2.302   6.457   6.055
 6115WAT      O18586   9.311   6.396   2.119
 6115WAT     H118587   9.261   6.330   2.062
 6115WAT     H218588   9.398   6.356   2.147
 6116WAT      O18589   5.124   7.337   8.037
 6116WAT     H118590   5.048   7.305   7.980
 6116WAT     H218591   5.163   7.260   8.087
 6117WAT      O18592   4.213   8.636   1.033
 6117WAT     H118593   4.164   8.611   1.117
 6117WAT     H218594   4.294   8.689   1.056
 6118WAT      O18595   9.340   8.898   4.728
 6118WAT     H118596   9.346   8.918   4.825
 6118WAT     H218597   9.306   8.978   4.679
 6119WAT      O18598   0.179   7.039   9.795
 6119WAT     H118599   0.222   7.042   9.705
 6119WAT     H218600   0.124   6.956   9.802
 6120WAT      O18601   0.727   7.307   1.686
 6120WAT     H118602   0.770   7.237   1.631
 6120WAT     H218603   0.684   7.375   1.626
 6121WAT      O18604   5.917   8.166   7.466
 6121WAT     H118605   5.993   8.224   7.436
 6121WAT     H218606   5.952   8.089   7.520
 6122WAT      O18607   6.322   3.587   5.557
 6122WAT     H118608   6.406   3.557   5.513
 6122WAT     H218609   6.340   3.668   5.612
 6123WAT      O18610   6.103   6.932   7.887
 6123WAT     H118611   6.127   6.965   7.978
 6123WAT     H218612   6.030   6.988   7.849
 6124WAT      O18613   8.358   6.785   8.544
 6124WAT     H118614   8.274   6.790   8.598
 6124WAT     H218615   8.348   6.718   8.472
 6125WAT      O18616   0.106   8.896   3.774
 6125WAT     H118617   0.088   8.976   3.717
 6125WAT     H218618   0.103   8.814   3.717
 6126WAT      O18619   4.303   7.638   7.101
 6126WAT     H118620   4.393   7.683   7.103
 6126WAT     H218621   4.233   7.701   7.134
 6127WAT      O18622   6.145   9.380   9.462
 6127WAT     H118623   6.115   9.463   9.415
 6127WAT     H218624   6.207   9.328   9.403
 6128WAT      O18625   2.997   4.208   2.640
 6128WAT     H118626   3.049   4.280   2.595
 6128WAT     H218627   3.017   4.120   2.597
 6129WAT      O18628   5.511   2.761   7.940
 6129WAT     H118629   5.531   2.711   7.855
 6129WAT     H218630   5.433   2.822   7.925
 6130WAT      O18631   5.577   5.291   1.825
 6130WAT     H118632   5.581   5.220   1.895
 6130WAT     H218633   5.492   5.343   1.835
 6131WAT      O18634   3.622   9.158   9.202
 6131WAT     H118635   3.624   9.079   9.141
 6131WAT     H218636   3.713   9.172   9.241
 6132WAT      O18637   8.043   8.123   0.652
 6132WAT     H118638   7.944   8.128   0.636
 6132WAT     H218639   8.089   8.190   0.595
 6133WAT      O18640   2.713   6.204   1.774
 6133WAT     H118641   2.649   6.225   1.700
 6133WAT     H218642   2.767   6.124   1.750
 6134WAT      O18643   3.175   5.600   5.200
 6134WAT     H118644   3.259   5.612   5.146
 6134WAT     H218645   3.197   5.599   5.297
 6135WAT      O18646   4.099   2.992   7.531
 6135WAT     H118647   4.194   2.997   7.560
 6135WAT     H218648   4.039   3.018   7.607
 6136WAT      O18649   5.526   2.175   8.818
 6136WAT     H118650   5.467   2.249   8.849
 6136WAT     H218651   5.582   2.143   8.894
 6137WAT      O18652   9.144   0.461   3.917
 6137WAT     H118653   9.189   0.411   3.843
 6137WAT     H218654   9.065   0.511   3.879
 6138WAT      O18655   8.499   6.660   1.424
 6138WAT     H118656   8.463   6.640   1.515
 6138WAT     H218657   8.426   6.697   1.367
 6139WAT      O18658   1.366   5.381   3.250
 6139WAT     H118659   1.373   5.477   3.277
 6139WAT     H218660   1.305   5.333   3.313
 6140WAT      O18661   9.122   6.336   8.331
 6140WAT     H118662   9.085   6.325   8.239
 6140WAT     H218663   9.220   6.357   8.325
 6141WAT      O18664   3.302   6.324   2.387
 6141WAT     H118665   3.299   6.231   2.422
 6141WAT     H218666   3.288   6.389   2.462
 6142WAT      O18667   1.390   9.250   2.493
 6142WAT     H118668   1.390   9.155   2.460
 6142WAT     H218669   1.455   9.303   2.440
 6143WAT      O18670   2.452   4.711   3.155
 6143WAT     H118671   2.357   4.693   3.130
 6143WAT     H218672   2.454   4.767   3.237
 6144WAT      O18673   3.852   5.859   6.262
 6144WAT     H118674   3.854   5.958   6.278
 6144WAT     H218675   3.812   5.813   6.341
 6145WAT      O18676   8.115   1.349   8.425
 6145WAT     H118677   8.120   1.262   8.474
 6145WAT     H218678   8.022   1.363   8.390
 6146WAT      O18679   4.683   2.382   3.553
 6146WAT     H118680   4.628   2.311   3.597
 6146WAT     H218681   4.744   2.423   3.621
 6147WAT      O18682   0.703   0.925   9.774
 6147WAT     H118683   0.685   0.837   9.730
 6147WAT     H218684   0.785   0.966   9.734
 6148WAT      O18685   5.785   0.328   8.865
 6148WAT     H118686   5.745   0.251   8.915
 6148WAT     H218687   5.742   0.335   8.775
 6149WAT      O18688   4.142   7.536   9.095
 6149WAT     H118689   4.121   7.477   9.173
 6149WAT     H218690   4.222   7.500   9.047
 6150WAT      O18691   5.098   4.495   8.598
 6150WAT     H118692   5.169   4.565   8.590
 6150WAT     H218693   5.103   4.432   8.521
 6151WAT      O18694   1.734   5.385   4.449
 6151WAT     H118695   1.650   5.431   4.476
 6151WAT     H218696   1.763   5.418   4.359
 6152WAT      O18697   4.627   1.881   5.093
 6152WAT     H118698   4.615   1.917   5.001
 6152WAT     H218699   4.596   1.949   5.160
 6153WAT      O18700   2.640   2.684   4.996
 6153WAT     H118701   2.639   2.661   4.899
 6153WAT     H218702   2.589   2.769   5.011
 6154WAT      O18703   0.809   9.397   8.831
 6154WAT     H118704   0.899   9.373   8.869
 6154WAT     H218705   0.761   9.313   8.805
 6155WAT      O18706   6.380   6.306   6.990
 6155WAT     H118707   6.356   6.297   7.087
 6155WAT     H218708   6.369   6.401   6.961
 6156WAT      O18709   1.507   5.378   9.309
 6156WAT     H118710   1.429   5.431   9.277
 6156WAT     H218711   1.525   5.303   9.246
 6157WAT      O18712   6.491   8.131   7.317
 6157WAT     H118713   6.531   8.040   7.302
 6157WAT     H218714   6.449   8.163   7.232
 6158WAT      O18715   1.920   1.624   1.120
 6158WAT     H118716   1.823   1.646   1.118
 6158WAT     H218717   1.935   1.535   1.076
 6159WAT      O18718   6.033   1.301   4.785
 6159WAT     H118719   5.945   1.253   4.791
 6159WAT     H218720   6.096   1.247   4.729
 6160WAT      O18721   2.830   0.952   1.158
 6160WAT     H118722   2.825   1.043   1.200
 6160WAT     H218723   2.923   0.937   1.123
 6161WAT      O18724   7.764   1.328   4.413
 6161WAT     H118725   7.767   1.273   4.496
 6161WAT     H218726   7.806   1.417   4.430
 6162WAT      O18727   8.467   8.352   1.605
 6162WAT     H118728   8.373   8.325   1.622
 6162WAT     H218729   8.528   8.274   1.618
 6163WAT      O18730   1.403   5.193   6.359
 6163WAT     H118731   1.329   5.165   6.297
 6163WAT     H218732   1.449   5.273   6.322
 6164WAT      O18733   7.814   4.182   4.554
 6164WAT     H118734   7.772   4.127   4.483
 6164WAT     H218735   7.912   4.192   4.536
 6165WAT      O18736   9.650   3.912   6.702
 6165WAT     H118737   9.635   3.891   6.799
 6165WAT     H218738   9.628   3.832   6.646
 6166WAT      O18739   1.599   1.795   9.732
 6166WAT     H118740   1.588   1.894   9.728
 6166WAT     H218741   1.548   1.758   9.810
 6167WAT      O18742   5.725   7.977   9.314
 6167WAT     H118743   5.709   7.882   9.290
 6167WAT     H218744   5.754   7.983   9.410
 6168WAT      O18745   1.276   0.117   0.915
 6168WAT     H118746   1.239   0.064   0.839
 6168WAT     H218747   1.364   0.078   0.944
 6169WAT      O18748   4.383   0.819   5.502
 6169WAT     H118749   4.415   0.743   5.445
 6169WAT     H218750   4.294   0.851   5.468
 6170WAT      O18751   9.212   5.343   3.076
 6170WAT     H118752   9.244   5.430   3.038
 6170WAT     H218753   9.225   5.343   3.175
 6171WAT      O18754   8.035   1.053   3.500
 6171WAT     H118755   8.054   1.055   3.598
 6171WAT     H218756   8.083   0.976   3.458
 6172WAT      O18757   5.324   9.411   0.830
 6172WAT     H118758   5.259   9.345   0.793
 6172WAT     H218759   5.367   9.373   0.912
 6173WAT      O18760   0.489   1.864   7.068
 6173WAT     H118761   0.497   1.964   7.074
 6173WAT     H218762   0.573   1.826   7.032
 6174WAT      O18763   9.131   2.896   4.076
 6174WAT     H118764   9.115   2.827   4.005
 6174WAT     H218765   9.066   2.971   4.065
 6175WAT      O18766   4.543   5.906   4.809
 6175WAT     H118767   4.591   5.826   4.846
 6175WAT     H218768   4.563   5.915   4.711
 6176WAT      O18769   9.306   2.266   2.580
 6176WAT     H118770   9.218   2.233   2.614
 6176WAT     H218771   9.292   2.322   2.498
 6177WAT      O18772   8.911   9.550   1.368
 6177WAT     H118773   8.858   9.557   1.453
 6177WAT     H218774   8.973   9.472   1.373
 6178WAT      O18775   2.784   3.271   8.894
 6178WAT     H118776   2.772   3.316   8.805
 6178WAT     H218777   2.707   3.209   8.911
 6179WAT      O18778   7.742   5.557   1.902
 6179WAT     H118779   7.743   5.568   1.802
 6179WAT     H218780   7.834   5.539   1.935
 6180WAT      O18781   0.487   8.133   9.168
 6180WAT     H118782   0.447   8.216   9.206
 6180WAT     H218783   0.415   8.073   9.133
 6181WAT      O18784   1.019   3.388   6.194
 6181WAT     H118785   1.052   3.481   6.210
 6181WAT     H218786   1.080   3.341   6.130
 6182WAT      O18787   6.854   9.748   7.022
 6182WAT     H118788   6.827   9.765   7.116
 6182WAT     H218789   6.848   9.832   6.969
 6183WAT      O18790   2.068   1.152   3.997
 6183WAT     H118791   2.069   1.145   3.898
 6183WAT     H218792   2.139   1.092   4.036
 6184WAT      O18793   6.067   6.707   8.878
 6184WAT     H118794   6.034   6.681   8.787
 6184WAT     H218795   6.150   6.656   8.899
 6185WAT      O18796   7.833   4.883   2.051
 6185WAT     H118797   7.924   4.846   2.068
 6185WAT     H218798   7.835   4.983   2.064
 6186WAT      O18799   6.767   2.053   5.269
 6186WAT     H118800   6.707   2.114   5.217
 6186WAT     H218801   6.759   1.960   5.232
 6187WAT      O18802   6.093   7.368   5.944
 6187WAT     H118803   6.020   7.302   5.958
 6187WAT     H218804   6.123   7.405   6.032
 6188WAT      O18805   3.002   3.488   1.211
 6188WAT     H118806   3.099   3.481   1.187
 6188WAT     H218807   2.980   3.419   1.281
 6189WAT      O18808   4.945   8.300   5.511
 6189WAT     H118809   4.983   8.384   5.473
 6189WAT     H218810   4.947   8.305   5.611
 6190WAT      O18811   8.672   4.677   8.576
 6190WAT     H118812   8.699   4.589   8.536
 6190WAT     H218813   8.601   4.719   8.520
 6191WAT      O18814   0.634   4.540   7.234
 6191WAT     H118815   0.589   4.565   7.320
 6191WAT     H218816   0.622   4.442   7.218
 6192WAT      O18817   2.601   6.588   8.055
 6192WAT     H118818   2.701   6.588   8.068
 6192WAT     H218819   2.560   6.652   8.119
 6193WAT      O18820   1.880   5.892   8.248
 6193WAT     H118821   1.787   5.909   8.281
 6193WAT     H218822   1.946   5.933   8.311
 6194WAT      O18823   6.357   9.297   5.477
 6194WAT     H118824   6.400   9.209   5.461
 6194WAT     H218825   6.269   9.300   5.431
 6195WAT      O18826   3.260   3.767   8.311
 6195WAT     H118827   3.278   3.671   8.292
 6195WAT     H218828   3.241   3.815   8.225
 6196WAT      O18829   7.542   5.388   9.462
 6196WAT     H118830   7.444   5.400   9.445
 6196WAT     H218831   7.579   5.471   9.505
 6197WAT      O18832   5.335   3.623   4.333
 6197WAT     H118833   5.247   3.669   4.323
 6197WAT     H218834   5.384   3.625   4.246
 6198WAT      O18835   9.567   0.371   1.592
 6198WAT     H118836   9.621   0.341   1.514
 6198WAT     H218837   9.559   0.296   1.657
 6199WAT      O18838   1.657   4.089   2.562
 6199WAT     H118839   1.753   4.099   2.536
 6199WAT     H218840   1.652   4.055   2.656
 6200WAT      O18841   6.193   7.105   8.108
 6200WAT     H118842   6.178   7.043   8.185
 6200WAT     H218843   6.138   7.187   8.120
 6201WAT      O18844   9.178   7.381   0.804
 6201WAT     H118845   9.187   7.318   0.880
 6201WAT     H218846   9.141   7.468   0.836
 6202WAT      O18847   1.171   5.903   7.278
 6202WAT     H118848   1.219   5.828   7.234
 6202WAT     H218849   1.207   5.990   7.243
 6203WAT      O18850   6.455   4.531   6.552
 6203WAT     H118851   6.471   4.625   6.581
 6203WAT     H218852   6.517   4.470   6.601
 6204WAT      O18853   1.295   0.475   4.615
 6204WAT     H118854   1.340   0.396   4.656
 6204WAT     H218855   1.341   0.499   4.529
 6205WAT      O18856   2.219   3.043   9.314
 6205WAT     H118857   2.198   2.973   9.382
 6205WAT     H218858   2.315   3.072   9.324
 6206WAT      O18859   7.074   1.019   8.889
 6206WAT     H118860   7.165   0.984   8.911
 6206WAT     H218861   7.083   1.092   8.820
 6207WAT      O18862   0.910   6.193   3.269
 6207WAT     H118863   0.817   6.230   3.274
 6207WAT     H218864   0.956   6.228   3.188
 6208WAT      O18865   1.537   7.166   1.805
 6208WAT     H118866   1.516   7.101   1.732
 6208WAT     H218867   1.602   7.125   1.869
 6209WAT      O18868   4.690   0.980   3.595
 6209WAT     H118869   4.591   0.981   3.580
 6209WAT     H218870   4.736   0.976   3.506
 6210WAT      O18871   3.563   4.717   9.154
 6210WAT     H118872   3.609   4.632   9.177
 6210WAT     H218873   3.528   4.713   9.061
 6211WAT      O18874   7.916   9.136   5.442
 6211WAT     H118875   7.901   9.049   5.490
 6211WAT     H218876   7.881   9.129   5.349
 6212WAT      O18877   0.021   3.256   2.297
 6212WAT     H118878   0.044   3.290   2.206
 6212WAT     H218879  -0.052   3.313   2.335
 6213WAT      O18880   4.641   9.018   6.929
 6213WAT     H118881   4.586   8.960   6.868
 6213WAT     H218882   4.713   8.963   6.972
 6214WAT      O18883   2.561   2.093   9.377
 6214WAT     H118884   2.632   2.039   9.333
 6214WAT     H218885   2.602   2.173   9.420
 6215WAT      O18886   9.697   9.298   5.009
 6215WAT     H118887   9.610   9.268   4.971
 6215WAT     H218888   9.686   9.320   5.106
 6216WAT      O18889   2.691   3.187   5.301
 6216WAT     H118890   2.639   3.206   5.218
 6216WAT     H218891   2.692   3.268   5.359
 6217WAT      O18892   7.358   2.154   8.157
 6217WAT     H118893   7.332   2.117   8.247
 6217WAT     H218894   7.324   2.247   8.148
 6218WAT      O18895   9.504   1.226   2.197
 6218WAT     H118896   9.472   1.285   2.270
 6218WAT     H218897   9.516   1.133   2.232
 6219WAT      O18898   5.198   9.150   4.147
 6219WAT     H118899   5.188   9.053   4.170
 6219WAT     H218900   5.288   9.181   4.176
 6220WAT      O18901   7.545   0.453   3.225
 6220WAT     H118902   7.596   0.397   3.290
 6220WAT     H218903   7.530   0.544   3.265
 6221WAT      O18904   0.180   2.715   4.408
 6221WAT     H118905   0.224   2.750   4.490
 6221WAT     H218906   0.234   2.641   4.370
 6222WAT      O18907   6.405   7.522   7.689
 6222WAT     H118908   6.401   7.569   7.777
 6222WAT     H218909   6.411   7.423   7.705
 6223WAT      O18910   8.555   5.606   9.377
 6223WAT     H118911   8.539   5.703   9.361
 6223WAT     H218912   8.653   5.588   9.378
 6224WAT      O18913   5.755   0.847   7.661
 6224WAT     H118914   5.742   0.832   7.759
 6224WAT     H218915   5.820   0.780   7.625
 6225WAT      O18916   9.552   5.884   3.363
 6225WAT     H118917   9.544   5.805   3.423
 6225WAT     H218918   9.581   5.855   3.272
 6226WAT      O18919   3.701   6.865   1.866
 6226WAT     H118920   3.792   6.876   1.905
 6226WAT     H218921   3.708   6.818   1.778
 6227WAT      O18922   1.755   6.555   6.884
 6227WAT     H118923   1.717   6.545   6.792
 6227WAT     H218924   1.776   6.651   6.901
 6228WAT      O18925   8.819   9.620   4.520
 6228WAT     H118926   8.722   9.601   4.506
 6228WAT     H218927   8.842   9.709   4.480
 6229WAT      O18928   8.632   1.867   3.088
 6229WAT     H118929   8.535   1.847   3.074
 6229WAT     H218930   8.665   1.819   3.169
 6230WAT      O18931   9.476   8.573   9.744
 6230WAT     H118932   9.430   8.638   9.805
 6230WAT     H218933   9.566   8.608   9.720
 6231WAT      O18934   7.467   2.144   5.020
 6231WAT     H118935   7.459   2.083   5.099
 6231WAT     H218936   7.563   2.160   5.000
 6232WAT      O18937   0.830   3.719   5.293
 6232WAT     H118938   0.893   3.775   5.239
 6232WAT     H218939   0.745   3.770   5.309
 6233WAT      O18940   1.224   9.116   0.177
 6233WAT     H118941   1.197   9.193   0.234
 6233WAT     H218942   1.227   9.033   0.233
 6234WAT      O18943   5.930   6.719   8.327
 6234WAT     H118944   5.843   6.670   8.327
 6234WAT     H218945   5.951   6.750   8.419
 6235WAT      O18946   6.893   5.168   7.479
 6235WAT     H118947   6.971   5.167   7.543
 6235WAT     H218948   6.873   5.262   7.452
 6236WAT      O18949   3.598   0.197   3.632
 6236WAT     H118950   3.566   0.180   3.539
 6236WAT     H218951   3.630   0.291   3.640
 6237WAT      O18952   7.484   0.456   9.515
 6237WAT     H118953   7.503   0.479   9.611
 6237WAT     H218954   7.385   0.452   9.501
 6238WAT      O18955   5.569   7.128   6.121
 6238WAT     H118956   5.600   7.036   6.099
 6238WAT     H218957   5.483   7.147   6.073
 6239WAT      O18958   6.509   1.095   7.323
 6239WAT     H118959   6.434   1.155   7.352
 6239WAT     H218960   6.570   1.145   7.262
 6240WAT      O18961   7.282   0.997   2.455
 6240WAT     H118962   7.341   1.078   2.463
 6240WAT     H218963   7.255   0.985   2.360
 6241WAT      O18964   1.454   8.783   3.298
 6241WAT     H118965   1.375   8.786   3.360
 6241WAT     H218966   1.430   8.732   3.216
 6242WAT      O18967   0.023   2.610   7.912
 6242WAT     H118968  -0.024   2.698   7.913
 6242WAT     H218969  -0.035   2.542   7.868
 6243WAT      O18970   6.206   5.700   2.153
 6243WAT     H118971   6.297   5.738   2.170
 6243WAT     H218972   6.198   5.674   2.057
 6244WAT      O18973   3.199   1.236   2.751
 6244WAT     H118974   3.176   1.171   2.679
 6244WAT     H218975   3.136   1.225   2.828
 6245WAT      O18976   4.554   6.970   4.994
 6245WAT     H118977   4.475   6.989   5.052
 6245WAT     H218978   4.631   6.940   5.050
 6246WAT      O18979   4.301   2.513   6.198
 6246WAT     H118980   4.260   2.471   6.279
 6246WAT     H218981   4.229   2.532   6.130
 6247WAT      O18982   5.154   2.383   9.391
 6247WAT     H118983   5.164   2.354   9.486
 6247WAT     H218984   5.115   2.475   9.388
 6248WAT      O18985   6.619   4.596   9.202
 6248WAT     H118986   6.598   4.638   9.114
 6248WAT     H218987   6.540   4.544   9.233
 6249WAT      O18988   5.919   1.303   4.130
 6249WAT     H118989   5.882   1.243   4.201
 6249WAT     H218990   5.856   1.306   4.053
 6250WAT      O18991   5.724   5.344   9.785
 6250WAT     H118992   5.721   5.379   9.692
 6250WAT     H218993   5.810   5.295   9.800
 6251WAT      O18994   6.147   1.908   5.285
 6251WAT     H118995   6.244   1.922   5.303
 6251WAT     H218996   6.131   1.811   5.264
 6252WAT      O18997   4.131   3.107   3.134
 6252WAT     H118998   4.196   3.135   3.063
 6252WAT     H218999   4.119   3.008   3.131
 6253WAT      O19000   8.687   0.161   9.341
 6253WAT     H119001   8.679   0.190   9.246
 6253WAT     H219002   8.767   0.205   9.383
 6254WAT      O19003   9.671   6.632   2.971
 6254WAT     H119004   9.606   6.606   2.900
 6254WAT     H219005   9.742   6.691   2.932
 6255WAT      O19006   6.077   5.770   7.534
 6255WAT     H119007   5.987   5.786   7.573
 6255WAT     H219008   6.140   5.843   7.562
 6256WAT      O19009   7.334   0.826   1.503
 6256WAT     H119010   7.340   0.755   1.572
 6256WAT     H219011   7.299   0.910   1.544
 6257WAT      O19012   6.744   2.476   3.311
 6257WAT     H119013   6.685   2.557   3.304
 6257WAT     H219014   6.789   2.460   3.223
 6258WAT      O19015   0.116   8.435   8.069
 6258WAT     H119016   0.117   8.343   8.109
 6258WAT     H219017   0.041   8.442   8.004
 6259WAT      O19018   4.950   7.797   5.598
 6259WAT     H119019   4.958   7.891   5.565
 6259WAT     H219020   5.040   7.764   5.628
 6260WAT      O19021   2.262   0.878   5.609
 6260WAT     H119022   2.191   0.851   5.545
 6260WAT     H219023   2.295   0.970   5.587
 6261WAT      O19024   8.903   2.740   9.209
 6261WAT     H119025   8.818   2.687   9.205
 6261WAT     H219026   8.897   2.816   9.145
 6262WAT      O19027   6.079   8.512   0.530
 6262WAT     H119028   6.071   8.430   0.586
 6262WAT     H219029   6.176   8.534   0.517
 6263WAT      O19030   7.358   3.067   8.913
 6263WAT     H119031   7.278   3.021   8.953
 6263WAT     H219032   7.351   3.065   8.813
 6264WAT      O19033   2.381   0.247   6.674
 6264WAT     H119034   2.325   0.171   6.642
 6264WAT     H219035   2.477   0.230   6.650
 6265WAT      O19036   7.750   8.562   1.912
 6265WAT     H119037   7.750   8.467   1.882
 6265WAT     H219038   7.824   8.576   1.978
 6266WAT      O19039   3.706   6.368   7.533
 6266WAT     H119040   3.792   6.390   7.486
 6266WAT     H219041   3.630   6.406   7.482
 6267WAT      O19042   0.510   5.107   8.017
 6267WAT     H119043   0.439   5.063   7.960
 6267WAT     H219044   0.554   5.037   8.074
 6268WAT      O19045   3.719   4.644   8.059
 6268WAT     H119046   3.717   4.722   7.997
 6268WAT     H219047   3.629   4.600   8.061
 6269WAT      O19048   0.274   4.216   4.358
 6269WAT     H119049   0.233   4.303   4.384
 6269WAT     H219050   0.279   4.157   4.438
 6270WAT      O19051   7.527   6.961   2.063
 6270WAT     H119052   7.439   6.914   2.064
 6270WAT     H219053   7.585   6.922   1.991
 6271WAT      O19054   6.972   6.935   2.783
 6271WAT     H119055   6.957   6.850   2.731
 6271WAT     H219056   7.058   6.976   2.754
 6272WAT      O19057   9.570   2.023   0.017
 6272WAT     H119058   9.566   1.981  -0.074
 6272WAT     H219059   9.665   2.023   0.049
 6273WAT      O19060   6.020   2.117   1.479
 6273WAT     H119061   5.928   2.078   1.488
 6273WAT     H219062   6.027   2.199   1.536
 6274WAT      O19063   0.139   2.054   1.783
 6274WAT     H119064   0.123   2.018   1.875
 6274WAT     H219065   0.226   2.018   1.748
 6275WAT      O19066   6.892   1.234   2.419
 6275WAT     H119067   6.820   1.171   2.448
 6275WAT     H219068   6.975   1.216   2.473
 6276WAT      O19069   7.851   4.023   9.231
 6276WAT     H119070   7.905   3.964   9.291
 6276WAT     H219071   7.881   4.011   9.136
 6277WAT      O19072   1.860   7.361   6.124
 6277WAT     H119073   1.906   7.401   6.044
 6277WAT     H219074   1.763   7.387   6.123
 6278WAT      O19075   8.091   9.260   5.882
 6278WAT     H119076   8.142   9.339   5.846
 6278WAT     H219077   8.073   9.274   5.979
 6279WAT      O19078   5.393   4.959   5.410
 6279WAT     H119079   5.492   4.944   5.404
 6279WAT     H219080   5.359   4.993   5.323
 6280WAT      O19081   8.806   6.131   5.935
 6280WAT     H119082   8.715   6.118   5.972
 6280WAT     H219083   8.867   6.165   6.006
 6281WAT      O19084   0.460   8.357   3.089
 6281WAT     H119085   0.388   8.400   3.144
 6281WAT     H219086   0.540   8.338   3.147
 6282WAT      O19087   6.104   9.402   8.723
 6282WAT     H119088   6.172   9.333   8.746
 6282WAT     H219089   6.116   9.482   8.782
 6283WAT      O19090   4.787   9.004   0.923
 6283WAT     H119091   4.762   9.041   1.012
 6283WAT     H219092   4.811   8.907   0.933
 6284WAT      O19093   6.352   7.281   4.853
 6284WAT     H119094   6.307   7.337   4.784
 6284WAT     H219095   6.342   7.325   4.943
 6285WAT      O19096   1.277   4.084   9.374
 6285WAT     H119097   1.320   3.994   9.373
 6285WAT     H219098   1.342   4.152   9.339
 6286WAT      O19099   0.503   2.526   2.453
 6286WAT     H119100   0.531   2.582   2.375
 6286WAT     H219101   0.412   2.555   2.483
 6287WAT      O19102   7.936   1.012   6.838
 6287WAT     H119103   7.911   0.934   6.782
 6287WAT     H219104   7.855   1.067   6.857
 6288WAT      O19105   0.287   1.359   5.595
 6288WAT     H119106   0.363   1.423   5.603
 6288WAT     H219107   0.201   1.404   5.620
 6289WAT      O19108   4.743   7.458   7.914
 6289WAT     H119109   4.775   7.445   8.007
 6289WAT     H219110   4.681   7.537   7.910
 6290WAT      O19111   5.957   3.001   1.467
 6290WAT     H119112   5.987   3.096   1.469
 6290WAT     H219113   5.946   2.967   1.560
 6291WAT      O19114   8.362   7.398   9.613
 6291WAT     H119115   8.436   7.447   9.660
 6291WAT     H219116   8.384   7.300   9.610
 6292WAT      O19117   5.239   3.328   1.046
 6292WAT     H119118   5.281   3.418   1.038
 6292WAT     H219119   5.242   3.298   1.141
 6293WAT      O19120   9.658   5.354   5.897
 6293WAT     H119121   9.585   5.421   5.908
 6293WAT     H219122   9.645   5.304   5.811
 6294WAT      O19123   6.331   8.553   8.604
 6294WAT     H119124   6.358   8.465   8.565
 6294WAT     H219125   6.231   8.560   8.604
 6295WAT      O19126   7.414   3.760   5.103
 6295WAT     H119127   7.400   3.750   5.202
 6295WAT     H219128   7.512   3.755   5.083
 6296WAT      O19129   3.746   0.888   1.904
 6296WAT     H119130   3.845   0.895   1.895
 6296WAT     H219131   3.721   0.882   2.000
 6297WAT      O19132   7.061   6.816   1.925
 6297WAT     H119133   7.005   6.898   1.914
 6297WAT     H219134   7.064   6.765   1.840
 6298WAT      O19135   5.796   7.837   7.241
 6298WAT     H119136   5.727   7.765   7.246
 6298WAT     H219137   5.871   7.815   7.305
 6299WAT      O19138   0.739   6.078   8.824
 6299WAT     H119139   0.712   6.106   8.916
 6299WAT     H219140   0.670   6.108   8.758
 6300WAT      O19141   0.615   5.024   2.792
 6300WAT     H119142   0.670   5.083   2.852
 6300WAT     H219143   0.607   4.933   2.833
 6301WAT      O19144   1.187   7.248   2.877
 6301WAT     H119145   1.234   7.337   2.877
 6301WAT     H219146   1.092   7.261   2.847
 6302WAT      O19147   1.324   3.788   1.360
 6302WAT     H119148   1.225   3.792   1.350
 6302WAT     H219149   1.364   3.734   1.286
 6303WAT      O19150   5.789   6.392   3.788
 6303WAT     H119151   5.704   6.343   3.808
 6303WAT     H219152   5.858   6.328   3.756
 6304WAT      O19153   4.772   4.323   9.775
 6304WAT     H119154   4.724   4.357   9.694
 6304WAT     H219155   4.722   4.245   9.812
 6305WAT      O19156   0.084   2.943   7.678
 6305WAT     H119157  -0.000   2.912   7.723
 6305WAT     H219158   0.144   2.865   7.663
 6306WAT      O19159   7.174   2.135   8.682
 6306WAT     H119160   7.131   2.225   8.679
 6306WAT     H219161   7.259   2.140   8.735
 6307WAT      O19162   7.436   6.410   3.355
 6307WAT     H119163   7.378   6.372   3.427
 6307WAT     H219164   7.425   6.509   3.352
 6308WAT      O19165   8.976   1.553   9.150
 6308WAT     H119166   8.978   1.505   9.062
 6308WAT     H219167   9.045   1.625   9.150
 6309WAT      O19168   0.285   3.583   4.575
 6309WAT     H119169   0.237   3.571   4.489
 6309WAT     H219170   0.317   3.494   4.609
 6310WAT      O19171   4.960   0.662   1.055
 6310WAT     H119172   4.890   0.718   1.011
 6310WAT     H219173   4.998   0.712   1.133
 6311WAT      O19174   1.167   5.164   8.005
 6311WAT     H119175   1.212   5.123   8.085
 6311WAT     H219176   1.152   5.094   7.936
 6312WAT      O19177   2.476   2.390   2.921
 6312WAT     H119178   2.390   2.406   2.873
 6312WAT     H219179   2.457   2.351   3.011
 6313WAT      O19180   9.837   4.054   5.811
 6313WAT     H119181   9.930   4.060   5.849
 6313WAT     H219182   9.783   3.990   5.866
 6314WAT      O19183   4.293   8.602   8.808
 6314WAT     H119184   4.355   8.613   8.730
 6314WAT     H219185   4.345   8.579   8.890
 6315WAT      O19186   8.993   0.114   6.256
 6315WAT     H119187   9.054   0.039   6.233
 6315WAT     H219188   8.902   0.097   6.216
 6316WAT      O19189   5.456   5.048   2.329
 6316WAT     H119190   5.390   5.051   2.404
 6316WAT     H219191   5.459   5.137   2.283
 6317WAT      O19192   8.424   3.822   3.239
 6317WAT     H119193   8.348   3.830   3.175
 6317WAT     H219194   8.429   3.728   3.272
 6318WAT      O19195   0.516   6.700   1.076
 6318WAT     H119196   0.613   6.717   1.057
 6318WAT     H219197   0.504   6.603   1.100
 6319WAT      O19198   3.106   6.525   3.342
 6319WAT     H119199   3.028   6.589   3.343
 6319WAT     H219200   3.125   6.497   3.247
 6320WAT      O19201   9.299   0.125   8.373
 6320WAT     H119202   9.391   0.156   8.399
 6320WAT     H219203   9.302   0.027   8.353
 6321WAT      O19204   3.838   5.080   3.907
 6321WAT     H119205   3.775   5.150   3.943
 6321WAT     H219206   3.825   4.994   3.956
 6322WAT      O19207   3.384   1.429   3.537
 6322WAT     H119208   3.347   1.370   3.465
 6322WAT     H219209   3.450   1.493   3.498
 6323WAT      O19210   7.492   7.123   4.925
 6323WAT     H119211   7.405   7.100   4.968
 6323WAT     H219212   7.548   7.175   4.991
 6324WAT      O19213   2.447   7.729   3.896
 6324WAT     H119214   2.526   7.785   3.873
 6324WAT     H219215   2.436   7.725   3.996
 6325WAT      O19216   1.171   8.438   0.869
 6325WAT     H119217   1.108   8.363   0.847
 6325WAT     H219218   1.197   8.434   0.965
 6326WAT      O19219   7.347   2.565   3.485
 6326WAT     H119220   7.406   2.640   3.455
 6326WAT     H219221   7.388   2.478   3.458
 6327WAT      O19222   6.670   5.264   6.151
 6327WAT     H119223   6.704   5.172   6.131
 6327WAT     H219224   6.725   5.306   6.223
 6328WAT      O19225   7.599   4.662   0.039
 6328WAT     H119226   7.641   4.752   0.026
 6328WAT     H219227   7.666   4.591   0.018
 6329WAT      O19228   0.671   9.274   7.112
 6329WAT     H119229   0.628   9.230   7.033
 6329WAT     H219230   0.697   9.367   7.089
 6330WAT      O19231   9.082   0.352   8.915
 6330WAT     H119232   9.085   0.253   8.901
 6330WAT     H219233   9.158   0.395   8.866
 6331WAT      O19234   3.632   5.556   4.057
 6331WAT     H119235   3.615   5.614   4.138
 6331WAT     H219236   3.706   5.596   4.003
 6332WAT      O19237   2.964   3.807   6.424
 6332WAT     H119238   3.018   3.723   6.435
 6332WAT     H219239   2.919   3.828   6.511
 6333WAT      O19240   8.897   4.646   7.843
 6333WAT     H119241   8.887   4.695   7.757
 6333WAT     H219242   8.897   4.711   7.919
 6334WAT      O19243   7.395   7.305   5.488
 6334WAT     H119244   7.346   7.378   5.536
 6334WAT     H219245   7.356   7.294   5.396
 6335WAT      O19246   9.328   8.376   6.937
 6335WAT     H119247   9.329   8.440   7.014
 6335WAT     H219248   9.321   8.282   6.971
 6336WAT      O19249   8.427   6.727   3.779
 6336WAT     H119250   8.422   6.756   3.874
 6336WAT     H219251   8.356   6.658   3.761
 6337WAT      O19252   8.818   2.078   3.181
 6337WAT     H119253   8.751   2.015   3.141
 6337WAT     H219254   8.832   2.054   3.277
 6338WAT      O19255   4.182   0.954   3.248
 6338WAT     H119256   4.268   1.004   3.241
 6338WAT     H219257   4.161   0.936   3.344
 6339WAT      O19258   0.089   1.108   1.412
 6339WAT     H119259   0.093   1.167   1.492
 6339WAT     H219260   0.142   1.025   1.427
 6340WAT      O19261   2.555   2.200   5.866
 6340WAT     H119262   2.472   2.214   5.920
 6340WAT     H219263   2.594   2.110   5.888
 6341WAT      O19264   2.587   0.236   2.646
 6341WAT     H119265   2.566   0.152   2.595
 6341WAT     H219266   2.504   0.271   2.688
 6342WAT      O19267   1.242   6.292   4.165
 6342WAT     H119268   1.247   6.390   4.146
 6342WAT     H219269   1.334   6.255   4.178
 6343WAT      O19270   7.477   4.485   4.429
 6343WAT     H119271   7.383   4.456   4.447
 6343WAT     H219272   7.477   4.551   4.355
 6344WAT      O19273   4.360   3.231   6.520
 6344WAT     H119274   4.264   3.256   6.531
 6344WAT     H219275   4.416   3.286   6.582
 6345WAT      O19276   2.961   3.561   1.658
 6345WAT     H119277   2.893   3.529   1.724
 6345WAT     H219278   3.051   3.524   1.682
 6346WAT      O19279   0.443   7.971   2.246
 6346WAT     H119280   0.476   7.884   2.284
 6346WAT     H219281   0.348   7.986   2.275
 6347WAT      O19282   1.900   8.378   5.322
 6347WAT     H119283   1.809   8.353   5.290
 6347WAT     H219284   1.968   8.320   5.276
 6348WAT      O19285   1.335   2.818   2.549
 6348WAT     H119286   1.423   2.837   2.592
 6348WAT     H219287   1.280   2.759   2.608
 6349WAT      O19288   5.918   0.298   4.218
 6349WAT     H119289   6.018   0.294   4.212
 6349WAT     H219290   5.884   0.221   4.271
 6350WAT      O19291   2.404   4.564   7.367
 6350WAT     H119292   2.472   4.597   7.302
 6350WAT     H219293   2.312   4.578   7.330
 6351WAT      O19294   8.567   0.506   5.621
 6351WAT     H119295   8.467   0.495   5.615
 6351WAT     H219296   8.589   0.603   5.625
 6352WAT      O19297   8.328   4.692   0.548
 6352WAT     H119298   8.332   4.695   0.648
 6352WAT     H219299   8.323   4.786   0.512
 6353WAT      O19300   7.187   3.703   6.761
 6353WAT     H119301   7.222   3.666   6.675
 6353WAT     H219302   7.245   3.673   6.837
 6354WAT      O19303   5.920   8.824   3.127
 6354WAT     H119304   6.016   8.819   3.101
 6354WAT     H219305   5.911   8.883   3.208
 6355WAT      O19306   7.080   7.858   7.013
 6355WAT     H119307   7.126   7.782   6.967
 6355WAT     H219308   7.011   7.898   6.952
 6356WAT      O19309   1.615   3.888   0.550
 6356WAT     H119310   1.621   3.821   0.623
 6356WAT     H219311   1.650   3.976   0.582
 6357WAT      O19312   6.478   8.464   0.131
 6357WAT     H119313   6.426   8.547   0.109
 6357WAT     H219314   6.516   8.425   0.047
 6358WAT      O19315   7.056   2.010   4.195
 6358WAT     H119316   7.023   2.067   4.120
 6358WAT     H219317   7.116   2.064   4.254
 6359WAT      O19318   6.882   6.785   8.664
 6359WAT     H119319   6.886   6.802   8.566
 6359WAT     H219320   6.822   6.852   8.707
 6360WAT      O19321   4.627   4.514   4.656
 6360WAT     H119322   4.678   4.429   4.665
 6360WAT     H219323   4.646   4.556   4.567
 6361WAT      O19324   2.766   4.337   4.556
 6361WAT     H119325   2.762   4.277   4.636
 6361WAT     H219326   2.859   4.370   4.544
 6362WAT      O19327   5.137   4.351   7.941
 6362WAT     H119328   5.056   4.322   7.889
 6362WAT     H219329   5.151   4.449   7.929
 6363WAT      O19330   8.120   4.339   7.183
 6363WAT     H119331   8.204   4.394   7.184
 6363WAT     H219332   8.104   4.302   7.275
 6364WAT      O19333   1.290   3.708   2.946
 6364WAT     H119334   1.296   3.750   2.855
 6364WAT     H219335   1.296   3.609   2.936
 6365WAT      O19336   4.073   5.332   4.623
 6365WAT     H119337   4.164   5.341   4.664
 6365WAT     H219338   4.008   5.300   4.692
 6366WAT      O19339   8.401   5.284   1.120
 6366WAT     H119340   8.467   5.282   1.196
 6366WAT     H219341   8.421   5.208   1.058
 6367WAT      O19342   8.734   9.275   7.409
 6367WAT     H119343   8.700   9.181   7.416
 6367WAT     H219344   8.776   9.288   7.319
 6368WAT      O19345   9.668   0.901   9.428
 6368WAT     H119346   9.659   0.904   9.328
 6368WAT     H219347   9.617   0.978   9.467
 6369WAT      O19348   7.095   2.598   3.381
 6369WAT     H119349   7.088   2.581   3.283
 6369WAT     H219350   7.185   2.568   3.414
 6370WAT      O19351   8.886   3.735   0.986
 6370WAT     H119352   8.945   3.732   1.066
 6370WAT     H219353   8.818   3.662   0.991
 6371WAT      O19354   2.037   8.229   0.360
 6371WAT     H119355   2.108   8.244   0.292
 6371WAT     H219356   1.957   8.187   0.317
 6372WAT      O19357   0.864   5.353   3.596
 6372WAT     H119358   0.875   5.280   3.663
 6372WAT     H219359   0.878   5.317   3.504
 6373WAT      O19360   4.452   4.479   9.356
 6373WAT     H119361   4.353   4.463   9.363
 6373WAT     H219362   4.492   4.413   9.293
 6374WAT      O19363   4.355   2.839   4.837
 6374WAT     H119364   4.341   2.809   4.931
 6374WAT     H219365   4.268   2.834   4.788
 6375WAT      O19366   9.650   2.962   8.555
 6375WAT     H119367   9.553   2.963   8.530
 6375WAT     H219368   9.696   3.040   8.513
 6376WAT      O19369   9.551   0.545   8.754
 6376WAT     H119370   9.633   0.601   8.743
 6376WAT     H219371   9.472   0.604   8.772
 6377WAT      O19372   4.671   5.682   1.549
 6377WAT     H119373   4.594   5.620   1.533
 6377WAT     H219374   4.697   5.680   1.645
 6378WAT      O19375   7.023   2.218   3.430
 6378WAT     H119376   6.983   2.305   3.459
 6378WAT     H219377   7.066   2.174   3.509
 6379WAT      O19378   4.232   3.596   4.275
 6379WAT     H119379   4.180   3.680   4.283
 6379WAT     H219380   4.218   3.556   4.184
 6380WAT      O19381   3.618   4.199   2.209
 6380WAT     H119382   3.602   4.248   2.124
 6380WAT     H219383   3.533   4.194   2.262
 6381WAT      O19384   7.940   4.721   4.389
 6381WAT     H119385   7.937   4.624   4.412
 6381WAT     H219386   7.847   4.755   4.375
 6382WAT      O19387   1.468   0.966   2.126
 6382WAT     H119388   1.399   0.926   2.187
 6382WAT     H219389   1.422   1.007   2.047
 6383WAT      O19390   4.546   6.549   7.424
 6383WAT     H119391   4.482   6.626   7.421
 6383WAT     H219392   4.502   6.468   7.384
 6384WAT      O19393   7.131   3.937   1.919
 6384WAT     H119394   7.069   3.866   1.887
 6384WAT     H219395   7.214   3.937   1.862
 6385WAT      O19396   6.885   1.048   7.682
 6385WAT     H119397   6.937   1.102   7.747
 6385WAT     H219398   6.840   1.109   7.617
 6386WAT      O19399   5.029   3.186   6.378
 6386WAT     H119400   4.954   3.151   6.434
 6386WAT     H219401   5.038   3.285   6.390
 6387WAT      O19402   2.939   8.167   9.584
 6387WAT     H119403   2.940   8.069   9.567
 6387WAT     H219404   2.936   8.185   9.682
 6388WAT      O19405   0.370   1.969   6.843
 6388WAT     H119406   0.436   2.044   6.844
 6388WAT     H219407   0.399   1.898   6.907
 6389WAT      O19408   6.630   5.328   3.188
 6389WAT     H119409   6.702   5.393   3.162
 6389WAT     H219410   6.541   5.375   3.188
 6390WAT      O19411   9.601   7.703   8.979
 6390WAT     H119412   9.558   7.676   9.065
 6390WAT     H219413   9.658   7.627   8.946
 6391WAT      O19414   1.257   4.500   1.049
 6391WAT     H119415   1.302   4.544   1.127
 6391WAT     H219416   1.308   4.418   1.024
 6392WAT      O19417   2.049   5.574   8.518
 6392WAT     H119418   2.135   5.540   8.556
 6392WAT     H219419   1.980   5.577   8.590
 6393WAT      O19420   3.905   5.207   7.412
 6393WAT     H119421   3.873   5.274   7.345
 6393WAT     H219422   3.961   5.138   7.366
 6394WAT      O19423   4.547   6.915   0.914
 6394WAT     H119424   4.539   7.003   0.867
 6394WAT     H219425   4.516   6.925   1.008
 6395WAT      O19426   1.660   4.935   7.779
 6395WAT     H119427   1.563   4.911   7.785
 6395WAT     H219428   1.671   5.032   7.801
 6396WAT      O19429   1.611   2.613   0.732
 6396WAT     H119430   1.581   2.709   0.729
 6396WAT     H219431   1.645   2.591   0.823
 6397WAT      O19432   0.026   4.518   8.264
 6397WAT     H119433   0.126   4.510   8.264
 6397WAT     H219434   0.001   4.614   8.252
 6398WAT      O19435   4.451   0.187   6.976
 6398WAT     H119436   4.420   0.228   7.062
 6398WAT     H219437   4.412   0.239   6.900
 6399WAT      O19438   5.691   3.606   6.016
 6399WAT     H119439   5.770   3.626   5.957
 6399WAT     H219440   5.719   3.543   6.088
 6400WAT      O19441   0.416   5.199   6.825
 6400WAT     H119442   0.449   5.284   6.784
 6400WAT     H219443   0.410   5.128   6.755
 6401WAT      O19444   5.743   3.138   9.498
 6401WAT     H119445   5.712   3.172   9.409
 6401WAT     H219446   5.842   3.126   9.497
 6402WAT      O19447   9.157   0.412   9.448
 6402WAT     H119448   9.241   0.357   9.455
 6402WAT     H219449   9.181   0.508   9.435
 6403WAT      O19450   4.486   9.358   6.147
 6403WAT     H119451   4.416   9.376   6.216
 6403WAT     H219452   4.536   9.275   6.169
 6404WAT      O19453   5.813   2.940   1.221
 6404WAT     H119454   5.817   3.029   1.174
 6404WAT     H219455   5.843   2.951   1.316
 6405WAT      O19456   0.583   0.865   7.066
 6405WAT     H119457   0.491   0.838   7.039
 6405WAT     H219458   0.650   0.810   7.015
 6406WAT      O19459   0.476   8.602   3.817
 6406WAT     H119460   0.408   8.653   3.870
 6406WAT     H219461   0.501   8.655   3.737
 6407WAT      O19462   5.181   5.132   3.247
 6407WAT     H119463   5.176   5.032   3.242
 6407WAT     H219464   5.266   5.164   3.205
 6408WAT      O19465   2.993   7.455   2.894
 6408WAT     H119466   2.960   7.396   2.968
 6408WAT     H219467   2.916   7.478   2.834
 6409WAT      O19468   3.814   1.265   0.317
 6409WAT     H119469   3.910   1.282   0.337
 6409WAT     H219470   3.804   1.242   0.220
 6410WAT      O19471   9.102   8.868   9.664
 6410WAT     H119472   9.111   8.779   9.709
 6410WAT     H219473   9.188   8.918   9.671
 6411WAT      O19474   1.406   8.892   5.600
 6411WAT     H119475   1.395   8.981   5.645
 6411WAT     H219476   1.316   8.851   5.583
 6412WAT      O19477   3.131   8.285   1.344
 6412WAT     H119478   3.059   8.228   1.303
 6412WAT     H219479   3.159   8.355   1.279
 6413WAT      O19480   7.036   3.789   5.785
 6413WAT     H119481   6.950   3.823   5.821
 6413WAT     H219482   7.101   3.777   5.860
 6414WAT      O19483   9.426   7.418   0.109
 6414WAT     H119484   9.421   7.451   0.203
 6414WAT     H219485   9.375   7.480   0.049
 6415WAT      O19486   8.279   5.864   6.553
 6415WAT     H119487   8.247   5.844   6.460
 6415WAT     H219488   8.297   5.962   6.562
 6416WAT      O19489   7.861   5.364   1.384
 6416WAT     H119490   7.781   5.312   1.352
 6416WAT     H219491   7.923   5.303   1.432
 6417WAT      O19492   2.949   1.179   8.522
 6417WAT     H119493   2.865   1.187   8.576
 6417WAT     H219494   2.934   1.116   8.446
 6418WAT      O19495   0.849   0.601   4.041
 6418WAT     H119496   0.888   0.558   3.960
 6418WAT     H219497   0.787   0.537   4.087
 6419WAT      O19498   4.352   1.857   3.249
 6419WAT     H119499   4.433   1.841   3.306
 6419WAT     H219500   4.277   1.801   3.283
 6420WAT      O19501   4.222   0.119   9.557
 6420WAT     H119502   4.140   0.163   9.518
 6420WAT     H219503   4.300   0.139   9.498
 6421WAT      O19504   3.001   3.771   8.850
 6421WAT     H119505   3.031   3.815   8.935
 6421WAT     H219506   2.906   3.742   8.859
 6422WAT      O19507   4.740   4.305   5.097
 6422WAT     H119508   4.770   4.226   5.043
 6422WAT     H219509   4.810   4.327   5.165
 6423WAT      O19510   7.569   0.672   1.731
 6423WAT     H119511   7.512   0.638   1.806
 6423WAT     H219512   7.621   0.597   1.692
 6424WAT      O19513   8.208   8.167   7.629
 6424WAT     H119514   8.303   8.197   7.634
 6424WAT     H219515   8.188   8.135   7.536
 6425WAT      O19516   1.720   3.014   3.245
 6425WAT     H119517   1.664   3.084   3.201
 6425WAT     H219518   1.670   2.977   3.324
 6426WAT      O19519   2.034   3.046   7.974
 6426WAT     H119520   2.085   3.103   7.910
 6426WAT     H219521   1.941   3.034   7.941
 6427WAT      O19522   9.623   7.776   3.928
 6427WAT     H119523   9.674   7.816   3.852
 6427WAT     H219524   9.663   7.805   4.015
 6428WAT      O19525   6.762   7.977   6.476
 6428WAT     H119526   6.744   7.878   6.481
 6428WAT     H219527   6.819   7.997   6.397
 6429WAT      O19528   8.279   6.350   4.493
 6429WAT     H119529   8.225   6.370   4.575
 6429WAT     H219530   8.374   6.379   4.508
 6430WAT      O19531   3.757   6.848   8.378
 6430WAT     H119532   3.838   6.802   8.341
 6430WAT     H219533   3.675   6.797   8.352
 6431WAT      O19534   7.613   9.578   9.734
 6431WAT     H119535   7.661   9.490   9.734
 6431WAT     H219536   7.542   9.578   9.805
 6432WAT      O19537   1.125   6.736   2.487
 6432WAT     H119538   1.138   6.783   2.400
 6432WAT     H219539   1.067   6.655   2.472
 6433WAT      O19540   0.396   7.772   9.823
 6433WAT     H119541   0.481   7.812   9.789
 6433WAT     H219542   0.413   7.726   9.910
 6434WAT      O19543   5.418   2.890   3.768
 6434WAT     H119544   5.444   2.953   3.841
 6434WAT     H219545   5.434   2.933   3.679
 6435WAT      O19546   5.373   1.852   0.709
 6435WAT     H119547   5.351   1.948   0.727
 6435WAT     H219548   5.306   1.793   0.752
 6436WAT      O19549   5.523   9.754   6.774
 6436WAT     H119550   5.591   9.812   6.818
 6436WAT     H219551   5.495   9.795   6.687
 6437WAT      O19552   3.987   7.706   1.408
 6437WAT     H119553   3.939   7.624   1.437
 6437WAT     H219554   3.924   7.783   1.407
 6438WAT      O19555   6.030   1.459   7.389
 6438WAT     H119556   5.992   1.369   7.368
 6438WAT     H219557   6.119   1.447   7.435
 6439WAT      O19558   4.283   3.287   1.986
 6439WAT     H119559   4.287   3.198   2.032
 6439WAT     H219560   4.189   3.303   1.956
 6440WAT      O19561   7.931   5.861   0.311
 6440WAT     H119562   8.031   5.869   0.319
 6440WAT     H219563   7.909   5.771   0.272
 6441WAT      O19564   0.624   9.621   3.874
 6441WAT     H119565   0.659   9.692   3.935
 6441WAT     H219566   0.535   9.650   3.837
 6442WAT      O19567   7.970   8.958   2.615
 6442WAT     H119568   8.016   8.974   2.528
 6442WAT     H219569   7.874   8.934   2.598
 6443WAT      O19570   7.692   8.594   5.684
 6443WAT     H119571   7.727   8.602   5.591
 6443WAT     H219572   7.622   8.664   5.700
 6444WAT      O19573   7.197   5.701   1.540
 6444WAT     H119574   7.124   5.643   1.577
 6444WAT     H219575   7.279   5.646   1.524
 6445WAT      O19576   3.520   6.181   8.219
 6445WAT     H119577   3.421   6.165   8.214
 6445WAT     H219578   3.563   6.158   8.132
 6446WAT      O19579   2.487   0.629   6.081
 6446WAT     H119580   2.583   0.605   6.094
 6446WAT     H219581   2.465   0.708   6.138
 6447WAT      O19582   8.548   8.723   5.395
 6447WAT     H119583   8.636   8.676   5.392
 6447WAT     H219584   8.475   8.657   5.415
 6448WAT      O19585   0.147   1.416   7.019
 6448WAT     H119586   0.185   1.506   7.042
 6448WAT     H219587   0.153   1.356   7.100
 6449WAT      O19588   4.825   0.436   0.846
 6449WAT     H119589   4.880   0.464   0.925
 6449WAT     H219590   4.734   0.479   0.852
 6450WAT      O19591   8.149   1.947   0.527
 6450WAT     H119592   8.174   1.859   0.486
 6450WAT     H219593   8.149   2.017   0.456
 6451WAT      O19594   9.662   5.525   1.488
 6451WAT     H119595   9.621   5.450   1.437
 6451WAT     H219596   9.628   5.612   1.453
 6452WAT      O19597   8.736   7.212   4.170
 6452WAT     H119598   8.708   7.121   4.200
 6452WAT     H219599   8.835   7.222   4.180
 6453WAT      O19600   5.236   3.377   7.062
 6453WAT     H119601   5.232   3.300   6.999
 6453WAT     H219602   5.271   3.346   7.150
 6454WAT      O19603   4.929   6.575   6.287
 6454WAT     H119604   4.904   6.608   6.196
 6454WAT     H219605   5.005   6.629   6.321
 6455WAT      O19606   0.074   5.622   9.808
 6455WAT     H119607  -0.011   5.654   9.767
 6455WAT     H219608   0.078   5.522   9.804
 6456WAT      O19609   2.037   8.752   5.715
 6456WAT     H119610   1.986   8.776   5.798
 6456WAT     H219611   2.112   8.691   5.739
 6457WAT      O19612   0.126   7.371   8.420
 6457WAT     H119613   0.207   7.363   8.477
 6457WAT     H219614   0.083   7.460   8.434
 6458WAT      O19615   3.446   6.103   9.474
 6458WAT     H119616   3.349   6.095   9.452
 6458WAT     H219617   3.496   6.134   9.393
 6459WAT      O19618   8.729   8.553   2.371
 6459WAT     H119619   8.652   8.567   2.434
 6459WAT     H219620   8.712   8.601   2.285
 6460WAT      O19621   4.803   3.853   1.977
 6460WAT     H119622   4.777   3.763   1.943
 6460WAT     H219623   4.770   3.924   1.915
 6461WAT      O19624   4.493   5.777   6.980
 6461WAT     H119625   4.484   5.864   6.932
 6461WAT     H219626   4.457   5.704   6.921
 6462WAT      O19627   8.054   8.427   1.359
 6462WAT     H119628   7.983   8.363   1.387
 6462WAT     H219629   8.126   8.377   1.310
 6463WAT      O19630   1.974   8.851   8.707
 6463WAT     H119631   1.921   8.777   8.748
 6463WAT     H219632   1.924   8.889   8.629
 6464WAT      O19633   5.147   0.594   7.008
 6464WAT     H119634   5.058   0.588   7.053
 6464WAT     H219635   5.137   0.636   6.918
 6465WAT      O19636   5.335   0.439   8.366
 6465WAT     H119637   5.372   0.349   8.346
 6465WAT     H219638   5.337   0.454   8.465
 6466WAT      O19639   8.803   6.342   4.066
 6466WAT     H119640   8.857   6.262   4.040
 6466WAT     H219641   8.788   6.342   4.165
 6467WAT      O19642   2.524   3.121   6.376
 6467WAT     H119643   2.584   3.042   6.365
 6467WAT     H219644   2.468   3.110   6.458
 6468WAT      O19645   8.298   7.716   4.709
 6468WAT     H119646   8.358   7.637   4.716
 6468WAT     H219647   8.207   7.692   4.743
 6469WAT      O19648   0.944   1.015   8.027
 6469WAT     H119649   0.871   1.079   8.004
 6469WAT     H219650   0.913   0.952   8.098
 6470WAT      O19651   2.838   6.090   5.958
 6470WAT     H119652   2.744   6.084   5.924
 6470WAT     H219653   2.889   6.010   5.930
 6471WAT      O19654   7.870   2.864   4.840
 6471WAT     H119655   7.827   2.955   4.839
 6471WAT     H219656   7.864   2.824   4.749
 6472WAT      O19657   7.437   2.399   0.091
 6472WAT     H119658   7.344   2.436   0.099
 6472WAT     H219659   7.446   2.349   0.005
 6473WAT      O19660   6.085   3.546   0.617
 6473WAT     H119661   6.117   3.483   0.546
 6473WAT     H219662   6.101   3.640   0.587
 6474WAT      O19663   4.189   2.267   8.263
 6474WAT     H119664   4.252   2.197   8.229
 6474WAT     H219665   4.224   2.305   8.348
 6475WAT      O19666   5.136   9.706   3.102
 6475WAT     H119667   5.120   9.635   3.170
 6475WAT     H219668   5.213   9.679   3.043
 6476WAT      O19669   4.977   6.664   8.206
 6476WAT     H119670   4.889   6.713   8.200
 6476WAT     H219671   5.011   6.670   8.299
 6477WAT      O19672   2.431   6.768   6.321
 6477WAT     H119673   2.482   6.682   6.325
 6477WAT     H219674   2.341   6.756   6.362
 6478WAT      O19675   6.878   0.296   3.209
 6478WAT     H119676   6.799   0.238   3.229
 6478WAT     H219677   6.947   0.283   3.280
 6479WAT      O19678   6.703   0.386   0.737
 6479WAT     H119679   6.645   0.432   0.804
 6479WAT     H219680   6.665   0.295   0.718
 6480WAT      O19681   3.498   7.626   8.187
 6480WAT     H119682   3.399   7.612   8.191
 6480WAT     H219683   3.533   7.595   8.099
 6481WAT      O19684   3.242   5.557   5.467
 6481WAT     H119685   3.255   5.655   5.482
 6481WAT     H219686   3.202   5.515   5.549
 6482WAT      O19687   3.204   7.583   4.690
 6482WAT     H119688   3.242   7.659   4.744
 6482WAT     H219689   3.202   7.609   4.594
 6483WAT      O19690   0.229   2.763   5.196
 6483WAT     H119691   0.225   2.841   5.258
 6483WAT     H219692   0.215   2.678   5.247
 6484WAT      O19693   1.326   7.133   4.315
 6484WAT     H119694   1.246   7.160   4.262
 6484WAT     H219695   1.297   7.075   4.392
 6485WAT      O19696   0.796   1.452   8.241
 6485WAT     H119697   0.764   1.364   8.274
 6485WAT     H219698   0.894   1.447   8.221
 6486WAT      O19699   2.934   0.467   4.020
 6486WAT     H119700   2.923   0.405   4.098
 6486WAT     H219701   2.871   0.543   4.029
 6487WAT      O19702   5.719   1.375   1.223
 6487WAT     H119703   5.787   1.426   1.275
 6487WAT     H219704   5.696   1.425   1.140
 6488WAT      O19705   0.958   6.143   2.997
 6488WAT     H119706   0.861   6.119   2.995
 6488WAT     H219707   0.970   6.236   2.961
 6489WAT      O19708   5.460   3.185   3.331
 6489WAT     H119709   5.370   3.144   3.323
 6489WAT     H219710   5.498   3.201   3.239
 6490WAT      O19711   4.185   8.195   7.142
 6490WAT     H119712   4.232   8.167   7.225
 6490WAT     H219713   4.249   8.194   7.065
 6491WAT      O19714   2.455   9.317   9.815
 6491WAT     H119715   2.451   9.219   9.833
 6491WAT     H219716   2.376   9.361   9.858
 6492WAT      O19717   6.150   9.804   1.348
 6492WAT     H119718   6.223   9.856   1.303
 6492WAT     H219719   6.180   9.776   1.439
 6493WAT      O19720   0.944   1.933   1.590
 6493WAT     H119721   0.939   1.983   1.503
 6493WAT     H219722   0.909   1.992   1.664
 6494WAT      O19723   7.912   8.946   8.346
 6494WAT     H119724   7.855   9.029   8.345
 6494WAT     H219725   7.863   8.872   8.300
 6495WAT      O19726   1.477   1.905   4.747
 6495WAT     H119727   1.524   1.927   4.661
 6495WAT     H219728   1.544   1.878   4.816
 6496WAT      O19729   4.024   1.174   6.975
 6496WAT     H119730   4.052   1.162   6.879
 6496WAT     H219731   3.926   1.154   6.984
 6497WAT      O19732   8.384   6.738   3.023
 6497WAT     H119733   8.477   6.718   3.053
 6497WAT     H219734   8.387   6.786   2.935
 6498WAT      O19735   1.909   4.901   3.520
 6498WAT     H119736   1.914   4.808   3.556
 6498WAT     H219737   1.888   4.898   3.422
 6499WAT      O19738   4.776   6.873   5.138
 6499WAT     H119739   4.748   6.930   5.215
 6499WAT     H219740   4.780   6.778   5.167
 6500WAT      O19741   4.772   7.994   3.516
 6500WAT     H119742   4.825   8.056   3.458
 6500WAT     H219743   4.674   8.008   3.499
 6501WAT      O19744   1.628   2.644   4.228
 6501WAT     H119745   1.534   2.678   4.220
 6501WAT     H219746   1.632   2.550   4.196
 6502WAT      O19747   6.971   6.259   4.616
 6502WAT     H119748   7.056   6.247   4.565
 6502WAT     H219749   6.950   6.357   4.624
 6503WAT      O19750   5.196   9.413   8.059
 6503WAT     H119751   5.273   9.352   8.072
 6503WAT     H219752   5.133   9.405   8.137
 6504WAT      O19753   4.159   7.008   5.755
 6504WAT     H119754   4.098   6.930   5.741
 6504WAT     H219755   4.172   7.024   5.853
 6505WAT      O19756   1.897   5.855   6.389
 6505WAT     H119757   1.856   5.804   6.314
 6505WAT     H219758   1.833   5.924   6.422
 6506WAT      O19759   0.345   7.121   6.420
 6506WAT     H119760   0.423   7.121   6.357
 6506WAT     H219761   0.366   7.181   6.497
 6507WAT      O19762   6.748   9.245   7.428
 6507WAT     H119763   6.742   9.167   7.367
 6507WAT     H219764   6.735   9.330   7.376
 6508WAT      O19765   5.994   3.932   2.747
 6508WAT     H119766   6.085   3.905   2.716
 6508WAT     H219767   5.980   3.902   2.842
 6509WAT      O19768   1.476   8.597   0.805
 6509WAT     H119769   1.436   8.523   0.752
 6509WAT     H219770   1.406   8.639   0.863
 6510WAT      O19771   7.793   6.820   9.770
 6510WAT     H119772   7.776   6.908   9.726
 6510WAT     H219773   7.735   6.750   9.728
 6511WAT      O19774   3.690   2.184   6.156
 6511WAT     H119775   3.726   2.277   6.163
 6511WAT     H219776   3.683   2.159   6.059
 6512WAT      O19777   1.957   1.035   3.356
 6512WAT     H119778   1.868   0.992   3.375
 6512WAT     H219779   2.030   0.979   3.394
 6513WAT      O19780   6.750   8.820   3.579
 6513WAT     H119781   6.777   8.747   3.515
 6513WAT     H219782   6.652   8.838   3.569
 6514WAT      O19783   2.385   4.856   3.392
 6514WAT     H119784   2.474   4.846   3.436
 6514WAT     H219785   2.359   4.953   3.391
 6515WAT      O19786   6.963   4.729   6.643
 6515WAT     H119787   6.869   4.762   6.648
 6515WAT     H219788   6.984   4.676   6.726
 6516WAT      O19789   1.030   1.555   4.693
 6516WAT     H119790   1.108   1.590   4.641
 6516WAT     H219791   1.054   1.469   4.736
 6517WAT      O19792   1.558   9.291   7.138
 6517WAT     H119793   1.650   9.324   7.114
 6517WAT     H219794   1.491   9.363   7.120
 6518WAT      O19795   3.037   7.652   9.236
 6518WAT     H119796   3.024   7.725   9.169
 6518WAT     H219797   3.096   7.684   9.310
 6519WAT      O19798   3.313   9.559   9.389
 6519WAT     H119799   3.395   9.513   9.424
 6519WAT     H219800   3.326   9.658   9.393
 6520WAT      O19801   2.022   8.531   7.650
 6520WAT     H119802   2.120   8.510   7.657
 6520WAT     H219803   2.008   8.630   7.652
 6521WAT      O19804   8.207   8.943   0.459
 6521WAT     H119805   8.271   8.945   0.383
 6521WAT     H219806   8.131   9.006   0.440
 6522WAT      O19807   4.472   3.015   6.648
 6522WAT     H119808   4.569   3.035   6.660
 6522WAT     H219809   4.429   3.091   6.599
 6523WAT      O19810   0.565   0.962   7.407
 6523WAT     H119811   0.564   0.872   7.449
 6523WAT     H219812   0.637   0.966   7.337
 6524WAT      O19813   8.329   3.428   0.974
 6524WAT     H119814   8.239   3.400   0.941
 6524WAT     H219815   8.335   3.413   1.073
 6525WAT      O19816   2.468   7.934   0.807
 6525WAT     H119817   2.464   8.013   0.745
 6525WAT     H219818   2.489   7.852   0.754
 6526WAT      O19819   4.993   9.081   5.784
 6526WAT     H119820   4.988   9.025   5.867
 6526WAT     H219821   5.068   9.147   5.793
 6527WAT      O19822   3.165   8.268   6.379
 6527WAT     H119823   3.235   8.293   6.311
 6527WAT     H219824   3.079   8.247   6.332
 6528WAT      O19825   4.552   0.686   0.107
 6528WAT     H119826   4.610   0.713   0.184
 6528WAT     H219827   4.594   0.609   0.059
 6529WAT      O19828   0.122   6.471   0.982
 6529WAT     H119829   0.036   6.489   1.030
 6529WAT     H219830   0.102   6.432   0.892
 6530WAT      O19831   3.807   7.423   4.934
 6530WAT     H119832   3.772   7.329   4.927
 6530WAT     H219833   3.883   7.425   4.999
 6531WAT      O19834   8.003   0.929   8.343
 6531WAT     H119835   7.994   0.830   8.338
 6531WAT     H219836   7.912   0.971   8.347
 6532WAT      O19837   4.300   9.424   9.028
 6532WAT     H119838   4.245   9.507   9.038
 6532WAT     H219839   4.335   9.417   8.935
 6533WAT      O19840   3.017   1.173   4.788
 6533WAT     H119841   3.023   1.234   4.709
 6533WAT     H219842   2.931   1.190   4.836
 6534WAT      O19843   9.426   6.353   3.605
 6534WAT     H119844   9.365   6.367   3.527
 6534WAT     H219845   9.430   6.255   3.627
 6535WAT      O19846   6.243   4.961   3.356
 6535WAT     H119847   6.255   4.914   3.443
 6535WAT     H219848   6.325   4.948   3.300
 6536WAT      O19849   5.398   9.077   1.013
 6536WAT     H119850   5.454   9.024   0.949
 6536WAT     H219851   5.422   9.173   1.008
 6537WAT      O19852   2.952   9.649   1.279
 6537WAT     H119853   2.944   9.551   1.262
 6537WAT     H219854   2.974   9.664   1.375
 6538WAT      O19855   5.534   5.413   0.082
 6538WAT     H119856   5.500   5.507   0.086
 6538WAT     H219857   5.595   5.403   0.003
 6539WAT      O19858   9.460   6.843   8.908
 6539WAT     H119859   9.383   6.779   8.902
 6539WAT     H219860   9.447   6.904   8.986
 6540WAT      O19861   9.491   8.113   5.225
 6540WAT     H119862   9.581   8.088   5.189
 6540WAT     H219863   9.442   8.031   5.254
 6541WAT      O19864   8.702   9.728   3.211
 6541WAT     H119865   8.681   9.770   3.300
 6541WAT     H219866   8.764   9.788   3.160
 6542WAT      O19867   1.008   1.122   3.393
 6542WAT     H119868   0.937   1.060   3.428
 6542WAT     H219869   1.098   1.086   3.415
 6543WAT      O19870   1.628   6.835   8.671
 6543WAT     H119871   1.683   6.756   8.642
 6543WAT     H219872   1.688   6.913   8.689
 6544WAT      O19873   8.079   0.174   2.486
 6544WAT     H119874   8.019   0.164   2.407
 6544WAT     H219875   8.106   0.083   2.519
 6545WAT      O19876   9.777   6.567   1.371
 6545WAT     H119877   9.741   6.635   1.435
 6545WAT     H219878   9.812   6.489   1.422
 6546WAT      O19879   2.627   0.469   7.250
 6546WAT     H119880   2.537   0.507   7.269
 6546WAT     H219881   2.633   0.376   7.286
 6547WAT      O19882   2.587   8.169   2.775
 6547WAT     H119883   2.564   8.075   2.750
 6547WAT     H219884   2.504   8.224   2.782
 6548WAT      O19885   3.248   7.319   6.768
 6548WAT     H119886   3.285   7.251   6.705
 6548WAT     H219887   3.169   7.363   6.726
 6549WAT      O19888   2.331   0.725   7.387
 6549WAT     H119889   2.382   0.651   7.431
 6549WAT     H219890   2.309   0.699   7.293
 6550WAT      O19891   5.129   3.069   7.098
 6550WAT     H119892   5.179   3.083   7.013
 6550WAT     H219893   5.186   3.020   7.164
 6551WAT      O19894   6.211   2.077   8.448
 6551WAT     H119895   6.118   2.052   8.421
 6551WAT     H219896   6.233   2.167   8.412
 6552WAT      O19897   1.772   9.500   3.309
 6552WAT     H119898   1.790   9.520   3.212
 6552WAT     H219899   1.778   9.401   3.324
 6553WAT      O19900   0.359   9.533   5.974
 6553WAT     H119901   0.423   9.584   6.032
 6553WAT     H219902   0.366   9.566   5.880
 6554WAT      O19903   2.153   4.371   3.299
 6554WAT     H119904   2.189   4.463   3.317
 6554WAT     H219905   2.131   4.363   3.202
 6555WAT      O19906   8.451   4.666   1.604
 6555WAT     H119907   8.360   4.642   1.570
 6555WAT     H219908   8.454   4.764   1.624
 6556WAT      O19909   3.844   3.243   9.844
 6556WAT     H119910   3.871   3.183   9.919
 6556WAT     H219911   3.823   3.188   9.763
 6557WAT      O19912   5.446   7.753   3.333
 6557WAT     H119913   5.496   7.673   3.365
 6557WAT     H219914   5.399   7.730   3.247
 6558WAT      O19915   0.945   0.089   2.321
 6558WAT     H119916   0.957   0.056   2.415
 6558WAT     H219917   0.857   0.056   2.285
 6559WAT      O19918   9.368   2.651   3.955
 6559WAT     H119919   9.275   2.689   3.955
 6559WAT     H219920   9.432   2.721   3.924
 6560WAT      O19921   6.479   5.855   6.144
 6560WAT     H119922   6.566   5.898   6.121
 6560WAT     H219923   6.424   5.844   6.061
 6561WAT      O19924   1.647   8.357   5.976
 6561WAT     H119925   1.713   8.431   5.979
 6561WAT     H219926   1.676   8.283   6.037
 6562WAT      O19927   5.556   3.351   0.281
 6562WAT     H119928   5.654   3.349   0.303
 6562WAT     H219929   5.504   3.358   0.366
 6563WAT      O19930   3.865   0.087   5.709
 6563WAT     H119931   3.843   0.118   5.801
 6563WAT     H219932   3.943   0.140   5.674
 6564WAT      O19933   1.376   8.843   8.869
 6564WAT     H119934   1.308   8.917   8.864
 6564WAT     H219935   1.359   8.778   8.795
 6565WAT      O19936   2.711   2.435   2.108
 6565WAT     H119937   2.665   2.523   2.090
 6565WAT     H219938   2.721   2.385   2.022
 6566WAT      O19939   7.346   4.424   3.551
 6566WAT     H119940   7.441   4.397   3.568
 6566WAT     H219941   7.289   4.395   3.627
 6567WAT      O19942   7.937   9.575   3.194
 6567WAT     H119943   7.954   9.542   3.101
 6567WAT     H219944   7.971   9.668   3.204
 6568WAT      O19945   6.566   1.152   7.723
 6568WAT     H119946   6.627   1.216   7.675
 6568WAT     H219947   6.578   1.060   7.686
 6569WAT      O19948   9.508   7.938   4.153
 6569WAT     H119949   9.506   7.839   4.171
 6569WAT     H219950   9.452   7.958   4.073
 6570WAT      O19951   2.919   7.392   4.038
 6570WAT     H119952   2.880   7.470   4.087
 6570WAT     H219953   2.934   7.317   4.102
 6571WAT      O19954   5.235   6.858   9.315
 6571WAT     H119955   5.291   6.852   9.232
 6571WAT     H219956   5.295   6.873   9.394
 6572WAT      O19957   3.394   2.260   1.164
 6572WAT     H119958   3.487   2.291   1.188
 6572WAT     H219959   3.362   2.310   1.083
 6573WAT      O19960   6.442   8.060   2.341
 6573WAT     H119961   6.408   8.016   2.424
 6573WAT     H219962   6.480   7.991   2.279
 6574WAT      O19963   7.283   3.832   7.357
 6574WAT     H119964   7.252   3.848   7.263
 6574WAT     H219965   7.231   3.890   7.420
 6575WAT      O19966   7.694   4.575   8.228
 6575WAT     H119967   7.751   4.517   8.286
 6575WAT     H219968   7.700   4.670   8.257
 6576WAT      O19969   1.994   3.902   3.821
 6576WAT     H119970   1.908   3.896   3.770
 6576WAT     H219971   2.031   3.994   3.812
 6577WAT      O19972   6.362   3.580   3.205
 6577WAT     H119973   6.304   3.562   3.284
 6577WAT     H219974   6.324   3.656   3.152
 6578WAT      O19975   6.714   5.505   9.183
 6578WAT     H119976   6.713   5.501   9.083
 6578WAT     H219977   6.789   5.564   9.213
 6579WAT      O19978   9.796   4.063   3.817
 6579WAT     H119979   9.825   4.126   3.745
 6579WAT     H219980   9.710   4.093   3.856
 6580WAT      O19981   8.062   7.404   4.322
 6580WAT     H119982   8.004   7.400   4.403
 6580WAT     H219983   8.012   7.447   4.247
 6581WAT      O19984   1.237   4.539   6.607
 6581WAT     H119985   1.276   4.500   6.524
 6581WAT     H219986   1.293   4.616   6.637
 6582WAT      O19987   4.380   1.398   6.478
 6582WAT     H119988   4.431   1.344   6.411
 6582WAT     H219989   4.395   1.495   6.459
 6583WAT      O19990   5.154   0.020   3.559
 6583WAT     H119991   5.180   0.071   3.640
 6583WAT     H219992   5.165  -0.078   3.575
 6584WAT      O19993   1.553   7.010   7.714
 6584WAT     H119994   1.543   7.100   7.755
 6584WAT     H219995   1.557   7.018   7.615
 6585WAT      O19996   9.151   0.492   4.564
 6585WAT     H119997   9.244   0.474   4.532
 6585WAT     H219998   9.152   0.567   4.629
 6586WAT      O19999   9.762   5.037   6.522
 6586WAT     H120000   9.823   5.095   6.468
 6586WAT     H220001   9.752   4.948   6.477
 6587WAT      O20002   2.556   7.241   8.426
 6587WAT     H120003   2.598   7.205   8.343
 6587WAT     H220004   2.586   7.186   8.505
 6588WAT      O20005   1.102   2.762   1.642
 6588WAT     H120006   1.050   2.708   1.576
 6588WAT     H220007   1.200   2.749   1.624
 6589WAT      O20008   0.644   2.631   9.684
 6589WAT     H120009   0.610   2.537   9.683
 6589WAT     H220010   0.582   2.688   9.739
 6590WAT      O20011   2.579   0.519   2.697
 6590WAT     H120012   2.546   0.444   2.640
 6590WAT     H220013   2.514   0.596   2.693
 6591WAT      O20014   8.580   8.194   4.222
 6591WAT     H120015   8.645   8.126   4.189
 6591WAT     H220016   8.497   8.191   4.165
 6592WAT      O20017   3.040   1.329   9.066
 6592WAT     H120018   3.081   1.257   9.122
 6592WAT     H220019   2.951   1.354   9.104
 6593WAT      O20020   8.991   1.031   1.907
 6593WAT     H120021   8.917   1.099   1.905
 6593WAT     H220022   9.074   1.073   1.871
 6594WAT      O20023   5.597   0.270   1.294
 6594WAT     H120024   5.598   0.239   1.389
 6594WAT     H220025   5.692   0.280   1.262
 6595WAT      O20026   2.167   6.101   4.242
 6595WAT     H120027   2.212   6.100   4.153
 6595WAT     H220028   2.229   6.062   4.310
 6596WAT      O20029   2.571   5.157   1.016
 6596WAT     H120030   2.487   5.132   0.966
 6596WAT     H220031   2.548   5.222   1.088
 6597WAT      O20032   8.127   2.204   1.607
 6597WAT     H120033   8.222   2.235   1.612
 6597WAT     H220034   8.114   2.124   1.665
 6598WAT      O20035   5.709   3.283   5.429
 6598WAT     H120036   5.807   3.288   5.412
 6598WAT     H220037   5.675   3.192   5.404
 6599WAT      O20038   3.860   5.426   2.134
 6599WAT     H120039   3.903   5.474   2.211
 6599WAT     H220040   3.870   5.481   2.051
 6600WAT      O20041   5.413   6.310   6.255
 6600WAT     H120042   5.323   6.352   6.264
 6600WAT     H220043   5.403   6.215   6.225
 6601WAT      O20044   4.049   3.249   6.153
 6601WAT     H120045   4.135   3.199   6.168
 6601WAT     H220046   3.990   3.237   6.233
 6602WAT      O20047   6.016   1.884   0.182
 6602WAT     H120048   6.084   1.814   0.206
 6602WAT     H220049   5.924   1.848   0.199
 6603WAT      O20050   1.078   9.349   8.901
 6603WAT     H120051   1.171   9.320   8.925
 6603WAT     H220052   1.039   9.401   8.976
 6604WAT      O20053   0.368   1.842   7.679
 6604WAT     H120054   0.338   1.829   7.584
 6604WAT     H220055   0.392   1.753   7.718
 6605WAT      O20056   2.983   7.098   7.998
 6605WAT     H120057   2.971   7.000   8.012
 6605WAT     H220058   3.070   7.114   7.951
 6606WAT      O20059   0.650   5.446   0.551
 6606WAT     H120060   0.646   5.510   0.628
 6606WAT     H220061   0.562   5.443   0.505
 6607WAT      O20062   6.785   6.690   7.882
 6607WAT     H120063   6.851   6.721   7.950
 6607WAT     H220064   6.705   6.651   7.928
 6608WAT      O20065   0.065   7.399   2.420
 6608WAT     H120066   0.082   7.398   2.321
 6608WAT     H220067  -0.031   7.420   2.437
 6609WAT      O20068   2.853   5.400   1.419
 6609WAT     H120069   2.847   5.361   1.327
 6609WAT     H220070   2.889   5.331   1.482
 6610WAT      O20071   1.998   3.635   6.514
 6610WAT     H120072   1.901   3.646   6.489
 6610WAT     H220073   2.019   3.538   6.526
 6611WAT      O20074   9.193   5.384   0.929
 6611WAT     H120075   9.114   5.385   0.991
 6611WAT     H220076   9.199   5.294   0.886
 6612WAT      O20077   9.707   7.919   2.816
 6612WAT     H120078   9.664   7.833   2.844
 6612WAT     H220079   9.750   7.906   2.727
 6613WAT      O20080   0.310   5.894   5.913
 6613WAT     H120081   0.338   5.986   5.888
 6613WAT     H220082   0.211   5.885   5.902
 6614WAT      O20083   8.550   5.378   7.420
 6614WAT     H120084   8.480   5.414   7.482
 6614WAT     H220085   8.538   5.418   7.329
 6615WAT      O20086   4.011   5.002   7.276
 6615WAT     H120087   4.044   5.003   7.182
 6615WAT     H220088   3.985   4.908   7.301
 6616WAT      O20089   3.240   6.867   2.061
 6616WAT     H120090   3.207   6.791   2.118
 6616WAT     H220091   3.201   6.858   1.969
 6617WAT      O20092   0.326   4.434   5.525
 6617WAT     H120093   0.286   4.478   5.445
 6617WAT     H220094   0.418   4.471   5.540
 6618WAT      O20095   4.690   1.340   3.513
 6618WAT     H120096   4.623   1.356   3.585
 6618WAT     H220097   4.642   1.316   3.428
 6619WAT      O20098   0.043   0.065   3.770
 6619WAT     H120099   0.129   0.057   3.720
 6619WAT     H220100   0.002  -0.026   3.780
 6620WAT      O20101   7.035   4.370   1.045
 6620WAT     H120102   6.979   4.318   1.110
 6620WAT     H220103   6.985   4.380   0.959
 6621WAT      O20104   7.841   3.445   2.782
 6621WAT     H120105   7.768   3.439   2.713
 6621WAT     H220106   7.814   3.394   2.863
 6622WAT      O20107   5.032   3.085   0.082
 6622WAT     H120108   5.015   3.013   0.149
 6622WAT     H220109   4.946   3.112   0.039
 6623WAT      O20110   6.050   3.270   1.470
 6623WAT     H120111   6.118   3.270   1.542
 6623WAT     H220112   6.088   3.312   1.388
 6624WAT      O20113   6.923   9.620   0.736
 6624WAT     H120114   6.853   9.587   0.673
 6624WAT     H220115   6.995   9.666   0.685
 6625WAT      O20116   9.309   1.906   9.651
 6625WAT     H120117   9.223   1.857   9.667
 6625WAT     H220118   9.377   1.841   9.616
 6626WAT      O20119   1.663   8.676   4.397
 6626WAT     H120120   1.606   8.640   4.470
 6626WAT     H220121   1.606   8.699   4.319
 6627WAT      O20122   0.516   6.343   9.205
 6627WAT     H120123   0.525   6.441   9.185
 6627WAT     H220124   0.421   6.322   9.226
 6628WAT      O20125   9.612   3.799   2.481
 6628WAT     H120126   9.708   3.772   2.482
 6628WAT     H220127   9.588   3.835   2.391
 6629WAT      O20128   3.605   6.380   7.129
 6629WAT     H120129   3.538   6.336   7.070
 6629WAT     H220130   3.569   6.386   7.222
 6630WAT      O20131   6.267   7.362   3.244
 6630WAT     H120132   6.192   7.297   3.236
 6630WAT     H220133   6.260   7.410   3.332
 6631WAT      O20134   4.361   8.117   4.954
 6631WAT     H120135   4.408   8.120   5.042
 6631WAT     H220136   4.350   8.021   4.926
 6632WAT      O20137   8.737   3.536   2.400
 6632WAT     H120138   8.828   3.501   2.378
 6632WAT     H220139   8.719   3.617   2.345
 6633WAT      O20140   7.849   0.561   1.535
 6633WAT     H120141   7.903   0.542   1.617
 6633WAT     H220142   7.908   0.596   1.463
 6634WAT      O20143   9.074   3.611   5.730
 6634WAT     H120144   8.997   3.613   5.666
 6634WAT     H220145   9.152   3.659   5.689
 6635WAT      O20146   3.205   2.059   7.264
 6635WAT     H120147   3.273   2.062   7.191
 6635WAT     H220148   3.162   1.969   7.265
 6636WAT      O20149   6.211   6.048   4.806
 6636WAT     H120150   6.269   6.093   4.738
 6636WAT     H220151   6.222   6.094   4.894
 6637WAT      O20152   0.550   7.687   9.477
 6637WAT     H120153   0.531   7.742   9.396
 6637WAT     H220154   0.609   7.610   9.452
 6638WAT      O20155   2.671   7.878   3.860
 6638WAT     H120156   2.751   7.820   3.847
 6638WAT     H220157   2.682   7.932   3.944
 6639WAT      O20158   7.457   3.380   7.734
 6639WAT     H120159   7.545   3.334   7.742
 6639WAT     H220160   7.396   3.348   7.807
 6640WAT      O20161   9.316   4.248   8.975
 6640WAT     H120162   9.269   4.171   8.933
 6640WAT     H220163   9.328   4.320   8.907
 6641WAT      O20164   6.036   3.605   1.723
 6641WAT     H120165   6.020   3.703   1.737
 6641WAT     H220166   5.950   3.556   1.734
 6642WAT      O20167   0.768   1.703   1.918
 6642WAT     H120168   0.863   1.677   1.899
 6642WAT     H220169   0.748   1.687   2.015
 6643WAT      O20170   1.592   4.151   5.189
 6643WAT     H120171   1.536   4.221   5.145
 6643WAT     H220172   1.664   4.195   5.243
 6644WAT      O20173   2.555   9.607   8.791
 6644WAT     H120174   2.610   9.677   8.745
 6644WAT     H220175   2.614   9.533   8.823
 6645WAT      O20176   2.218   1.029   7.830
 6645WAT     H120177   2.157   1.083   7.888
 6645WAT     H220178   2.311   1.065   7.837
 6646WAT      O20179   4.663   4.188   3.702
 6646WAT     H120180   4.720   4.216   3.779
 6646WAT     H220181   4.594   4.259   3.686
 6647WAT      O20182   5.898   5.108   4.891
 6647WAT     H120183   5.870   5.068   4.803
 6647WAT     H220184   5.826   5.093   4.959
 6648WAT      O20185   9.150   4.812   2.227
 6648WAT     H120186   9.238   4.777   2.194
 6648WAT     H220187   9.165   4.874   2.304
 6649WAT      O20188   4.061   7.263   7.104
 6649WAT     H120189   4.049   7.331   7.032
 6649WAT     H220190   4.105   7.307   7.183
 6650WAT      O20191   2.789   8.695   3.906
 6650WAT     H120192   2.760   8.741   3.822
 6650WAT     H220193   2.825   8.763   3.971
 6651WAT      O20194   1.634   3.550   2.098
 6651WAT     H120195   1.691   3.584   2.023
 6651WAT     H220196   1.691   3.501   2.164
 6652WAT      O20197   1.625   0.305   3.766
 6652WAT     H120198   1.594   0.210   3.763
 6652WAT     H220199   1.569   0.356   3.832
 6653WAT      O20200   1.770   4.825   1.946
 6653WAT     H120201   1.832   4.887   1.898
 6653WAT     H220202   1.758   4.856   2.040
 6654WAT      O20203   3.051   7.798   3.621
 6654WAT     H120204   3.052   7.764   3.527
 6654WAT     H220205   3.059   7.898   3.621
 6655WAT      O20206   0.668   7.209   3.588
 6655WAT     H120207   0.658   7.114   3.615
 6655WAT     H220208   0.734   7.216   3.513
 6656WAT      O20209   7.436   2.209   3.636
 6656WAT     H120210   7.354   2.235   3.688
 6656WAT     H220211   7.414   2.206   3.539
 6657WAT      O20212   1.118   1.309   4.799
 6657WAT     H120213   1.192   1.260   4.846
 6657WAT     H220214   1.030   1.273   4.829
 6658WAT      O20215   5.456   8.209   0.845
 6658WAT     H120216   5.434   8.131   0.787
 6658WAT     H220217   5.451   8.293   0.791
 6659WAT      O20218   2.888   5.456   8.720
 6659WAT     H120219   2.943   5.373   8.727
 6659WAT     H220220   2.896   5.494   8.628
 6660WAT      O20221   5.538   6.421   1.144
 6660WAT     H120222   5.609   6.351   1.139
 6660WAT     H220223   5.479   6.414   1.064
 6661WAT      O20224   1.893   0.985   0.229
 6661WAT     H120225   1.980   1.016   0.268
 6661WAT     H220226   1.889   1.010   0.132
 6662WAT      O20227   7.607   8.824   6.640
 6662WAT     H120228   7.550   8.742   6.643
 6662WAT     H220229   7.690   8.805   6.587
 6663WAT      O20230   0.779   4.558   0.568
 6663WAT     H120231   0.774   4.615   0.650
 6663WAT     H220232   0.751   4.465   0.589
 6664WAT      O20233   9.803   4.695   3.588
 6664WAT     H120234   9.705   4.703   3.608
 6664WAT     H220235   9.846   4.785   3.592
 6665WAT      O20236   0.379   9.006   2.954
 6665WAT     H120237   0.426   9.028   3.039
 6665WAT     H220238   0.412   9.067   2.881
 6666WAT      O20239   0.339   5.776   8.413
 6666WAT     H120240   0.266   5.817   8.358
 6666WAT     H220241   0.342   5.677   8.396
 6667WAT      O20242   6.985   0.240   8.278
 6667WAT     H120243   6.992   0.306   8.352
 6667WAT     H220244   6.941   0.156   8.312
 6668WAT      O20245   9.666   8.060   1.855
 6668WAT     H120246   9.604   7.982   1.867
 6668WAT     H220247   9.621   8.144   1.885
 6669WAT      O20248   7.398   4.379   1.005
 6669WAT     H120249   7.480   4.427   1.037
 6669WAT     H220250   7.396   4.379   0.905
 6670WAT      O20251   6.348   8.656   3.517
 6670WAT     H120252   6.260   8.646   3.471
 6670WAT     H220253   6.351   8.597   3.597
 6671WAT      O20254   6.924   3.081   8.119
 6671WAT     H120255   6.992   3.050   8.185
 6671WAT     H220256   6.874   3.003   8.082
 6672WAT      O20257   3.645   8.768   2.671
 6672WAT     H120258   3.624   8.815   2.757
 6672WAT     H220259   3.691   8.681   2.691
 6673WAT      O20260   6.668   8.169   6.970
 6673WAT     H120261   6.695   8.150   6.875
 6673WAT     H220262   6.623   8.259   6.974
 6674WAT      O20263   5.986   8.457   3.397
 6674WAT     H120264   5.892   8.483   3.421
 6674WAT     H220265   5.989   8.428   3.301
 6675WAT      O20266   9.450   6.912   2.872
 6675WAT     H120267   9.439   6.820   2.835
 6675WAT     H220268   9.548   6.934   2.879
 6676WAT      O20269   3.121   6.845   7.507
 6676WAT     H120270   3.119   6.747   7.527
 6676WAT     H220271   3.173   6.892   7.578
 6677WAT      O20272   6.714   5.038   1.619
 6677WAT     H120273   6.794   5.071   1.569
 6677WAT     H220274   6.688   5.106   1.688
 6678WAT      O20275   2.352   2.179   3.484
 6678WAT     H120276   2.428   2.119   3.459
 6678WAT     H220277   2.266   2.126   3.482
 6679WAT      O20278   0.363   3.401   1.442
 6679WAT     H120279   0.411   3.440   1.363
 6679WAT     H220280   0.265   3.400   1.425
 6680WAT      O20281   7.514   3.879   0.308
 6680WAT     H120282   7.503   3.975   0.282
 6680WAT     H220283   7.450   3.823   0.256
 6681WAT      O20284   8.061   5.494   6.244
 6681WAT     H120285   7.979   5.441   6.224
 6681WAT     H220286   8.077   5.495   6.343
 6682WAT      O20287   4.446   8.877   1.589
 6682WAT     H120288   4.462   8.888   1.687
 6682WAT     H220289   4.348   8.876   1.571
 6683WAT      O20290   8.435   0.129   4.205
 6683WAT     H120291   8.431   0.071   4.123
 6683WAT     H220292   8.362   0.102   4.268
 6684WAT      O20293   7.016   6.402   4.070
 6684WAT     H120294   6.951   6.455   4.125
 6684WAT     H220295   7.037   6.316   4.116
 6685WAT      O20296   7.711   3.996   4.383
 6685WAT     H120297   7.613   3.977   4.390
 6685WAT     H220298   7.762   3.920   4.422
 6686WAT      O20299   7.085   7.249   3.808
 6686WAT     H120300   7.143   7.223   3.731
 6686WAT     H220301   7.135   7.314   3.866
 6687WAT      O20302   2.226   5.421   1.693
 6687WAT     H120303   2.228   5.521   1.698
 6687WAT     H220304   2.257   5.383   1.780
 6688WAT      O20305   3.885   2.254   1.394
 6688WAT     H120306   3.955   2.300   1.449
 6688WAT     H220307   3.798   2.254   1.444
 6689WAT      O20308   1.330   7.791   8.910
 6689WAT     H120309   1.358   7.849   8.986
 6689WAT     H220310   1.401   7.791   8.839
 6690WAT      O20311   7.523   3.822   6.358
 6690WAT     H120312   7.622   3.835   6.354
 6690WAT     H220313   7.498   3.741   6.305
 6691WAT      O20314   8.594   3.075   2.488
 6691WAT     H120315   8.591   3.073   2.588
 6691WAT     H220316   8.666   3.137   2.458
 6692WAT      O20317   6.834   9.357   7.660
 6692WAT     H120318   6.802   9.328   7.570
 6692WAT     H220319   6.933   9.370   7.658
 6693WAT      O20320   1.898   4.544   7.168
 6693WAT     H120321   1.887   4.551   7.267
 6693WAT     H220322   1.897   4.635   7.127
 6694WAT      O20323   5.200   3.692   5.623
 6694WAT     H120324   5.283   3.723   5.577
 6694WAT     H220325   5.213   3.696   5.722
 6695WAT      O20326   8.710   6.018   7.581
 6695WAT     H120327   8.668   6.103   7.548
 6695WAT     H220328   8.808   6.020   7.561
 6696WAT      O20329   0.867   1.045   5.947
 6696WAT     H120330   0.829   1.123   5.897
 6696WAT     H220331   0.967   1.045   5.937
 6697WAT      O20332   1.671   9.118   6.292
 6697WAT     H120333   1.637   9.192   6.235
 6697WAT     H220334   1.613   9.108   6.373
 6698WAT      O20335   1.898   8.653   9.101
 6698WAT     H120336   1.851   8.573   9.063
 6698WAT     H220337   1.969   8.622   9.165
 6699WAT      O20338   8.755   9.734   2.890
 6699WAT     H120339   8.698   9.814   2.911
 6699WAT     H220340   8.852   9.760   2.896
 6700WAT      O20341   1.710   7.088   6.056
 6700WAT     H120342   1.630   7.117   6.004
 6700WAT     H220343   1.793   7.129   6.016
 6701WAT      O20344   3.262   2.656   0.390
 6701WAT     H120345   3.203   2.605   0.328
 6701WAT     H220346   3.238   2.753   0.386
 6702WAT      O20347   9.679   3.219   0.709
 6702WAT     H120348   9.648   3.153   0.640
 6702WAT     H220349   9.771   3.193   0.740
 6703WAT      O20350   0.300   0.719   6.312
 6703WAT     H120351   0.384   0.770   6.297
 6703WAT     H220352   0.236   0.775   6.365
 6704WAT      O20353   1.261   7.726   7.308
 6704WAT     H120354   1.184   7.697   7.365
 6704WAT     H220355   1.236   7.717   7.211
 6705WAT      O20356   9.475   1.027   1.825
 6705WAT     H120357   9.491   0.995   1.919
 6705WAT     H220358   9.555   1.005   1.769
 6706WAT      O20359   3.574   9.164   6.979
 6706WAT     H120360   3.517   9.117   7.047
 6706WAT     H220361   3.545   9.260   6.972
 6707WAT      O20362   9.709   6.143   9.292
 6707WAT     H120363   9.619   6.101   9.289
 6707WAT     H220364   9.701   6.242   9.275
 6708WAT      O20365   2.107   7.629   7.599
 6708WAT     H120366   2.051   7.555   7.635
 6708WAT     H220367   2.141   7.685   7.674
 6709WAT      O20368   1.378   3.871   0.904
 6709WAT     H120369   1.405   3.965   0.885
 6709WAT     H220370   1.279   3.867   0.915
 6710WAT      O20371   4.533   4.466   8.261
 6710WAT     H120372   4.448   4.413   8.273
 6710WAT     H220373   4.547   4.523   8.342
 6711WAT      O20374   6.844   9.703   9.280
 6711WAT     H120375   6.829   9.750   9.367
 6711WAT     H220376   6.934   9.729   9.243
 6712WAT      O20377   1.274   7.886   9.868
 6712WAT     H120378   1.256   7.973   9.915
 6712WAT     H220379   1.228   7.812   9.917
 6713WAT      O20380   0.074   3.757   1.748
 6713WAT     H120381   0.156   3.719   1.791
 6713WAT     H220382   0.025   3.813   1.815
 6714WAT      O20383   9.196   0.908   1.371
 6714WAT     H120384   9.154   0.998   1.382
 6714WAT     H220385   9.198   0.861   1.460
 6715WAT      O20386   7.119   6.934   5.909
 6715WAT     H120387   7.120   6.986   5.995
 6715WAT     H220388   7.060   6.854   5.920
 6716WAT      O20389   5.746   6.646   7.124
 6716WAT     H120390   5.807   6.725   7.130
 6716WAT     H220391   5.758   6.588   7.205
 6717WAT      O20392   3.737   5.509   4.939
 6717WAT     H120393   3.725   5.592   4.993
 6717WAT     H220394   3.727   5.429   4.998
 6718WAT      O20395   9.557   3.423   2.725
 6718WAT     H120396   9.540   3.412   2.627
 6718WAT     H220397   9.517   3.509   2.757
 6719WAT      O20398   0.295   6.051   5.065
 6719WAT     H120399   0.268   6.089   4.976
 6719WAT     H220400   0.296   6.125   5.133
 6720WAT      O20401   7.344   6.675   2.247
 6720WAT     H120402   7.322   6.747   2.181
 6720WAT     H220403   7.272   6.671   2.317
 6721WAT      O20404   3.345   4.594   9.676
 6721WAT     H120405   3.271   4.528   9.669
 6721WAT     H220406   3.324   4.660   9.749
 6722WAT      O20407   3.393   4.397   6.548
 6722WAT     H120408   3.317   4.393   6.613
 6722WAT     H220409   3.448   4.314   6.556
 6723WAT      O20410   7.064   8.044   7.647
 6723WAT     H120411   7.002   8.121   7.660
 6723WAT     H220412   7.014   7.965   7.613
 6724WAT      O20413   8.457   0.349   4.031
 6724WAT     H120414   8.371   0.395   4.053
 6724WAT     H220415   8.484   0.291   4.108
 6725WAT      O20416   3.436   2.201   4.572
 6725WAT     H120417   3.363   2.220   4.638
 6725WAT     H220418   3.516   2.166   4.621
 6726WAT      O20419   6.994   0.538   3.138
 6726WAT     H120420   6.966   0.609   3.203
 6726WAT     H220421   6.945   0.454   3.156
 6727WAT      O20422   0.876   4.165   0.786
 6727WAT     H120423   0.819   4.199   0.711
 6727WAT     H220424   0.822   4.103   0.843
 6728WAT      O20425   9.376   7.817   3.645
 6728WAT     H120426   9.447   7.760   3.604
 6728WAT     H220427   9.288   7.770   3.640
 6729WAT      O20428   6.258   4.700   9.037
 6729WAT     H120429   6.239   4.604   9.021
 6729WAT     H220430   6.232   4.754   8.957
 6730WAT      O20431   0.734   8.940   1.140
 6730WAT     H120432   0.674   8.997   1.083
 6730WAT     H220433   0.800   8.892   1.083
 6731WAT      O20434   6.862   4.694   7.758
 6731WAT     H120435   6.846   4.666   7.853
 6731WAT     H220436   6.776   4.687   7.706
 6732WAT      O20437   9.304   3.693   3.033
 6732WAT     H120438   9.371   3.671   3.103
 6732WAT     H220439   9.347   3.690   2.943
 6733WAT      O20440   4.946   3.367   4.113
 6733WAT     H120441   4.900   3.288   4.073
 6733WAT     H220442   4.986   3.341   4.201
 6734WAT      O20443   9.048   5.280   9.783
 6734WAT     H120444   9.099   5.307   9.865
 6734WAT     H220445   8.951   5.304   9.795
 6735WAT      O20446   1.100   8.039   2.028
 6735WAT     H120447   1.162   8.100   2.078
 6735WAT     H220448   1.027   8.092   1.985
 6736WAT      O20449   2.787   7.018   1.962
 6736WAT     H120450   2.770   6.921   1.981
 6736WAT     H220451   2.735   7.046   1.882
 6737WAT      O20452   6.861   9.096   2.717
 6737WAT     H120453   6.872   9.195   2.707
 6737WAT     H220454   6.941   9.059   2.764
 6738WAT      O20455   4.614   0.967   9.420
 6738WAT     H120456   4.662   1.055   9.421
 6738WAT     H220457   4.601   0.937   9.326
 6739WAT      O20458   1.608   0.191   9.160
 6739WAT     H120459   1.524   0.138   9.155
 6739WAT     H220460   1.666   0.172   9.081
 6740WAT      O20461   0.791   5.065   9.263
 6740WAT     H120462   0.791   5.163   9.243
 6740WAT     H220463   0.780   5.013   9.177
 6741WAT      O20464   8.434   1.284   4.439
 6741WAT     H120465   8.399   1.321   4.353
 6741WAT     H220466   8.367   1.297   4.511
 6742WAT      O20467   6.223   6.470   8.021
 6742WAT     H120468   6.269   6.413   7.953
 6742WAT     H220469   6.153   6.416   8.068
 6743WAT      O20470   8.332   9.766   9.131
 6743WAT     H120471   8.381   9.741   9.048
 6743WAT     H220472   8.306   9.863   9.126
 6744WAT      O20473   6.975   3.340   3.309
 6744WAT     H120474   7.046   3.411   3.310
 6744WAT     H220475   6.893   3.377   3.266
 6745WAT      O20476   1.487   7.375   5.191
 6745WAT     H120477   1.586   7.379   5.200
 6745WAT     H220478   1.461   7.400   5.097
 6746WAT      O20479   5.506   9.175   9.661
 6746WAT     H120480   5.532   9.176   9.564
 6746WAT     H220481   5.535   9.089   9.702
 6747WAT      O20482   5.075   5.059   8.231
 6747WAT     H120483   5.139   5.128   8.265
 6747WAT     H220484   4.994   5.056   8.290
 6748WAT      O20485   8.163   2.612   8.270
 6748WAT     H120486   8.196   2.526   8.308
 6748WAT     H220487   8.064   2.608   8.259
 6749WAT      O20488   8.562   0.792   1.470
 6749WAT     H120489   8.547   0.740   1.554
 6749WAT     H220490   8.505   0.755   1.396
 6750WAT      O20491   0.350   6.438   3.201
 6750WAT     H120492   0.319   6.343   3.199
 6750WAT     H220493   0.382   6.460   3.293
 6751WAT      O20494   0.723   8.042   3.608
 6751WAT     H120495   0.734   7.957   3.557
 6751WAT     H220496   0.781   8.112   3.569
 6752WAT      O20497   4.445   8.885   6.769
 6752WAT     H120498   4.446   8.911   6.672
 6752WAT     H220499   4.352   8.893   6.805
 6753WAT      O20500   2.285   9.796   6.694
 6753WAT     H120501   2.362   9.741   6.725
 6753WAT     H220502   2.246   9.754   6.611
 6754WAT      O20503   7.315   4.853   4.597
 6754WAT     H120504   7.334   4.759   4.627
 6754WAT     H220505   7.300   4.911   4.677
 6755WAT      O20506   0.591   0.599   3.776
 6755WAT     H120507   0.524   0.632   3.842
 6755WAT     H220508   0.663   0.668   3.764
 6756WAT      O20509   3.785   3.379   4.801
 6756WAT     H120510   3.758   3.393   4.705
 6756WAT     H220511   3.732   3.304   4.840
 6757WAT      O20512   8.412   6.194   2.055
 6757WAT     H120513   8.315   6.171   2.058
 6757WAT     H220514   8.460   6.144   2.127
 6758WAT      O20515   6.753   0.644   2.278
 6758WAT     H120516   6.825   0.707   2.250
 6758WAT     H220517   6.670   0.697   2.301
 6759WAT      O20518   2.071   5.586   2.799
 6759WAT     H120519   2.013   5.505   2.807
 6759WAT     H220520   2.093   5.602   2.703
 6760WAT      O20521   1.152   4.247   5.178
 6760WAT     H120522   1.172   4.181   5.106
 6760WAT     H220523   1.073   4.302   5.152
 6761WAT      O20524   2.662   2.899   8.623
 6761WAT     H120525   2.730   2.968   8.647
 6761WAT     H220526   2.592   2.896   8.695
 6762WAT      O20527   5.421   8.789   3.005
 6762WAT     H120528   5.367   8.813   3.086
 6762WAT     H220529   5.507   8.839   3.006
 6763WAT      O20530   3.060   7.968   7.025
 6763WAT     H120531   3.124   7.892   7.019
 6763WAT     H220532   3.111   8.054   7.032
 6764WAT      O20533   3.315   0.090   0.609
 6764WAT     H120534   3.370   0.162   0.652
 6764WAT     H220535   3.245   0.132   0.552
 6765WAT      O20536   1.776   3.230   2.288
 6765WAT     H120537   1.801   3.326   2.289
 6765WAT     H220538   1.687   3.219   2.332
 6766WAT      O20539   6.988   7.560   0.411
 6766WAT     H120540   6.925   7.566   0.333
 6766WAT     H220541   6.975   7.640   0.470
 6767WAT      O20542   0.279   8.115   6.393
 6767WAT     H120543   0.187   8.083   6.416
 6767WAT     H220544   0.275   8.208   6.359
 6768WAT      O20545   2.750   7.947   0.279
 6768WAT     H120546   2.697   8.031   0.268
 6768WAT     H220547   2.845   7.963   0.251
 6769WAT      O20548   5.154   2.107   1.913
 6769WAT     H120549   5.150   2.154   1.824
 6769WAT     H220550   5.209   2.161   1.976
 6770WAT      O20551   4.062   8.132   3.834
 6770WAT     H120552   3.985   8.195   3.821
 6770WAT     H220553   4.112   8.157   3.917
 6771WAT      O20554   6.344   7.009   4.950
 6771WAT     H120555   6.336   7.091   4.894
 6771WAT     H220556   6.417   6.951   4.915
 6772WAT      O20557   6.869   9.439   8.554
 6772WAT     H120558   6.871   9.367   8.485
 6772WAT     H220559   6.933   9.416   8.628
 6773WAT      O20560   0.523   7.147   0.346
 6773WAT     H120561   0.424   7.155   0.333
 6773WAT     H220562   0.542   7.075   0.412
 6774WAT      O20563   7.762   2.185   8.415
 6774WAT     H120564   7.844   2.226   8.455
 6774WAT     H220565   7.785   2.099   8.371
 6775WAT      O20566   8.911   4.163   6.460
 6775WAT     H120567   8.982   4.186   6.393
 6775WAT     H220568   8.872   4.248   6.497
 6776WAT      O20569   3.480   4.902   5.770
 6776WAT     H120570   3.487   4.833   5.698
 6776WAT     H220571   3.555   4.968   5.760
 6777WAT      O20572   8.590   9.078   1.095
 6777WAT     H120573   8.565   9.115   1.005
 6777WAT     H220574   8.507   9.061   1.148
 6778WAT      O20575   9.434   2.907   4.503
 6778WAT     H120576   9.468   2.820   4.467
 6778WAT     H220577   9.349   2.891   4.553
 6779WAT      O20578   5.291   8.611   9.391
 6779WAT     H120579   5.246   8.674   9.328
 6779WAT     H220580   5.359   8.662   9.444
 6780WAT      O20581   9.617   6.501   9.614
 6780WAT     H120582   9.517   6.505   9.611
 6780WAT     H220583   9.652   6.466   9.526
 6781WAT      O20584   4.114   6.855   8.361
 6781WAT     H120585   4.191   6.829   8.303
 6781WAT     H220586   4.061   6.927   8.315
 6782WAT      O20587   3.934   6.940   1.013
 6782WAT     H120588   3.907   7.002   1.086
 6782WAT     H220589   3.909   6.846   1.037
 6783WAT      O20590   6.016   4.845   7.655
 6783WAT     H120591   5.916   4.856   7.655
 6783WAT     H220592   6.042   4.781   7.582
 6784WAT      O20593   5.816   5.755   2.969
 6784WAT     H120594   5.823   5.821   3.044
 6784WAT     H220595   5.865   5.789   2.889
 6785WAT      O20596   6.946   4.263   3.846
 6785WAT     H120597   6.858   4.219   3.867
 6785WAT     H220598   7.002   4.201   3.791
 6786WAT      O20599   2.350   9.399   6.204
 6786WAT     H120600   2.376   9.326   6.140
 6786WAT     H220601   2.263   9.376   6.247
 6787WAT      O20602   5.229   3.659   5.280
 6787WAT     H120603   5.215   3.734   5.216
 6787WAT     H220604   5.275   3.693   5.362
 6788WAT      O20605   6.229   4.199   6.238
 6788WAT     H120606   6.213   4.272   6.173
 6788WAT     H220607   6.200   4.228   6.329
 6789WAT      O20608   6.755   0.323   6.469
 6789WAT     H120609   6.703   0.396   6.423
 6789WAT     H220610   6.816   0.279   6.403
 6790WAT      O20611   3.461   7.840   0.769
 6790WAT     H120612   3.466   7.744   0.741
 6790WAT     H220613   3.533   7.892   0.724
 6791WAT      O20614   3.350   6.850   0.200
 6791WAT     H120615   3.340   6.815   0.107
 6791WAT     H220616   3.271   6.907   0.223
 6792WAT      O20617   1.153   7.293   0.759
 6792WAT     H120618   1.110   7.353   0.692
 6792WAT     H220619   1.087   7.226   0.792
 6793WAT      O20620   7.492   6.472   1.142
 6793WAT     H120621   7.505   6.378   1.176
 6793WAT     H220622   7.580   6.508   1.113
 6794WAT      O20623   9.858   8.985   1.275
 6794WAT     H120624   9.866   8.987   1.175
 6794WAT     H220625   9.829   8.894   1.304
 6795WAT      O20626   4.541   7.121   6.603
 6795WAT     H120627   4.514   7.194   6.665
 6795WAT     H220628   4.600   7.159   6.531
 6796WAT      O20629   1.118   6.490   1.438
 6796WAT     H120630   1.068   6.555   1.496
 6796WAT     H220631   1.055   6.417   1.410
 6797WAT      O20632   5.123   5.137   2.339
 6797WAT     H120633   5.058   5.203   2.302
 6797WAT     H220634   5.189   5.184   2.397
 6798WAT      O20635   3.091   1.681   8.107
 6798WAT     H120636   3.191   1.680   8.103
 6798WAT     H220637   3.059   1.598   8.151
 6799WAT      O20638   9.470   0.923   9.227
 6799WAT     H120639   9.519   0.921   9.140
 6799WAT     H220640   9.439   0.831   9.250
 6800WAT      O20641   8.755   3.797   8.509
 6800WAT     H120642   8.670   3.784   8.558
 6800WAT     H220643   8.754   3.743   8.425
 6801WAT      O20644   5.684   3.650   6.534
 6801WAT     H120645   5.636   3.738   6.536
 6801WAT     H220646   5.728   3.635   6.622
 6802WAT      O20647   1.843   2.942   6.720
 6802WAT     H120648   1.914   2.916   6.786
 6802WAT     H220649   1.753   2.914   6.754
 6803WAT      O20650   0.969   5.127   7.395
 6803WAT     H120651   1.037   5.136   7.322
 6803WAT     H220652   0.900   5.199   7.386
 6804WAT      O20653   6.996   8.031   5.224
 6804WAT     H120654   7.006   8.076   5.312
 6804WAT     H220655   7.015   7.933   5.234
 6805WAT      O20656   1.206   7.866   7.909
 6805WAT     H120657   1.262   7.784   7.902
 6805WAT     H220658   1.123   7.846   7.962
 6806WAT      O20659   8.776   0.955   4.865
 6806WAT     H120660   8.773   1.051   4.837
 6806WAT     H220661   8.720   0.900   4.801
 6807WAT      O20662   0.868   0.666   0.525
 6807WAT     H120663   0.928   0.587   0.514
 6807WAT     H220664   0.922   0.746   0.552
 6808WAT      O20665   6.560   7.791   7.498
 6808WAT     H120666   6.606   7.813   7.412
 6808WAT     H220667   6.548   7.692   7.504
 6809WAT      O20668   0.815   8.438   0.728
 6809WAT     H120669   0.792   8.471   0.636
 6809WAT     H220670   0.741   8.463   0.791
 6810WAT      O20671   2.783   9.342   6.028
 6810WAT     H120672   2.781   9.434   5.988
 6810WAT     H220673   2.858   9.290   5.988
 6811WAT      O20674   1.976   4.339   4.991
 6811WAT     H120675   1.927   4.424   5.014
 6811WAT     H220676   1.978   4.328   4.892
 6812WAT      O20677   2.142   3.140   6.986
 6812WAT     H120678   2.144   3.136   6.887
 6812WAT     H220679   2.158   3.234   7.016
 6813WAT      O20680   2.510   8.477   4.892
 6813WAT     H120681   2.559   8.400   4.850
 6813WAT     H220682   2.425   8.493   4.842
 6814WAT      O20683   7.457   4.882   8.984
 6814WAT     H120684   7.397   4.860   8.907
 6814WAT     H220685   7.436   4.975   9.016
 6815WAT      O20686   5.702   9.373   7.467
 6815WAT     H120687   5.643   9.422   7.402
 6815WAT     H220688   5.684   9.275   7.460
 6816WAT      O20689   5.657   9.327   8.175
 6816WAT     H120690   5.678   9.358   8.083
 6816WAT     H220691   5.731   9.270   8.210
 6817WAT      O20692   4.426   6.561   4.871
 6817WAT     H120693   4.477   6.639   4.833
 6817WAT     H220694   4.460   6.476   4.831
 6818WAT      O20695   7.248   1.186   4.883
 6818WAT     H120696   7.173   1.167   4.820
 6818WAT     H220697   7.225   1.150   4.974
 6819WAT      O20698   6.165   2.824   1.943
 6819WAT     H120699   6.066   2.830   1.955
 6819WAT     H220700   6.185   2.778   1.856
 6820WAT      O20701   4.368   0.694   0.330
 6820WAT     H120702   4.402   0.702   0.236
 6820WAT     H220703   4.434   0.641   0.384
 6821WAT      O20704   2.005   0.777   0.619
 6821WAT     H120705   1.930   0.712   0.609
 6821WAT     H220706   2.085   0.729   0.657
 6822WAT      O20707   5.974   0.779   5.815
 6822WAT     H120708   6.027   0.799   5.897
 6822WAT     H220709   5.910   0.854   5.797
 6823WAT      O20710   5.533   9.187   7.027
 6823WAT     H120711   5.469   9.192   7.104
 6823WAT     H220712   5.590   9.106   7.036
 6824WAT      O20713   5.445   2.367   3.066
 6824WAT     H120714   5.439   2.429   3.145
 6824WAT     H220715   5.507   2.406   2.998
 6825WAT      O20716   7.753   7.129   7.289
 6825WAT     H120717   7.763   7.037   7.327
 6825WAT     H220718   7.737   7.194   7.363
 6826WAT      O20719   7.595   2.710   9.824
 6826WAT     H120720   7.563   2.642   9.758
 6826WAT     H220721   7.625   2.792   9.775
 6827WAT      O20722   2.423   3.512   6.194
 6827WAT     H120723   2.489   3.487   6.265
 6827WAT     H220724   2.340   3.457   6.206
 6828WAT      O20725   8.760   6.302   8.230
 6828WAT     H120726   8.787   6.242   8.306
 6828WAT     H220727   8.827   6.294   8.156
 6829WAT      O20728   1.800   9.829   2.317
 6829WAT     H120729   1.862   9.830   2.395
 6829WAT     H220730   1.817   9.909   2.260
 6830WAT      O20731   7.128   8.641   0.458
 6830WAT     H120732   7.211   8.595   0.491
 6830WAT     H220733   7.153   8.712   0.392
 6831WAT      O20734   9.529   3.840   2.233
 6831WAT     H120735   9.577   3.841   2.146
 6831WAT     H220736   9.433   3.816   2.218
 6832WAT      O20737   8.476   5.783   1.798
 6832WAT     H120738   8.574   5.791   1.778
 6832WAT     H220739   8.434   5.722   1.731
 6833WAT      O20740   3.484   4.606   7.515
 6833WAT     H120741   3.471   4.705   7.517
 6833WAT     H220742   3.541   4.582   7.436
 6834WAT      O20743   2.370   8.731   8.239
 6834WAT     H120744   2.296   8.737   8.306
 6834WAT     H220745   2.399   8.636   8.230
 6835WAT      O20746   9.196   5.108   0.897
 6835WAT     H120747   9.288   5.105   0.858
 6835WAT     H220748   9.203   5.106   0.997
 6836WAT      O20749   6.971   0.275   9.415
 6836WAT     H120750   6.873   0.289   9.433
 6836WAT     H220751   6.997   0.184   9.447
 6837WAT      O20752   8.105   8.390   6.912
 6837WAT     H120753   8.107   8.300   6.869
 6837WAT     H220754   8.165   8.390   6.992
 6838WAT      O20755   3.272   6.628   4.445
 6838WAT     H120756   3.346   6.572   4.481
 6838WAT     H220757   3.260   6.709   4.503
 6839WAT      O20758   4.878   2.161   2.582
 6839WAT     H120759   4.875   2.234   2.514
 6839WAT     H220760   4.966   2.114   2.577
 6840WAT      O20761   8.847   2.304   7.560
 6840WAT     H120762   8.748   2.317   7.547
 6840WAT     H220763   8.872   2.213   7.525
 6841WAT      O20764   4.909   8.438   9.515
 6841WAT     H120765   4.844   8.490   9.569
 6841WAT     H220766   4.996   8.430   9.565
 6842WAT      O20767   9.850   7.084   2.201
 6842WAT     H120768   9.791   7.134   2.138
 6842WAT     H220769   9.816   7.094   2.294
 6843WAT      O20770   5.363   1.485   1.090
 6843WAT     H120771   5.310   1.538   1.156
 6843WAT     H220772   5.385   1.396   1.130
 6844WAT      O20773   6.834   9.360   9.839
 6844WAT     H120774   6.893   9.317   9.908
 6844WAT     H220775   6.820   9.297   9.763
 6845WAT      O20776   6.581   0.617   5.928
 6845WAT     H120777   6.568   0.708   5.890
 6845WAT     H220778   6.493   0.582   5.962
 6846WAT      O20779   1.809   7.025   8.709
 6846WAT     H120780   1.765   7.113   8.695
 6846WAT     H220781   1.907   7.033   8.692
 6847WAT      O20782   6.810   6.412   9.753
 6847WAT     H120783   6.799   6.508   9.727
 6847WAT     H220784   6.721   6.372   9.771
 6848WAT      O20785   7.138   4.755   6.204
 6848WAT     H120786   7.079   4.717   6.132
 6848WAT     H220787   7.232   4.757   6.172
 6849WAT      O20788   5.645   3.661   0.771
 6849WAT     H120789   5.552   3.692   0.752
 6849WAT     H220790   5.710   3.721   0.725
 6850WAT      O20791   8.932   4.945   1.645
 6850WAT     H120792   9.005   4.908   1.703
 6850WAT     H220793   8.857   4.879   1.642
 6851WAT      O20794   0.926   5.970   7.391
 6851WAT     H120795   1.014   5.970   7.345
 6851WAT     H220796   0.883   6.060   7.382
 6852WAT      O20797   7.270   7.672   7.621
 6852WAT     H120798   7.250   7.694   7.525
 6852WAT     H220799   7.310   7.581   7.627
 6853WAT      O20800   2.467   7.426   6.441
 6853WAT     H120801   2.539   7.491   6.466
 6853WAT     H220802   2.496   7.372   6.362
 6854WAT      O20803   9.308   3.262   2.826
 6854WAT     H120804   9.383   3.283   2.763
 6854WAT     H220805   9.221   3.282   2.782
 6855WAT      O20806   6.788   5.700   6.033
 6855WAT     H120807   6.853   5.624   6.039
 6855WAT     H220808   6.712   5.674   5.973
 6856WAT      O20809   2.553   3.541   6.998
 6856WAT     H120810   2.500   3.595   7.064
 6856WAT     H220811   2.510   3.451   6.988
 6857WAT      O20812   3.090   0.927   2.035
 6857WAT     H120813   3.140   1.009   2.064
 6857WAT     H220814   3.009   0.954   1.984
 6858WAT      O20815   6.055   0.095   6.183
 6858WAT     H120816   6.006   0.008   6.177
 6858WAT     H220817   5.994   0.165   6.217
 6859WAT      O20818   1.005   6.310   4.938
 6859WAT     H120819   0.934   6.273   4.998
 6859WAT     H220820   1.039   6.237   4.879
 6860WAT      O20821   6.973   4.290   9.501
 6860WAT     H120822   6.935   4.213   9.551
 6860WAT     H220823   6.915   4.371   9.515
 6861WAT      O20824   7.641   0.856   3.741
 6861WAT     H120825   7.740   0.859   3.725
 6861WAT     H220826   7.595   0.824   3.658
 6862WAT      O20827   9.231   2.716   7.763
 6862WAT     H120828   9.289   2.793   7.789
 6862WAT     H220829   9.135   2.740   7.780
 6863WAT      O20830   5.636   4.933   9.537
 6863WAT     H120831   5.639   4.834   9.527
 6863WAT     H220832   5.595   4.956   9.626
 6864WAT      O20833   5.016   5.692   8.038
 6864WAT     H120834   4.998   5.594   8.053
 6864WAT     H220835   4.956   5.746   8.096
 6865WAT      O20836   4.450   6.216   3.398
 6865WAT     H120837   4.386   6.282   3.359
 6865WAT     H220838   4.525   6.200   3.334
 6866WAT      O20839   7.163   0.169   9.225
 6866WAT     H120840   7.106   0.101   9.179
 6866WAT     H220841   7.113   0.207   9.303
 6867WAT      O20842   6.094   0.446   4.020
 6867WAT     H120843   5.999   0.453   3.989
 6867WAT     H220844   6.104   0.492   4.109
 6868WAT      O20845   9.802   0.751   1.450
 6868WAT     H120846   9.900   0.732   1.446
 6868WAT     H220847   9.781   0.829   1.392
 6869WAT      O20848   8.184   9.312   8.466
 6869WAT     H120849   8.226   9.225   8.443
 6869WAT     H220850   8.250   9.368   8.517
 6870WAT      O20851   2.500   7.485   8.862
 6870WAT     H120852   2.595   7.514   8.872
 6870WAT     H220853   2.472   7.494   8.767
 6871WAT      O20854   2.468   9.681   9.600
 6871WAT     H120855   2.538   9.613   9.575
 6871WAT     H220856   2.495   9.770   9.564
 6872WAT      O20857   4.510   2.314   0.385
 6872WAT     H120858   4.508   2.214   0.390
 6872WAT     H220859   4.602   2.346   0.409
 6873WAT      O20860   9.436   5.797   1.211
 6873WAT     H120861   9.359   5.858   1.227
 6873WAT     H220862   9.403   5.703   1.203
 6874WAT      O20863   7.108   0.121   6.712
 6874WAT     H120864   7.141   0.062   6.786
 6874WAT     H220865   7.091   0.065   6.631
 6875WAT      O20866   2.584   1.870   7.867
 6875WAT     H120867   2.648   1.803   7.903
 6875WAT     H220868   2.567   1.852   7.770
 6876WAT      O20869   5.242   5.785   9.813
 6876WAT     H120870   5.309   5.717   9.843
 6876WAT     H220871   5.265   5.817   9.721
 6877WAT      O20872   5.822   7.016   2.603
 6877WAT     H120873   5.877   6.960   2.540
 6877WAT     H220874   5.741   7.050   2.555
 6878WAT      O20875   3.933   5.811   9.329
 6878WAT     H120876   3.997   5.734   9.322
 6878WAT     H220877   3.921   5.835   9.425
 6879WAT      O20878   8.852   6.311   1.419
 6879WAT     H120879   8.922   6.371   1.379
 6879WAT     H220880   8.762   6.341   1.390
 6880WAT      O20881   6.545   7.184   8.839
 6880WAT     H120882   6.445   7.188   8.851
 6880WAT     H220883   6.584   7.274   8.861
 6881WAT      O20884   1.483   9.266   3.212
 6881WAT     H120885   1.568   9.281   3.262
 6881WAT     H220886   1.467   9.343   3.150
 6882WAT      O20887   3.088   6.245   8.245
 6882WAT     H120888   3.026   6.177   8.285
 6882WAT     H220889   3.054   6.337   8.266
 6883WAT      O20890   9.244   7.774   5.136
 6883WAT     H120891   9.227   7.863   5.179
 6883WAT     H220892   9.334   7.775   5.092
 6884WAT      O20893   2.659   9.682   0.868
 6884WAT     H120894   2.738   9.713   0.921
 6884WAT     H220895   2.660   9.583   0.859
 6885WAT      O20896   1.402   7.193   3.770
 6885WAT     H120897   1.376   7.266   3.706
 6885WAT     H220898   1.361   7.107   3.741
 6886WAT      O20899   2.454   8.661   9.861
 6886WAT     H120900   2.373   8.711   9.891
 6886WAT     H220901   2.443   8.564   9.881
 6887WAT      O20902   7.120   7.290   7.112
 6887WAT     H120903   7.022   7.272   7.127
 6887WAT     H220904   7.132   7.383   7.079
 6888WAT      O20905   7.201   3.230   0.832
 6888WAT     H120906   7.239   3.276   0.752
 6888WAT     H220907   7.169   3.138   0.806
 6889WAT      O20908   0.147   7.775   5.709
 6889WAT     H120909   0.190   7.685   5.704
 6889WAT     H220910   0.218   7.845   5.705
 6890WAT      O20911   0.513   6.442   2.962
 6890WAT     H120912   0.477   6.352   2.937
 6890WAT     H220913   0.484   6.464   3.055
 6891WAT      O20914   1.986   3.462   3.187
 6891WAT     H120915   2.081   3.444   3.161
 6891WAT     H220916   1.981   3.550   3.236
 6892WAT      O20917   5.734   0.815   7.933
 6892WAT     H120918   5.680   0.869   7.997
 6892WAT     H220919   5.691   0.725   7.920
 6893WAT      O20920   5.243   4.558   1.781
 6893WAT     H120921   5.310   4.520   1.718
 6893WAT     H220922   5.283   4.562   1.873
 6894WAT      O20923   8.120   3.668   4.846
 6894WAT     H120924   8.156   3.578   4.872
 6894WAT     H220925   8.186   3.714   4.788
 6895WAT      O20926   2.875   0.063   6.671
 6895WAT     H120927   2.902   0.097   6.761
 6895WAT     H220928   2.952   0.013   6.630
 6896WAT      O20929   7.375   8.595   0.005
 6896WAT     H120930   7.290   8.549  -0.019
 6896WAT     H220931   7.361   8.694   0.006
 6897WAT      O20932   0.853   3.601   8.340
 6897WAT     H120933   0.941   3.604   8.387
 6897WAT     H220934   0.785   3.651   8.393
 6898WAT      O20935   5.167   1.859   6.115
 6898WAT     H120936   5.124   1.939   6.073
 6898WAT     H220937   5.111   1.778   6.096
 6899WAT      O20938   5.126   3.007   5.572
 6899WAT     H120939   5.203   3.048   5.523
 6899WAT     H220940   5.041   3.054   5.548
 6900WAT      O20941   5.226   7.979   8.026
 6900WAT     H120942   5.136   8.016   8.002
 6900WAT     H220943   5.292   8.004   7.955
 6901WAT      O20944   9.045   9.806   0.118
 6901WAT     H120945   9.135   9.764   0.132
 6901WAT     H220946   9.035   9.884   0.178
 6902WAT      O20947   9.611   0.633   4.015
 6902WAT     H120948   9.537   0.585   4.063
 6902WAT     H220949   9.697   0.584   4.030
 6903WAT      O20950   8.264   2.786   2.497
 6903WAT     H120951   8.326   2.852   2.540
 6903WAT     H220952   8.185   2.834   2.458
 6904WAT      O20953   4.974   4.865   6.210
 6904WAT     H120954   5.074   4.873   6.206
 6904WAT     H220955   4.934   4.955   6.222
 6905WAT      O20956   8.522   2.931   8.244
 6905WAT     H120957   8.511   3.026   8.217
 6905WAT     H220958   8.436   2.895   8.279
 6906WAT      O20959   0.025   0.631   0.143
 6906WAT     H120960  -0.012   0.710   0.192
 6906WAT     H220961  -0.026   0.549   0.169
 6907WAT      O20962   0.683   0.247   9.330
 6907WAT     H120963   0.585   0.265   9.323
 6907WAT     H220964   0.698   0.153   9.361
 6908WAT      O20965   4.085   2.937   1.860
 6908WAT     H120966   4.076   2.838   1.847
 6908WAT     H220967   4.019   2.984   1.802
 6909WAT      O20968   7.256   2.650   1.963
 6909WAT     H120969   7.325   2.599   2.013
 6909WAT     H220970   7.172   2.596   1.958
 6910WAT      O20971   2.658   8.960   5.498
 6910WAT     H120972   2.563   8.973   5.528
 6910WAT     H220973   2.681   8.863   5.503
 6911WAT      O20974   5.915   3.687   2.400
 6911WAT     H120975   5.878   3.709   2.491
 6911WAT     H220976   5.849   3.714   2.330
 6912WAT      O20977   3.377   8.320   3.110
 6912WAT     H120978   3.378   8.385   3.033
 6912WAT     H220979   3.466   8.320   3.155
 6913WAT      O20980   9.534   3.088   6.423
 6913WAT     H120981   9.618   3.069   6.371
 6913WAT     H220982   9.557   3.136   6.508
 6914WAT      O20983   4.214   0.886   2.689
 6914WAT     H120984   4.242   0.878   2.593
 6914WAT     H220985   4.120   0.855   2.699
 6915WAT      O20986   4.063   5.005   0.693
 6915WAT     H120987   4.090   5.101   0.696
 6915WAT     H220988   4.052   4.970   0.786
 6916WAT      O20989   6.019   1.467   9.736
 6916WAT     H120990   5.982   1.483   9.644
 6916WAT     H220991   6.104   1.415   9.729
 6917WAT      O20992   5.907   8.185   3.632
 6917WAT     H120993   5.837   8.125   3.671
 6917WAT     H220994   5.993   8.135   3.624
 6918WAT      O20995   7.590   4.306   8.025
 6918WAT     H120996   7.614   4.402   8.011
 6918WAT     H220997   7.659   4.247   7.983
 6919WAT      O20998   2.247   8.067   7.748
 6919WAT     H120999   2.176   8.001   7.774
 6919WAT     H221000   2.312   8.023   7.686
 6920WAT      O21001   1.317   5.998   0.541
 6920WAT     H121002   1.328   5.899   0.545
 6920WAT     H221003   1.236   6.020   0.487
 6921WAT      O21004   4.625   8.911   7.960
 6921WAT     H121005   4.610   8.892   8.057
 6921WAT     H221006   4.674   8.998   7.950
 6922WAT      O21007   3.063   3.701   7.978
 6922WAT     H121008   3.098   3.614   8.012
 6922WAT     H221009   3.022   3.688   7.888
 6923WAT      O21010   6.266   8.644   0.110
 6923WAT     H121011   6.199   8.607   0.046
 6923WAT     H221012   6.289   8.738   0.084
 6924WAT      O21013   3.197   7.733   4.445
 6924WAT     H121014   3.123   7.674   4.413
 6924WAT     H221015   3.282   7.682   4.446
 6925WAT      O21016   5.567   6.244   3.820
 6925WAT     H121017   5.594   6.164   3.874
 6925WAT     H221018   5.523   6.214   3.736
 6926WAT      O21019   4.004   2.277   3.679
 6926WAT     H121020   3.913   2.287   3.721
 6926WAT     H221021   4.043   2.367   3.663
 6927WAT      O21022   8.220   3.274   0.204
 6927WAT     H121023   8.232   3.228   0.116
 6927WAT     H221024   8.281   3.233   0.272
 6928WAT      O21025   8.123   0.873   0.039
 6928WAT     H121026   8.160   0.880  -0.054
 6928WAT     H221027   8.023   0.864   0.035
 6929WAT      O21028   8.234   0.390   4.862
 6929WAT     H121029   8.231   0.488   4.841
 6929WAT     H221030   8.319   0.351   4.828
 6930WAT      O21031   2.678   6.361   4.703
 6930WAT     H121032   2.631   6.280   4.740
 6930WAT     H221033   2.630   6.444   4.733
 6931WAT      O21034   2.480   9.696   5.907
 6931WAT     H121035   2.509   9.773   5.964
 6931WAT     H221036   2.443   9.731   5.821
 6932WAT      O21037   5.621   5.045   3.021
 6932WAT     H121038   5.534   5.042   2.972
 6932WAT     H221039   5.694   5.014   2.961
 6933WAT      O21040   4.855   8.184   4.233
 6933WAT     H121041   4.870   8.261   4.171
 6933WAT     H221042   4.813   8.108   4.182
 6934WAT      O21043   2.035   8.898   9.074
 6934WAT     H121044   2.034   8.804   9.040
 6934WAT     H221045   1.941   8.929   9.089
 6935WAT      O21046   6.713   6.009   2.365
 6935WAT     H121047   6.653   6.007   2.285
 6935WAT     H221048   6.805   6.033   2.337
 6936WAT      O21049   3.235   8.469   9.308
 6936WAT     H121050   3.238   8.394   9.242
 6936WAT     H221051   3.191   8.548   9.266
 6937WAT      O21052   1.406   6.768   7.094
 6937WAT     H121053   1.497   6.778   7.134
 6937WAT     H221054   1.348   6.716   7.157
 6938WAT      O21055   2.474   7.984   1.818
 6938WAT     H121056   2.569   8.000   1.792
 6938WAT     H221057   2.440   7.902   1.773
 6939WAT      O21058   9.803   2.483   9.685
 6939WAT     H121059   9.739   2.414   9.719
 6939WAT     H221060   9.815   2.554   9.754
 6940WAT      O21061   2.671   0.067   2.233
 6940WAT     H121062   2.577   0.097   2.250
 6940WAT     H221063   2.734   0.136   2.266
 6941WAT      O21064   7.276   1.216   0.953
 6941WAT     H121065   7.196   1.275   0.955
 6941WAT     H221066   7.295   1.182   1.046
 6942WAT      O21067   2.684   3.172   4.348
 6942WAT     H121068   2.658   3.089   4.398
 6942WAT     H221069   2.622   3.246   4.372
 6943WAT      O21070   8.084   7.985   0.152
 6943WAT     H121071   8.026   7.984   0.233
 6943WAT     H221072   8.087   8.078   0.115
 6944WAT      O21073   3.872   6.467   4.845
 6944WAT     H121074   3.848   6.493   4.939
 6944WAT     H221075   3.970   6.481   4.831
 6945WAT      O21076   7.873   8.879   5.531
 6945WAT     H121077   7.971   8.866   5.545
 6945WAT     H221078   7.826   8.875   5.619
 6946WAT      O21079   9.225   0.781   3.715
 6946WAT     H121080   9.291   0.780   3.640
 6946WAT     H221081   9.137   0.746   3.683
 6947WAT      O21082   2.217   8.837   6.332
 6947WAT     H121083   2.238   8.766   6.264
 6947WAT     H221084   2.119   8.853   6.334
 6948WAT      O21085   0.997   3.810   3.551
 6948WAT     H121086   0.977   3.715   3.525
 6948WAT     H221087   1.069   3.811   3.621
 6949WAT      O21088   2.914   7.547   3.391
 6949WAT     H121089   2.952   7.484   3.459
 6949WAT     H221090   2.946   7.522   3.300
 6950WAT      O21091   0.722   7.153   4.316
 6950WAT     H121092   0.636   7.125   4.359
 6950WAT     H221093   0.702   7.194   4.227
 6951WAT      O21094   5.727   3.385   6.179
 6951WAT     H121095   5.698   3.302   6.132
 6951WAT     H221096   5.666   3.402   6.257
 6952WAT      O21097   8.318   7.334   4.078
 6952WAT     H121098   8.364   7.267   4.020
 6952WAT     H221099   8.269   7.286   4.151
 6953WAT      O21100   4.639   8.465   4.727
 6953WAT     H121101   4.616   8.412   4.808
 6953WAT     H221102   4.597   8.556   4.734
 6954WAT      O21103   0.476   5.688   1.034
 6954WAT     H121104   0.559   5.634   1.016
 6954WAT     H221105   0.402   5.655   0.976
 6955WAT      O21106   7.904   5.790   9.482
 6955WAT     H121107   7.996   5.762   9.454
 6955WAT     H221108   7.904   5.888   9.502
 6956WAT      O21109   1.709   3.653   6.554
 6956WAT     H121110   1.632   3.606   6.512
 6956WAT     H221111   1.687   3.674   6.649
 6957WAT      O21112   0.780   7.074   0.576
 6957WAT     H121113   0.800   7.171   0.560
 6957WAT     H221114   0.681   7.058   0.567
 6958WAT      O21115   1.057   3.345   4.314
 6958WAT     H121116   1.065   3.380   4.221
 6958WAT     H221117   0.979   3.389   4.360
 6959WAT      O21118   8.132   2.324   2.013
 6959WAT     H121119   8.185   2.257   1.961
 6959WAT     H221120   8.132   2.411   1.964
 6960WAT      O21121   8.837   6.914   0.308
 6960WAT     H121122   8.738   6.912   0.293
 6960WAT     H221123   8.858   6.871   0.395
 6961WAT      O21124   5.110   2.576   6.951
 6961WAT     H121125   5.058   2.493   6.932
 6961WAT     H221126   5.097   2.641   6.877
 6962WAT      O21127   8.145   2.065   9.169
 6962WAT     H121128   8.061   2.098   9.126
 6962WAT     H221129   8.122   2.022   9.257
 6963WAT      O21130   0.929   6.436   5.272
 6963WAT     H121131   0.959   6.510   5.332
 6963WAT     H221132   0.959   6.455   5.178
 6964WAT      O21133   1.299   3.430   6.531
 6964WAT     H121134   1.367   3.435   6.458
 6964WAT     H221135   1.232   3.360   6.509
 6965WAT      O21136   7.382   4.725   9.629
 6965WAT     H121137   7.328   4.711   9.711
 6965WAT     H221138   7.329   4.697   9.549
 6966WAT      O21139   3.101   0.700   6.905
 6966WAT     H121140   3.044   0.703   6.986
 6966WAT     H221141   3.196   0.715   6.930
 6967WAT      O21142   2.755   6.067   4.134
 6967WAT     H121143   2.812   6.059   4.216
 6967WAT     H221144   2.778   6.151   4.085
 6968WAT      O21145   0.629   4.570   5.557
 6968WAT     H121146   0.714   4.536   5.599
 6968WAT     H221147   0.648   4.598   5.463
 6969WAT      O21148   0.945   1.446   9.631
 6969WAT     H121149   1.027   1.423   9.579
 6969WAT     H221150   0.953   1.538   9.668
 6970WAT      O21151   1.183   8.053   3.697
 6970WAT     H121152   1.088   8.081   3.706
 6970WAT     H221153   1.205   8.040   3.600
 6971WAT      O21154   6.780   9.838   9.503
 6971WAT     H121155   6.760   9.818   9.599
 6971WAT     H221156   6.761   9.935   9.484
 6972WAT      O21157   4.857   6.200   6.667
 6972WAT     H121158   4.954   6.225   6.678
 6972WAT     H221159   4.819   6.252   6.590
 6973WAT      O21160   8.591   5.027   3.304
 6973WAT     H121161   8.560   5.007   3.211
 6973WAT     H221162   8.690   5.039   3.304
 6974WAT      O21163   7.885   8.412   8.677
 6974WAT     H121164   7.866   8.316   8.660
 6974WAT     H221165   7.799   8.464   8.672
 6975WAT      O21166   8.740   5.992   3.833
 6975WAT     H121167   8.786   6.031   3.913
 6975WAT     H221168   8.663   6.050   3.807
 6976WAT      O21169   3.845   5.366   6.266
 6976WAT     H121170   3.936   5.405   6.250
 6976WAT     H221171   3.775   5.433   6.243
 6977WAT      O21172   1.178   1.929   5.914
 6977WAT     H121173   1.152   1.855   5.977
 6977WAT     H221174   1.218   1.889   5.832
 6978WAT      O21175   6.000   5.938   3.689
 6978WAT     H121176   5.939   5.988   3.627
 6978WAT     H221177   6.086   5.918   3.642
 6979WAT      O21178   2.771   4.172   8.606
 6979WAT     H121179   2.803   4.079   8.591
 6979WAT     H221180   2.794   4.201   8.699
 6980WAT      O21181   2.930   4.463   0.574
 6980WAT     H121182   3.000   4.401   0.538
 6980WAT     H221183   2.941   4.471   0.674
 6981WAT      O21184   9.106   3.406   0.497
 6981WAT     H121185   9.202   3.421   0.477
 6981WAT     H221186   9.096   3.331   0.562
 6982WAT      O21187   4.712   8.452   0.985
 6982WAT     H121188   4.688   8.377   0.924
 6982WAT     H221189   4.751   8.415   1.070
 6983WAT      O21190   0.541   5.974   7.533
 6983WAT     H121191   0.549   5.984   7.433
 6983WAT     H221192   0.462   6.026   7.565
 6984WAT      O21193   5.480   3.892   9.854
 6984WAT     H121194   5.577   3.878   9.873
 6984WAT     H221195   5.463   3.990   9.844
 6985WAT      O21196   2.734   9.095   7.449
 6985WAT     H121197   2.638   9.075   7.432
 6985WAT     H221198   2.766   9.041   7.527
 6986WAT      O21199   9.435   5.425   9.057
 6986WAT     H121200   9.531   5.416   9.083
 6986WAT     H221201   9.424   5.397   8.961
 6987WAT      O21202   3.644   8.226   7.505
 6987WAT     H121203   3.578   8.301   7.513
 6987WAT     H221204   3.609   8.145   7.551
 6988WAT      O21205   6.004   1.207   0.241
 6988WAT     H121206   5.974   1.126   0.291
 6988WAT     H221207   5.935   1.279   0.250
 6989WAT      O21208   0.227   2.091   7.101
 6989WAT     H121209   0.187   2.028   7.168
 6989WAT     H221210   0.326   2.091   7.110
 6990WAT      O21211   3.476   6.819   6.601
 6990WAT     H121212   3.395   6.851   6.551
 6990WAT     H221213   3.447   6.773   6.685
 6991WAT      O21214   4.025   7.558   7.681
 6991WAT     H121215   3.937   7.538   7.638
 6991WAT     H221216   4.013   7.631   7.749
 6992WAT      O21217   8.869   4.074   2.296
 6992WAT     H121218   8.821   4.160   2.276
 6992WAT     H221219   8.907   4.037   2.211
 6993WAT      O21220   8.471   1.984   1.629
 6993WAT     H121221   8.394   1.925   1.607
 6993WAT     H221222   8.498   2.035   1.546
 6994WAT      O21223   8.758   4.967   8.363
 6994WAT     H121224   8.805   4.879   8.369
 6994WAT     H221225   8.682   4.960   8.299
 6995WAT      O21226   3.967   3.109   2.647
 6995WAT     H121227   3.928   3.079   2.734
 6995WAT     H221228   3.957   3.208   2.638
 6996WAT      O21229   6.693   2.372   0.738
 6996WAT     H121230   6.608   2.356   0.788
 6996WAT     H221231   6.770   2.350   0.796
 6997WAT      O21232   4.374   8.711   1.284
 6997WAT     H121233   4.333   8.794   1.245
 6997WAT     H221234   4.460   8.735   1.329
 6998WAT      O21235   6.239   5.935   0.658
 6998WAT     H121236   6.170   6.003   0.634
 6998WAT     H221237   6.237   5.861   0.591
 6999WAT      O21238   8.471   2.910   0.273
 6999WAT     H121239   8.425   2.996   0.296
 6999WAT     H221240   8.569   2.919   0.291
 7000WAT      O21241   1.099   6.682   6.414
 7000WAT     H121242   1.098   6.736   6.498
 7000WAT     H221243   1.009   6.640   6.401
 7001WAT      O21244   7.238   0.796   5.268
 7001WAT     H121245   7.216   0.843   5.353
 7001WAT     H221246   7.164   0.810   5.202
 7002WAT      O21247   3.640   2.945   8.334
 7002WAT     H121248   3.691   3.012   8.280
 7002WAT     H221249   3.543   2.950   8.310
 7003WAT      O21250   8.989   0.278   2.815
 7003WAT     H121251   9.008   0.374   2.798
 7003WAT     H221252   9.031   0.222   2.744
 7004WAT      O21253   3.402   0.037   3.739
 7004WAT     H121254   3.358   0.067   3.823
 7004WAT     H221255   3.476   0.101   3.715
 7005WAT      O21256   7.028   4.680   8.231
 7005WAT     H121257   7.037   4.629   8.317
 7005WAT     H221258   7.114   4.676   8.181
 7006WAT      O21259   4.888   9.696   0.044
 7006WAT     H121260   4.897   9.601   0.074
 7006WAT     H221261   4.923   9.704  -0.049
 7007WAT      O21262   4.553   6.116   0.346
 7007WAT     H121263   4.460   6.081   0.335
 7007WAT     H221264   4.588   6.090   0.436
 7008WAT      O21265   0.464   1.926   9.384
 7008WAT     H121266   0.372   1.965   9.385
 7008WAT     H221267   0.462   1.837   9.339
 7009WAT      O21268   8.720   4.379   5.057
 7009WAT     H121269   8.705   4.470   5.095
 7009WAT     H221270   8.817   4.355   5.065
 7010WAT      O21271   9.637   1.556   9.010
 7010WAT     H121272   9.645   1.477   8.949
 7010WAT     H221273   9.698   1.628   8.979
 7011WAT      O21274   6.223   2.340   3.265
 7011WAT     H121275   6.249   2.430   3.302
 7011WAT     H221276   6.305   2.286   3.251
 7012WAT      O21277   6.256   5.056   9.249
 7012WAT     H121278   6.197   4.978   9.270
 7012WAT     H221279   6.295   5.092   9.333
 7013WAT      O21280   5.230   4.497   6.216
 7013WAT     H121281   5.207   4.575   6.159
 7013WAT     H221282   5.172   4.497   6.298
 7014WAT      O21283   5.067   5.986   9.687
 7014WAT     H121284   5.085   5.897   9.729
 7014WAT     H221285   5.147   6.015   9.634
 7015WAT      O21286   8.343   2.663   7.659
 7015WAT     H121287   8.262   2.700   7.613
 7015WAT     H221288   8.382   2.590   7.603
 7016WAT      O21289   0.735   5.712   5.226
 7016WAT     H121290   0.805   5.715   5.298
 7016WAT     H221291   0.656   5.766   5.255
 7017WAT      O21292   0.483   7.965   2.577
 7017WAT     H121293   0.502   7.887   2.518
 7017WAT     H221294   0.384   7.971   2.593
 7018WAT      O21295   1.148   5.062   4.620
 7018WAT     H121296   1.091   5.126   4.569
 7018WAT     H221297   1.142   5.082   4.718
 7019WAT      O21298   8.751   8.538   2.937
 7019WAT     H121299   8.710   8.630   2.939
 7019WAT     H221300   8.840   8.541   2.981
 7020WAT      O21301   9.482   5.385   2.818
 7020WAT     H121302   9.544   5.370   2.741
 7020WAT     H221303   9.448   5.297   2.851
 7021WAT      O21304   3.969   5.890   4.071
 7021WAT     H121305   4.056   5.907   4.025
 7021WAT     H221306   3.972   5.801   4.117
 7022WAT      O21307   0.691   6.465   1.505
 7022WAT     H121308   0.642   6.534   1.452
 7022WAT     H221309   0.628   6.421   1.569
 7023WAT      O21310   9.254   2.724   3.355
 7023WAT     H121311   9.234   2.692   3.262
 7023WAT     H221312   9.201   2.806   3.374
 7024WAT      O21313   5.425   0.011   6.528
 7024WAT     H121314   5.414   0.110   6.543
 7024WAT     H221315   5.452  -0.006   6.434
 7025WAT      O21316   7.201   5.490   2.587
 7025WAT     H121317   7.165   5.438   2.665
 7025WAT     H221318   7.159   5.457   2.503
 7026WAT      O21319   7.012   7.219   8.114
 7026WAT     H121320   6.970   7.275   8.043
 7026WAT     H221321   6.949   7.212   8.192
 7027WAT      O21322   3.273   8.357   2.638
 7027WAT     H121323   3.272   8.297   2.718
 7027WAT     H221324   3.296   8.303   2.557
 7028WAT      O21325   0.070   7.320   1.667
 7028WAT     H121326   0.051   7.404   1.617
 7028WAT     H221327   0.049   7.241   1.609
 7029WAT      O21328   8.556   1.495   8.141
 7029WAT     H121329   8.572   1.556   8.063
 7029WAT     H221330   8.458   1.480   8.152
 7030WAT      O21331   9.342   8.994   7.225
 7030WAT     H121332   9.372   8.964   7.134
 7030WAT     H221333   9.412   8.971   7.292
 7031WAT      O21334   9.790   2.750   3.774
 7031WAT     H121335   9.790   2.682   3.700
 7031WAT     H221336   9.813   2.705   3.860
 7032WAT      O21337   5.481   2.977   4.588
 7032WAT     H121338   5.388   2.949   4.568
 7032WAT     H221339   5.530   2.994   4.502
 7033WAT      O21340   9.712   6.235   3.785
 7033WAT     H121341   9.770   6.155   3.773
 7033WAT     H221342   9.616   6.208   3.783
 7034WAT      O21343   9.812   0.880   5.991
 7034WAT     H121344   9.809   0.884   5.891
 7034WAT     H221345   9.756   0.954   6.029
 7035WAT      O21346   9.185   1.484   5.815
 7035WAT     H121347   9.091   1.483   5.783
 7035WAT     H221348   9.226   1.394   5.799
 7036WAT      O21349   8.257   7.420   8.264
 7036WAT     H121350   8.180   7.389   8.319
 7036WAT     H221351   8.314   7.483   8.317
 7037WAT      O21352   1.276   1.210   0.934
 7037WAT     H121353   1.322   1.296   0.959
 7037WAT     H221354   1.331   1.162   0.866
 7038WAT      O21355   3.863   6.226   9.252
 7038WAT     H121356   3.788   6.279   9.211
 7038WAT     H221357   3.858   6.233   9.351
 7039WAT      O21358   5.256   5.955   8.431
 7039WAT     H121359   5.254   6.048   8.467
 7039WAT     H221360   5.215   5.892   8.497
 7040WAT      O21361   9.124   6.466   2.668
 7040WAT     H121362   9.070   6.551   2.668
 7040WAT     H221363   9.183   6.464   2.749
 7041WAT      O21364   7.943   2.835   5.914
 7041WAT     H121365   7.851   2.873   5.900
 7041WAT     H221366   8.003   2.868   5.841
 7042WAT      O21367   0.095   3.037   2.800
 7042WAT     H121368   0.055   3.006   2.886
 7042WAT     H221369   0.155   2.966   2.763
 7043WAT      O21370   8.330   5.110   6.361
 7043WAT     H121371   8.358   5.185   6.422
 7043WAT     H221372   8.315   5.147   6.269
 7044WAT      O21373   7.867   8.829   3.625
 7044WAT     H121374   7.857   8.928   3.620
 7044WAT     H221375   7.791   8.785   3.577
 7045WAT      O21376   2.401   6.873   8.539
 7045WAT     H121377   2.416   6.910   8.630
 7045WAT     H221378   2.489   6.850   8.497
 7046WAT      O21379   8.261   7.146   1.064
 7046WAT     H121380   8.183   7.194   1.105
 7046WAT     H221381   8.273   7.178   0.970
 7047WAT      O21382   6.208   1.416   1.266
 7047WAT     H121383   6.233   1.328   1.227
 7047WAT     H221384   6.185   1.480   1.193
 7048WAT      O21385   8.490   7.977   5.469
 7048WAT     H121386   8.550   7.900   5.489
 7048WAT     H221387   8.422   7.949   5.401
 7049WAT      O21388   4.928   5.424   8.030
 7049WAT     H121389   4.895   5.409   7.936
 7049WAT     H221390   4.851   5.426   8.093
 7050WAT      O21391   8.772   2.067   0.765
 7050WAT     H121392   8.811   2.137   0.705
 7050WAT     H221393   8.756   1.983   0.713
 7051WAT      O21394   2.456   9.673   7.525
 7051WAT     H121395   2.389   9.744   7.547
 7051WAT     H221396   2.438   9.592   7.579
 7052WAT      O21397   6.125   9.141   0.594
 7052WAT     H121398   6.034   9.117   0.559
 7052WAT     H221399   6.195   9.091   0.544
 7053WAT      O21400   4.335   3.620   8.889
 7053WAT     H121401   4.311   3.710   8.853
 7053WAT     H221402   4.251   3.570   8.913
 7054WAT      O21403   8.365   1.358   8.774
 7054WAT     H121404   8.448   1.339   8.723
 7054WAT     H221405   8.313   1.274   8.786
 7055WAT      O21406   1.277   2.571   0.953
 7055WAT     H121407   1.302   2.668   0.943
 7055WAT     H221408   1.241   2.536   0.866
 7056WAT      O21409   4.250   5.523   8.236
 7056WAT     H121410   4.297   5.458   8.177
 7056WAT     H221411   4.298   5.610   8.235
 7057WAT      O21412   0.001   6.626   9.478
 7057WAT     H121413  -0.020   6.702   9.540
 7057WAT     H221414   0.067   6.565   9.521
 7058WAT      O21415   6.770   5.667   6.334
 7058WAT     H121416   6.816   5.749   6.299
 7058WAT     H221417   6.777   5.593   6.267
 7059WAT      O21418   3.671   5.303   4.011
 7059WAT     H121419   3.657   5.401   4.027
 7059WAT     H221420   3.657   5.253   4.097
 7060WAT      O21421   0.199   3.067   8.609
 7060WAT     H121422   0.128   3.123   8.567
 7060WAT     H221423   0.242   3.119   8.684
 7061WAT      O21424   9.427   3.728   5.053
 7061WAT     H121425   9.368   3.778   4.990
 7061WAT     H221426   9.477   3.793   5.111
 7062WAT      O21427   0.346   0.571   2.965
 7062WAT     H121428   0.402   0.653   2.976
 7062WAT     H221429   0.256   0.586   3.008
 7063WAT      O21430   5.738   2.055   1.437
 7063WAT     H121431   5.667   2.056   1.508
 7063WAT     H221432   5.734   1.968   1.388
 7064WAT      O21433   6.662   9.328   2.976
 7064WAT     H121434   6.614   9.358   2.894
 7064WAT     H221435   6.682   9.231   2.971
 7065WAT      O21436   5.066   6.686   4.031
 7065WAT     H121437   4.990   6.745   4.004
 7065WAT     H221438   5.122   6.733   4.100
 7066WAT      O21439   8.068   1.600   5.853
 7066WAT     H121440   8.143   1.535   5.864
 7066WAT     H221441   8.046   1.640   5.942
 7067WAT      O21442   3.158   7.269   0.133
 7067WAT     H121443   3.081   7.230   0.185
 7067WAT     H221444   3.192   7.201   0.068
 7068WAT      O21445   1.158   5.429   4.730
 7068WAT     H121446   1.234   5.405   4.791
 7068WAT     H221447   1.072   5.403   4.773
 7069WAT      O21448   2.269   4.444   5.941
 7069WAT     H121449   2.295   4.350   5.961
 7069WAT     H221450   2.327   4.479   5.867
 7070WAT      O21451   2.199   5.393   4.028
 7070WAT     H121452   2.139   5.363   4.103
 7070WAT     H221453   2.156   5.470   3.981
 7071WAT      O21454   1.760   3.754   4.871
 7071WAT     H121455   1.839   3.742   4.932
 7071WAT     H221456   1.750   3.673   4.813
 7072WAT      O21457   8.252   0.030   8.719
 7072WAT     H121458   8.297  -0.007   8.638
 7072WAT     H221459   8.168  -0.022   8.737
 7073WAT      O21460   1.093   6.924   9.196
 7073WAT     H121461   1.073   6.941   9.099
 7073WAT     H221462   1.185   6.886   9.204
 7074WAT      O21463   4.872   8.451   4.084
 7074WAT     H121464   4.933   8.472   4.161
 7074WAT     H221465   4.779   8.481   4.107
 7075WAT      O21466   0.543   1.810   5.655
 7075WAT     H121467   0.617   1.823   5.722
 7075WAT     H221468   0.483   1.890   5.657
 7076WAT      O21469   7.442   5.466   2.190
 7076WAT     H121470   7.398   5.552   2.216
 7076WAT     H221471   7.393   5.426   2.112
 7077WAT      O21472   2.174   9.333   1.599
 7077WAT     H121473   2.169   9.253   1.659
 7077WAT     H221474   2.263   9.335   1.554
 7078WAT      O21475   1.625   8.155   7.284
 7078WAT     H121476   1.528   8.132   7.293
 7078WAT     H221477   1.655   8.202   7.367
 7079WAT      O21478   8.712   2.583   5.533
 7079WAT     H121479   8.613   2.568   5.539
 7079WAT     H221480   8.731   2.681   5.541
 7080WAT      O21481   7.185   2.467   9.867
 7080WAT     H121482   7.095   2.443   9.904
 7080WAT     H221483   7.205   2.563   9.887
 7081WAT      O21484   9.417   0.702   4.557
 7081WAT     H121485   9.422   0.622   4.497
 7081WAT     H221486   9.322   0.733   4.563
 7082WAT      O21487   7.151   9.282   5.111
 7082WAT     H121488   7.075   9.339   5.078
 7082WAT     H221489   7.235   9.306   5.062
 7083WAT      O21490   3.108   9.350   0.214
 7083WAT     H121491   3.023   9.365   0.163
 7083WAT     H221492   3.185   9.347   0.150
 7084WAT      O21493   1.424   1.060   1.782
 7084WAT     H121494   1.410   0.977   1.728
 7084WAT     H221495   1.348   1.123   1.766
 7085WAT      O21496   5.631   6.081   6.093
 7085WAT     H121497   5.538   6.057   6.121
 7085WAT     H221498   5.679   5.999   6.062
 7086WAT      O21499   6.118   6.112   5.283
 7086WAT     H121500   6.117   6.179   5.357
 7086WAT     H221501   6.027   6.107   5.242
 7087WAT      O21502   1.161   8.294   8.369
 7087WAT     H121503   1.153   8.195   8.377
 7087WAT     H221504   1.257   8.321   8.382
 7088WAT      O21505   1.083   6.587   7.927
 7088WAT     H121506   1.059   6.577   7.830
 7088WAT     H221507   1.005   6.560   7.983
 7089WAT      O21508   7.689   4.165   3.379
 7089WAT     H121509   7.756   4.193   3.310
 7089WAT     H221510   7.735   4.155   3.467
 7090WAT      O21511   3.593   0.065   7.018
 7090WAT     H121512   3.692   0.069   7.001
 7090WAT     H221513   3.551  -0.001   6.956
 7091WAT      O21514   7.185   3.298   9.471
 7091WAT     H121515   7.166   3.247   9.387
 7091WAT     H221516   7.281   3.325   9.474
 7092WAT      O21517   9.092   7.799   1.641
 7092WAT     H121518   9.034   7.823   1.563
 7092WAT     H221519   9.036   7.798   1.724
 7093WAT      O21520   1.178   0.602   1.485
 7093WAT     H121521   1.154   0.627   1.579
 7093WAT     H221522   1.192   0.684   1.431
 7094WAT      O21523   4.367   4.588   0.326
 7094WAT     H121524   4.419   4.588   0.240
 7094WAT     H221525   4.411   4.526   0.391
 7095WAT      O21526   2.880   7.032   5.514
 7095WAT     H121527   2.902   7.058   5.608
 7095WAT     H221528   2.874   7.114   5.457
 7096WAT      O21529   3.137   2.456   2.975
 7096WAT     H121530   3.145   2.372   2.923
 7096WAT     H221531   3.228   2.496   2.989
 7097WAT      O21532   3.570   5.287   5.467
 7097WAT     H121533   3.542   5.377   5.500
 7097WAT     H221534   3.586   5.291   5.369
 7098WAT      O21535   9.044   3.590   7.975
 7098WAT     H121536   9.025   3.496   8.002
 7098WAT     H221537   9.134   3.617   8.010
 7099WAT      O21538   6.230   4.371   1.541
 7099WAT     H121539   6.149   4.356   1.598
 7099WAT     H221540   6.283   4.447   1.578
 7100WAT      O21541   4.388   7.154   4.491
 7100WAT     H121542   4.289   7.139   4.490
 7100WAT     H221543   4.424   7.134   4.582
 7101WAT      O21544   8.634   7.801   4.484
 7101WAT     H121545   8.633   7.701   4.482
 7101WAT     H221546   8.591   7.833   4.568
 7102WAT      O21547   5.779   6.604   0.915
 7102WAT     H121548   5.681   6.585   0.907
 7102WAT     H221549   5.828   6.519   0.936
 7103WAT      O21550   3.828   7.140   6.267
 7103WAT     H121551   3.892   7.138   6.190
 7103WAT     H221552   3.771   7.222   6.262
 7104WAT      O21553   7.024   4.179   7.636
 7104WAT     H121554   7.086   4.199   7.712
 7104WAT     H221555   6.945   4.239   7.640
 7105WAT      O21556   8.533   6.929   0.273
 7105WAT     H121557   8.544   7.015   0.223
 7105WAT     H221558   8.438   6.898   0.266
 7106WAT      O21559   7.580   6.229   2.672
 7106WAT     H121560   7.511   6.234   2.744
 7106WAT     H221561   7.537   6.243   2.583
 7107WAT      O21562   7.761   2.454   1.861
 7107WAT     H121563   7.833   2.518   1.833
 7107WAT     H221564   7.727   2.481   1.952
 7108WAT      O21565   5.898   7.312   2.844
 7108WAT     H121566   5.895   7.253   2.924
 7108WAT     H221567   5.993   7.329   2.819
 7109WAT      O21568   1.214   6.435   5.638
 7109WAT     H121569   1.260   6.379   5.707
 7109WAT     H221570   1.191   6.380   5.559
 7110WAT      O21571   2.359   4.541   4.683
 7110WAT     H121572   2.373   4.607   4.609
 7110WAT     H221573   2.268   4.500   4.675
 7111WAT      O21574   5.100   1.037   4.585
 7111WAT     H121575   5.024   1.015   4.523
 7111WAT     H221576   5.157   0.956   4.597
 7112WAT      O21577   6.598   7.024   3.066
 7112WAT     H121578   6.695   7.021   3.088
 7112WAT     H221579   6.578   7.106   3.012
 7113WAT      O21580   1.157   6.127   7.563
 7113WAT     H121581   1.165   6.028   7.576
 7113WAT     H221582   1.220   6.174   7.624
 7114WAT      O21583   3.248   5.580   7.591
 7114WAT     H121584   3.296   5.600   7.676
 7114WAT     H221585   3.200   5.662   7.560
 7115WAT      O21586   1.334   7.504   8.423
 7115WAT     H121587   1.291   7.439   8.361
 7115WAT     H221588   1.363   7.585   8.372
 7116WAT      O21589   7.547   4.377   1.735
 7116WAT     H121590   7.533   4.338   1.826
 7116WAT     H221591   7.480   4.337   1.672
 7117WAT      O21592   1.790   9.587   0.915
 7117WAT     H121593   1.832   9.670   0.950
 7117WAT     H221594   1.740   9.541   0.988
 7118WAT      O21595   3.886   6.070   5.314
 7118WAT     H121596   3.968   6.115   5.351
 7118WAT     H221597   3.870   5.985   5.363
 7119WAT      O21598   6.039   5.693   4.858
 7119WAT     H121599   5.969   5.627   4.886
 7119WAT     H221600   6.120   5.644   4.825
 7120WAT      O21601   2.895   3.524   5.833
 7120WAT     H121602   2.955   3.499   5.757
 7120WAT     H221603   2.948   3.571   5.904
 7121WAT      O21604   7.426   3.283   5.884
 7121WAT     H121605   7.505   3.334   5.916
 7121WAT     H221606   7.346   3.343   5.880
 7122WAT      O21607   0.591   2.008   4.682
 7122WAT     H121608   0.581   1.939   4.753
 7122WAT     H221609   0.546   2.092   4.711
 7123WAT      O21610   6.938   4.676   7.123
 7123WAT     H121611   6.874   4.697   7.197
 7123WAT     H221612   7.032   4.680   7.158
 7124WAT      O21613   2.851   7.670   1.445
 7124WAT     H121614   2.856   7.616   1.361
 7124WAT     H221615   2.901   7.755   1.433
 7125WAT      O21616   5.433   4.310   7.886
 7125WAT     H121617   5.343   4.353   7.885
 7125WAT     H221618   5.455   4.282   7.980
 7126WAT      O21619   9.285   1.985   4.591
 7126WAT     H121620   9.337   1.933   4.658
 7126WAT     H221621   9.346   2.016   4.518
 7127WAT      O21622   8.259   9.405   2.574
 7127WAT     H121623   8.169   9.365   2.592
 7127WAT     H221624   8.262   9.498   2.609
 7128WAT      O21625   7.996   8.840   8.581
 7128WAT     H121626   7.977   8.886   8.494
 7128WAT     H221627   7.991   8.741   8.568
 7129WAT      O21628   5.345   8.118   3.220
 7129WAT     H121629   5.430   8.088   3.262
 7129WAT     H221630   5.270   8.061   3.252
 7130WAT      O21631   5.299   4.867   9.431
 7130WAT     H121632   5.273   4.917   9.513
 7130WAT     H221633   5.318   4.931   9.357
 7131WAT      O21634   7.111   6.925   7.451
 7131WAT     H121635   7.066   7.014   7.448
 7131WAT     H221636   7.199   6.930   7.405
 7132WAT      O21637   6.875   7.397   3.601
 7132WAT     H121638   6.813   7.454   3.655
 7132WAT     H221639   6.952   7.453   3.570
 7133WAT      O21640   2.490   4.683   4.011
 7133WAT     H121641   2.536   4.714   4.094
 7133WAT     H221642   2.486   4.584   4.010
 7134WAT      O21643   0.182   2.358   7.195
 7134WAT     H121644   0.192   2.269   7.151
 7134WAT     H221645   0.267   2.410   7.186
 7135WAT      O21646   1.264   1.967   8.147
 7135WAT     H121647   1.313   1.883   8.170
 7135WAT     H221648   1.325   2.031   8.102
 7136WAT      O21649   2.110   3.218   5.548
 7136WAT     H121650   2.194   3.221   5.601
 7136WAT     H221651   2.037   3.267   5.596
 7137WAT      O21652   1.528   6.097   4.051
 7137WAT     H121653   1.503   6.137   3.963
 7137WAT     H221654   1.500   6.001   4.053
 7138WAT      O21655   7.743   3.108   4.898
 7138WAT     H121656   7.750   3.079   4.993
 7138WAT     H221657   7.656   3.078   4.860
 7139WAT      O21658   7.612   5.779   4.801
 7139WAT     H121659   7.604   5.873   4.832
 7139WAT     H221660   7.673   5.775   4.721
 7140WAT      O21661   2.363   4.529   9.121
 7140WAT     H121662   2.291   4.588   9.087
 7140WAT     H221663   2.428   4.582   9.175
 7141WAT      O21664   8.017   2.858   2.429
 7141WAT     H121665   7.984   2.915   2.504
 7141WAT     H221666   7.975   2.767   2.436
 7142WAT      O21667   0.841   2.363   9.290
 7142WAT     H121668   0.771   2.424   9.253
 7142WAT     H221669   0.931   2.396   9.264
 7143WAT      O21670   0.796   3.344   8.361
 7143WAT     H121671   0.730   3.345   8.436
 7143WAT     H221672   0.840   3.434   8.355
 7144WAT      O21673   9.203   9.527   3.185
 7144WAT     H121674   9.280   9.466   3.166
 7144WAT     H221675   9.122   9.472   3.208
 7145WAT      O21676   7.145   3.337   5.693
 7145WAT     H121677   7.192   3.407   5.746
 7145WAT     H221678   7.075   3.294   5.751
 7146WAT      O21679   9.060   1.546   1.036
 7146WAT     H121680   9.157   1.522   1.035
 7146WAT     H221681   9.047   1.634   0.991
 7147WAT      O21682   7.559   0.798   8.385
 7147WAT     H121683   7.532   0.702   8.380
 7147WAT     H221684   7.570   0.825   8.481
 7148WAT      O21685   5.451   2.274   1.452
 7148WAT     H121686   5.528   2.337   1.454
 7148WAT     H221687   5.365   2.326   1.449
 7149WAT      O21688   8.296   1.278   3.814
 7149WAT     H121689   8.337   1.316   3.732
 7149WAT     H221690   8.368   1.250   3.878
 7150WAT      O21691   1.822   4.435   4.181
 7150WAT     H121692   1.857   4.480   4.099
 7150WAT     H221693   1.886   4.365   4.211
 7151WAT      O21694   1.124   3.924   0.946
 7151WAT     H121695   1.047   3.862   0.957
 7151WAT     H221696   1.130   3.985   1.025
 7152WAT      O21697   0.718   7.294   0.234
 7152WAT     H121698   0.663   7.221   0.274
 7152WAT     H221699   0.668   7.335   0.157
 7153WAT      O21700   7.480   3.906   4.146
 7153WAT     H121701   7.445   3.942   4.233
 7153WAT     H221702   7.437   3.953   4.070
 7154WAT      O21703   2.138   9.829   0.358
 7154WAT     H121704   2.085   9.793   0.436
 7154WAT     H221705   2.230   9.852   0.389
 7155WAT      O21706   8.289   7.971   5.930
 7155WAT     H121707   8.301   8.011   5.840
 7155WAT     H221708   8.281   7.872   5.922
 7156WAT      O21709   4.395   9.508   4.362
 7156WAT     H121710   4.366   9.534   4.270
 7156WAT     H221711   4.488   9.541   4.378
 7157WAT      O21712   9.734   1.789   8.172
 7157WAT     H121713   9.650   1.780   8.225
 7157WAT     H221714   9.809   1.742   8.219
 7158WAT      O21715   7.469   3.491   1.890
 7158WAT     H121716   7.530   3.569   1.875
 7158WAT     H221717   7.472   3.466   1.987
 7159WAT      O21718   2.940   2.545   4.773
 7159WAT     H121719   2.959   2.641   4.752
 7159WAT     H221720   2.850   2.520   4.735
 7160WAT      O21721   3.341   2.575   1.577
 7160WAT     H121722   3.299   2.529   1.654
 7160WAT     H221723   3.359   2.509   1.504
 7161WAT      O21724   5.138   6.503   5.796
 7161WAT     H121725   5.228   6.530   5.831
 7161WAT     H221726   5.084   6.463   5.870
 7162WAT      O21727   8.264   8.854   2.948
 7162WAT     H121728   8.177   8.901   2.961
 7162WAT     H221729   8.247   8.756   2.937
 7163WAT      O21730   2.825   3.290   5.552
 7163WAT     H121731   2.831   3.209   5.610
 7163WAT     H221732   2.917   3.318   5.524
 7164WAT      O21733   6.137   9.276   5.944
 7164WAT     H121734   6.151   9.250   5.848
 7164WAT     H221735   6.044   9.311   5.957
 7165WAT      O21736   2.694   2.322   2.551
 7165WAT     H121737   2.769   2.308   2.615
 7165WAT     H221738   2.611   2.347   2.603
 7166WAT      O21739   8.009   6.488   8.715
 7166WAT     H121740   8.046   6.443   8.633
 7166WAT     H221741   7.947   6.426   8.762
 7167WAT      O21742   7.875   1.477   8.667
 7167WAT     H121743   7.850   1.470   8.763
 7167WAT     H221744   7.974   1.464   8.657
 7168WAT      O21745   5.773   5.721   8.052
 7168WAT     H121746   5.831   5.721   8.133
 7168WAT     H221747   5.681   5.751   8.077
 7169WAT      O21748   5.208   1.724   1.243
 7169WAT     H121749   5.215   1.722   1.143
 7169WAT     H221750   5.253   1.806   1.278
 7170WAT      O21751   2.705   4.673   4.649
 7170WAT     H121752   2.628   4.652   4.588
 7170WAT     H221753   2.682   4.646   4.742
 7171WAT      O21754   8.215   3.250   3.567
 7171WAT     H121755   8.132   3.237   3.621
 7171WAT     H221756   8.215   3.342   3.527
 7172WAT      O21757   1.267   0.475   9.343
 7172WAT     H121758   1.348   0.416   9.353
 7172WAT     H221759   1.296   0.563   9.306
 7173WAT      O21760   7.268   9.008   8.756
 7173WAT     H121761   7.345   8.969   8.705
 7173WAT     H221762   7.183   8.991   8.706
 7174WAT      O21763   2.366   8.761   2.213
 7174WAT     H121764   2.447   8.768   2.272
 7174WAT     H221765   2.383   8.695   2.141
 7175WAT      O21766   8.271   3.468   0.546
 7175WAT     H121767   8.326   3.511   0.617
 7175WAT     H221768   8.186   3.434   0.587
 7176WAT      O21769   1.904   7.271   0.390
 7176WAT     H121770   1.806   7.288   0.403
 7176WAT     H221771   1.952   7.358   0.379
 7177WAT      O21772   7.724   1.101   3.910
 7177WAT     H121773   7.767   1.044   3.979
 7177WAT     H221774   7.672   1.044   3.846
 7178WAT      O21775   2.523   8.725   3.397
 7178WAT     H121776   2.445   8.673   3.431
 7178WAT     H221777   2.527   8.814   3.443
 7179WAT      O21778   3.162   1.724   3.991
 7179WAT     H121779   3.240   1.724   3.928
 7179WAT     H221780   3.112   1.810   3.982
 7180WAT      O21781   2.653   8.068   5.874
 7180WAT     H121782   2.614   8.052   5.965
 7180WAT     H221783   2.693   8.159   5.871
 7181WAT      O21784   9.447   7.031   4.878
 7181WAT     H121785   9.482   7.077   4.960
 7181WAT     H221786   9.407   7.099   4.817
 7182WAT      O21787   3.802   6.496   6.025
 7182WAT     H121788   3.827   6.564   5.956
 7182WAT     H221789   3.712   6.457   6.002
 7183WAT      O21790   0.066   7.642   1.135
 7183WAT     H121791  -0.032   7.644   1.116
 7183WAT     H221792   0.108   7.569   1.080
 7184WAT      O21793   4.623   4.237   2.216
 7184WAT     H121794   4.668   4.149   2.198
 7184WAT     H221795   4.681   4.290   2.279
 7185WAT      O21796   2.207   6.930   6.711
 7185WAT     H121797   2.271   6.981   6.769
 7185WAT     H221798   2.221   6.955   6.615
 7186WAT      O21799   4.049   7.727   0.927
 7186WAT     H121800   4.108   7.770   0.858
 7186WAT     H221801   3.964   7.779   0.935
 7187WAT      O21802   9.499   6.413   6.302
 7187WAT     H121803   9.399   6.419   6.307
 7187WAT     H221804   9.528   6.322   6.332
 7188WAT      O21805   2.827   0.435   9.781
 7188WAT     H121806   2.745   0.486   9.754
 7188WAT     H221807   2.900   0.500   9.805
 7189WAT      O21808   8.588   7.120   2.097
 7189WAT     H121809   8.674   7.075   2.120
 7189WAT     H221810   8.540   7.066   2.027
 7190WAT      O21811   7.052   3.356   1.416
 7190WAT     H121812   7.090   3.431   1.362
 7190WAT     H221813   6.985   3.305   1.362
 7191WAT      O21814   9.542   0.744   8.082
 7191WAT     H121815   9.597   0.759   8.164
 7191WAT     H221816   9.600   0.745   8.001
 7192WAT      O21817   3.768   3.585   4.195
 7192WAT     H121818   3.796   3.666   4.142
 7192WAT     H221819   3.737   3.614   4.286
 7193WAT      O21820   5.992   2.404   4.778
 7193WAT     H121821   5.898   2.404   4.815
 7193WAT     H221822   6.054   2.368   4.847
 7194WAT      O21823   5.624   8.255   9.344
 7194WAT     H121824   5.663   8.171   9.307
 7194WAT     H221825   5.526   8.244   9.358
 7195WAT      O21826   6.031   7.055   5.338
 7195WAT     H121827   6.099   7.118   5.378
 7195WAT     H221828   5.981   7.102   5.265
 7196WAT      O21829   4.130   4.714   0.247
 7196WAT     H121830   4.087   4.747   0.331
 7196WAT     H221831   4.214   4.665   0.270
 7197WAT      O21832   0.479   4.018   9.379
 7197WAT     H121833   0.433   4.018   9.290
 7197WAT     H221834   0.572   3.982   9.368
 7198WAT      O21835   6.955   2.133   3.963
 7198WAT     H121836   6.936   2.215   3.909
 7198WAT     H221837   6.944   2.051   3.907
 7199WAT      O21838   3.358   6.056   2.610
 7199WAT     H121839   3.288   5.986   2.627
 7199WAT     H221840   3.364   6.117   2.688
 7200WAT      O21841   7.738   3.246   6.198
 7200WAT     H121842   7.638   3.237   6.200
 7200WAT     H221843   7.764   3.335   6.236
 7201WAT      O21844   8.865   6.973   3.744
 7201WAT     H121845   8.818   7.044   3.797
 7201WAT     H221846   8.963   6.994   3.740
 7202WAT      O21847   6.168   4.070   1.090
 7202WAT     H121848   6.201   3.977   1.107
 7202WAT     H221849   6.135   4.111   1.175
 7203WAT      O21850   7.955   0.204   1.307
 7203WAT     H121851   8.009   0.275   1.351
 7203WAT     H221852   7.992   0.186   1.216
 7204WAT      O21853   8.901   3.565   5.302
 7204WAT     H121854   8.909   3.507   5.220
 7204WAT     H221855   8.823   3.626   5.291
 7205WAT      O21856   0.276   6.265   5.252
 7205WAT     H121857   0.303   6.360   5.235
 7205WAT     H221858   0.308   6.237   5.343
 7206WAT      O21859   6.697   6.686   1.643
 7206WAT     H121860   6.763   6.755   1.669
 7206WAT     H221861   6.644   6.719   1.564
 7207WAT      O21862   3.496   9.636   4.314
 7207WAT     H121863   3.473   9.630   4.411
 7207WAT     H221864   3.519   9.546   4.279
 7208WAT      O21865   9.825   5.377   9.397
 7208WAT     H121866   9.767   5.446   9.354
 7208WAT     H221867   9.892   5.423   9.457
 7209WAT      O21868   8.059   7.092   6.479
 7209WAT     H121869   8.037   7.001   6.443
 7209WAT     H221870   8.084   7.153   6.404
 7210WAT      O21871   6.520   7.066   7.273
 7210WAT     H121872   6.514   7.038   7.369
 7210WAT     H221873   6.454   7.140   7.255
 7211WAT      O21874   3.303   0.525   2.487
 7211WAT     H121875   3.238   0.480   2.425
 7211WAT     H221876   3.257   0.599   2.536
 7212WAT      O21877   8.425   1.728   2.085
 7212WAT     H121878   8.391   1.690   1.999
 7212WAT     H221879   8.371   1.809   2.109
 7213WAT      O21880   6.551   8.218   1.384
 7213WAT     H121881   6.466   8.178   1.419
 7213WAT     H221882   6.557   8.200   1.286
 7214WAT      O21883   5.141   0.500   1.958
 7214WAT     H121884   5.148   0.597   1.983
 7214WAT     H221885   5.050   0.482   1.921
 7215WAT      O21886   2.956   4.368   1.740
 7215WAT     H121887   3.051   4.373   1.710
 7215WAT     H221888   2.937   4.276   1.775
 7216WAT      O21889   2.573   2.658   2.062
 7216WAT     H121890   2.578   2.747   2.108
 7216WAT     H221891   2.501   2.661   1.993
 7217WAT      O21892   2.459   9.184   9.427
 7217WAT     H121893   2.386   9.211   9.489
 7217WAT     H221894   2.422   9.126   9.354
 7218WAT      O21895   3.281   8.298   5.814
 7218WAT     H121896   3.332   8.247   5.883
 7218WAT     H221897   3.280   8.246   5.729
 7219WAT      O21898   2.356   7.966   5.466
 7219WAT     H121899   2.355   8.055   5.419
 7219WAT     H221900   2.302   7.972   5.549
 7220WAT      O21901   7.991   0.265   4.537
 7220WAT     H121902   7.962   0.347   4.490
 7220WAT     H221903   7.956   0.265   4.631
 7221WAT      O21904   2.637   2.439   5.847
 7221WAT     H121905   2.566   2.498   5.809
 7221WAT     H221906   2.609   2.344   5.841
 7222WAT      O21907   6.190   5.388   8.190
 7222WAT     H121908   6.152   5.296   8.199
 7222WAT     H221909   6.273   5.385   8.134
 7223WAT      O21910   4.040   2.597   4.355
 7223WAT     H121911   4.010   2.655   4.279
 7223WAT     H221912   4.117   2.639   4.401
 7224WAT      O21913   2.933   4.300   9.636
 7224WAT     H121914   2.974   4.287   9.546
 7224WAT     H221915   2.889   4.215   9.666
 7225WAT      O21916   0.407   9.397   9.419
 7225WAT     H121917   0.446   9.346   9.342
 7225WAT     H221918   0.312   9.419   9.400
 7226WAT      O21919   9.459   3.323   0.825
 7226WAT     H121920   9.528   3.267   0.781
 7226WAT     H221921   9.453   3.412   0.780
 7227WAT      O21922   5.709   4.358   3.823
 7227WAT     H121923   5.809   4.347   3.823
 7227WAT     H221924   5.680   4.398   3.737
 7228WAT      O21925   4.782   1.092   0.286
 7228WAT     H121926   4.762   1.186   0.257
 7228WAT     H221927   4.711   1.031   0.252
 7229WAT      O21928   7.825   1.487   2.411
 7229WAT     H121929   7.901   1.499   2.475
 7229WAT     H221930   7.769   1.570   2.410
 7230WAT      O21931   5.733   2.124   9.260
 7230WAT     H121932   5.802   2.061   9.297
 7230WAT     H221933   5.667   2.146   9.331
 7231WAT      O21934   4.366   3.711   2.657
 7231WAT     H121935   4.367   3.691   2.559
 7231WAT     H221936   4.364   3.810   2.671
 7232WAT      O21937   7.851   2.780   2.013
 7232WAT     H121938   7.946   2.750   2.010
 7232WAT     H221939   7.843   2.860   2.072
 7233WAT      O21940   7.061   7.514   6.528
 7233WAT     H121941   7.114   7.563   6.459
 7233WAT     H221942   7.124   7.480   6.599
 7234WAT      O21943   9.849   5.590   7.083
 7234WAT     H121944   9.900   5.669   7.117
 7234WAT     H221945   9.857   5.585   6.983
 7235WAT      O21946   9.723   9.096   7.560
 7235WAT     H121947   9.717   9.170   7.494
 7235WAT     H221948   9.748   9.134   7.650
 7236WAT      O21949   3.846   7.565   0.343
 7236WAT     H121950   3.898   7.642   0.380
 7236WAT     H221951   3.896   7.526   0.265
 7237WAT      O21952   6.310   9.042   0.430
 7237WAT     H121953   6.361   9.025   0.514
 7237WAT     H221954   6.324   8.966   0.367
 7238WAT      O21955   8.506   2.752   5.097
 7238WAT     H121956   8.489   2.805   5.179
 7238WAT     H221957   8.444   2.673   5.095
 7239WAT      O21958   3.493   5.524   2.819
 7239WAT     H121959   3.481   5.447   2.756
 7239WAT     H221960   3.405   5.549   2.859
 7240WAT      O21961   2.280   6.352   2.273
 7240WAT     H121962   2.360   6.406   2.247
 7240WAT     H221963   2.304   6.255   2.273
 7241WAT      O21964   7.679   2.043   1.139
 7241WAT     H121965   7.610   2.110   1.166
 7241WAT     H221966   7.769   2.073   1.171
 7242WAT      O21967   8.109   2.034   7.329
 7242WAT     H121968   8.170   2.099   7.285
 7242WAT     H221969   8.128   1.942   7.296
 7243WAT      O21970   8.004   1.044   1.971
 7243WAT     H121971   8.099   1.054   1.942
 7243WAT     H221972   7.966   1.134   1.991
 7244WAT      O21973   4.331   6.381   5.241
 7244WAT     H121974   4.408   6.439   5.268
 7244WAT     H221975   4.252   6.439   5.219
 7245WAT      O21976   2.184   8.598   3.024
 7245WAT     H121977   2.159   8.502   3.039
 7245WAT     H221978   2.263   8.621   3.080
 7246WAT      O21979   8.154   6.492   8.037
 7246WAT     H121980   8.188   6.412   7.987
 7246WAT     H221981   8.197   6.495   8.127
 7247WAT      O21982   4.366   5.602   5.135
 7247WAT     H121983   4.428   5.546   5.191
 7247WAT     H221984   4.317   5.543   5.071
 7248WAT      O21985   2.544   9.265   2.074
 7248WAT     H121986   2.473   9.308   2.018
 7248WAT     H221987   2.507   9.248   2.166
 7249WAT      O21988   8.305   9.479   4.273
 7249WAT     H121989   8.231   9.514   4.215
 7249WAT     H221990   8.272   9.400   4.324
 7250WAT      O21991   2.869   6.001   7.925
 7250WAT     H121992   2.877   6.101   7.927
 7250WAT     H221993   2.951   5.962   7.881
 7251WAT      O21994   8.847   8.907   4.416
 7251WAT     H121995   8.882   8.998   4.397
 7251WAT     H221996   8.810   8.905   4.509
 7252WAT      O21997   3.623   2.911   5.290
 7252WAT     H121998   3.656   2.842   5.225
 7252WAT     H221999   3.524   2.899   5.304
 7253WAT      O22000   5.587   4.770   6.994
 7253WAT     H122001   5.571   4.850   6.937
 7253WAT     H222002   5.598   4.799   7.089
 7254WAT      O22003   8.694   3.509   3.292
 7254WAT     H122004   8.708   3.413   3.269
 7254WAT     H222005   8.767   3.540   3.353
 7255WAT      O22006   2.157   8.720   3.382
 7255WAT     H122007   2.083   8.656   3.362
 7255WAT     H222008   2.226   8.673   3.438
 7256WAT      O22009   9.421   2.458   6.193
 7256WAT     H122010   9.506   2.502   6.164
 7256WAT     H222011   9.415   2.368   6.151
 7257WAT      O22012   2.700   6.239   5.638
 7257WAT     H122013   2.757   6.209   5.562
 7257WAT     H222014   2.665   6.160   5.687
 7258WAT      O22015   9.222   2.909   5.135
 7258WAT     H122016   9.318   2.900   5.161
 7258WAT     H222017   9.164   2.887   5.213
 7259WAT      O22018   5.320   8.552   3.577
 7259WAT     H122019   5.321   8.637   3.629
 7259WAT     H222020   5.364   8.566   3.488
 7260WAT      O22021   9.476   2.930   5.262
 7260WAT     H122022   9.502   3.010   5.316
 7260WAT     H222023   9.556   2.891   5.217
 7261WAT      O22024   3.729   0.723   8.343
 7261WAT     H122025   3.747   0.713   8.245
 7261WAT     H222026   3.731   0.820   8.367
 7262WAT      O22027   6.705   7.039   9.780
 7262WAT     H122028   6.784   7.035   9.841
 7262WAT     H222029   6.711   7.121   9.722
 7263WAT      O22030   6.449   5.200   5.778
 7263WAT     H122031   6.444   5.170   5.683
 7263WAT     H222032   6.545   5.202   5.807
 7264WAT      O22033   9.046   4.661   8.792
 7264WAT     H122034   9.080   4.588   8.734
 7264WAT     H222035   8.991   4.622   8.866
 7265WAT      O22036   1.010   8.699   2.845
 7265WAT     H122037   0.973   8.620   2.797
 7265WAT     H222038   0.936   8.752   2.887
 7266WAT      O22039   8.982   0.989   3.479
 7266WAT     H122040   8.970   0.900   3.522
 7266WAT     H222041   8.898   1.042   3.489
 7267WAT      O22042   0.988   8.782   6.915
 7267WAT     H122043   1.018   8.689   6.936
 7267WAT     H222044   0.924   8.780   6.838
 7268WAT      O22045   4.802   9.074   8.291
 7268WAT     H122046   4.784   8.981   8.258
 7268WAT     H222047   4.733   9.099   8.359
 7269WAT      O22048   4.705   9.324   1.941
 7269WAT     H122049   4.725   9.387   2.016
 7269WAT     H222050   4.616   9.281   1.956
 7270WAT      O22051   0.642   6.606   7.451
 7270WAT     H122052   0.648   6.689   7.396
 7270WAT     H222053   0.548   6.571   7.449
 7271WAT      O22054   3.234   2.940   4.767
 7271WAT     H122055   3.224   3.023   4.821
 7271WAT     H222056   3.321   2.941   4.719
 7272WAT      O22057   1.389   9.313   7.950
 7272WAT     H122058   1.378   9.328   8.048
 7272WAT     H222059   1.351   9.392   7.900
 7273WAT      O22060   8.015   6.629   9.746
 7273WAT     H122061   7.955   6.710   9.752
 7273WAT     H222062   8.106   6.658   9.718
 7274WAT      O22063   8.140   2.142   8.683
 7274WAT     H122064   8.232   2.113   8.657
 7274WAT     H222065   8.078   2.063   8.684
 7275WAT      O22066   9.119   1.689   2.565
 7275WAT     H122067   9.088   1.658   2.655
 7275WAT     H222068   9.200   1.747   2.576
 7276WAT      O22069   1.445   4.384   8.182
 7276WAT     H122070   1.499   4.467   8.171
 7276WAT     H222071   1.436   4.338   8.094
 7277WAT      O22072   2.937   7.763   5.614
 7277WAT     H122073   2.934   7.785   5.516
 7277WAT     H222074   2.891   7.835   5.666
 7278WAT      O22075   2.737   5.147   3.624
 7278WAT     H122076   2.711   5.233   3.669
 7278WAT     H222077   2.744   5.074   3.692
 7279WAT      O22078   1.149   8.453   5.194
 7279WAT     H122079   1.205   8.413   5.122
 7279WAT     H222080   1.054   8.459   5.163
 7280WAT      O22081   8.564   4.252   5.474
 7280WAT     H122082   8.585   4.310   5.396
 7280WAT     H222083   8.489   4.191   5.451
 7281WAT      O22084   8.602   9.833   8.630
 7281WAT     H122085   8.624   9.912   8.572
 7281WAT     H222086   8.519   9.788   8.595
 7282WAT      O22087   6.473   4.837   5.517
 7282WAT     H122088   6.453   4.930   5.485
 7282WAT     H222089   6.555   4.803   5.470
 7283WAT      O22090   1.766   9.172   2.228
 7283WAT     H122091   1.830   9.125   2.167
 7283WAT     H222092   1.777   9.271   2.217
 7284WAT      O22093   0.194   3.133   1.308
 7284WAT     H122094   0.281   3.150   1.263
 7284WAT     H222095   0.144   3.219   1.318
 7285WAT      O22096   6.285   1.217   6.423
 7285WAT     H122097   6.364   1.262   6.382
 7285WAT     H222098   6.259   1.138   6.368
 7286WAT      O22099   2.628   6.634   7.741
 7286WAT     H122100   2.645   6.550   7.793
 7286WAT     H222101   2.533   6.634   7.709
 7287WAT      O22102   9.775   1.980   7.517
 7287WAT     H122103   9.822   1.894   7.502
 7287WAT     H222104   9.700   1.967   7.582
 7288WAT      O22105   8.930   5.421   8.009
 7288WAT     H122106   8.950   5.323   8.012
 7288WAT     H222107   8.832   5.436   8.018
 7289WAT      O22108   5.805   8.627   7.234
 7289WAT     H122109   5.776   8.715   7.273
 7289WAT     H222110   5.784   8.553   7.298
 7290WAT      O22111   7.219   6.500   4.664
 7290WAT     H122112   7.121   6.495   4.678
 7290WAT     H222113   7.238   6.546   4.577
 7291WAT      O22114   7.388   1.596   4.218
 7291WAT     H122115   7.424   1.507   4.245
 7291WAT     H222116   7.336   1.635   4.294
 7292WAT      O22117   9.624   1.607   1.179
 7292WAT     H122118   9.560   1.631   1.252
 7292WAT     H222119   9.574   1.594   1.094
 7293WAT      O22120   4.610   7.273   6.165
 7293WAT     H122121   4.709   7.275   6.176
 7293WAT     H222122   4.581   7.352   6.110
 7294WAT      O22123   0.928   0.216   3.411
 7294WAT     H122124   0.882   0.301   3.437
 7294WAT     H222125   1.024   0.235   3.392
 7295WAT      O22126   4.371   6.687   9.844
 7295WAT     H122127   4.404   6.749   9.915
 7295WAT     H222128   4.302   6.626   9.883
 7296WAT      O22129   1.375   6.385   6.674
 7296WAT     H122130   1.354   6.288   6.664
 7296WAT     H222131   1.319   6.438   6.611
 7297WAT      O22132   3.760   8.371   4.521
 7297WAT     H122133   3.768   8.368   4.422
 7297WAT     H222134   3.838   8.325   4.563
 7298WAT      O22135   2.996   6.016   7.164
 7298WAT     H122136   2.958   5.951   7.098
 7298WAT     H222137   3.018   6.102   7.117
 7299WAT      O22138   1.409   6.886   6.150
 7299WAT     H122139   1.361   6.900   6.237
 7299WAT     H222140   1.466   6.965   6.130
 7300WAT      O22141   5.626   2.160   0.509
 7300WAT     H122142   5.643   2.062   0.500
 7300WAT     H222143   5.603   2.181   0.604
 7301WAT      O22144   7.420   9.677   4.790
 7301WAT     H122145   7.375   9.757   4.830
 7301WAT     H222146   7.518   9.694   4.781
 7302WAT      O22147   6.320   9.662   6.061
 7302WAT     H122148   6.224   9.639   6.046
 7302WAT     H222149   6.334   9.685   6.158
 7303WAT      O22150   5.617   3.859   7.058
 7303WAT     H122151   5.684   3.913   7.109
 7303WAT     H222152   5.581   3.914   6.983
 7304WAT      O22153   7.559   2.718   1.216
 7304WAT     H122154   7.465   2.746   1.197
 7304WAT     H222155   7.559   2.648   1.287
 7305WAT      O22156   0.849   5.363   2.031
 7305WAT     H122157   0.832   5.361   2.129
 7305WAT     H222158   0.894   5.278   2.003
 7306WAT      O22159   7.926   3.927   7.748
 7306WAT     H122160   7.998   3.895   7.809
 7306WAT     H222161   7.870   3.850   7.718
 7307WAT      O22162   3.083   4.693   6.349
 7307WAT     H122163   3.155   4.697   6.279
 7307WAT     H222164   3.077   4.782   6.395
 7308WAT      O22165   0.025   0.319   9.396
 7308WAT     H122166  -0.005   0.276   9.311
 7308WAT     H222167   0.012   0.418   9.390
 7309WAT      O22168   8.397   3.921   0.427
 7309WAT     H122169   8.302   3.906   0.399
 7309WAT     H222170   8.458   3.866   0.369
 7310WAT      O22171   1.414   3.751   0.072
 7310WAT     H122172   1.450   3.819   0.136
 7310WAT     H222173   1.482   3.679   0.059
 7311WAT      O22174   1.674   4.976   4.171
 7311WAT     H122175   1.763   4.968   4.217
 7311WAT     H222176   1.652   5.072   4.155
 7312WAT      O22177   1.191   0.821   2.032
 7312WAT     H122178   1.220   0.733   1.993
 7312WAT     H222179   1.231   0.833   2.122
 7313WAT      O22180   3.815   8.278   5.128
 7313WAT     H122181   3.884   8.216   5.089
 7313WAT     H222182   3.860   8.343   5.190
 7314WAT      O22183   9.378   2.153   6.978
 7314WAT     H122184   9.358   2.188   7.070
 7314WAT     H222185   9.459   2.095   6.982
 7315WAT      O22186   2.591   7.274   1.402
 7315WAT     H122187   2.604   7.302   1.307
 7315WAT     H222188   2.534   7.193   1.406
 7316WAT      O22189   8.149   8.032   7.370
 7316WAT     H122190   8.062   7.987   7.351
 7316WAT     H222191   8.151   8.121   7.326
 7317WAT      O22192   1.008   3.045   9.004
 7317WAT     H122193   1.100   3.084   8.992
 7317WAT     H222194   1.009   2.948   8.978
 7318WAT      O22195   1.108   6.918   2.679
 7318WAT     H122196   1.108   6.846   2.610
 7318WAT     H222197   1.131   6.878   2.768
 7319WAT      O22198   9.470   4.722   1.892
 7319WAT     H122199   9.442   4.666   1.814
 7319WAT     H222200   9.499   4.812   1.860
 7320WAT      O22201   5.774   2.946   0.289
 7320WAT     H122202   5.795   2.853   0.317
 7320WAT     H222203   5.721   2.944   0.204
 7321WAT      O22204   2.647   4.991   0.728
 7321WAT     H122205   2.561   5.027   0.764
 7321WAT     H222206   2.721   5.008   0.793
 7322WAT      O22207   6.908   5.217   9.057
 7322WAT     H122208   6.899   5.275   8.976
 7322WAT     H222209   6.818   5.202   9.097
 7323WAT      O22210   8.431   9.655   7.409
 7323WAT     H122211   8.466   9.623   7.497
 7323WAT     H222212   8.361   9.725   7.424
 7324WAT      O22213   3.955   0.063   1.553
 7324WAT     H122214   3.889   0.132   1.581
 7324WAT     H222215   3.920  -0.028   1.577
 7325WAT      O22216   3.223   2.383   3.584
 7325WAT     H122217   3.277   2.453   3.537
 7325WAT     H222218   3.126   2.403   3.574
 7326WAT      O22219   5.419   2.735   1.140
 7326WAT     H122220   5.467   2.764   1.223
 7326WAT     H222221   5.484   2.732   1.064
 7327WAT      O22222   9.121   3.229   7.801
 7327WAT     H122223   9.139   3.300   7.870
 7327WAT     H222224   9.035   3.184   7.822
 7328WAT      O22225   2.267   5.441   0.484
 7328WAT     H122226   2.251   5.494   0.401
 7328WAT     H222227   2.194   5.460   0.551
 7329WAT      O22228   2.898   2.466   7.793
 7329WAT     H122229   2.929   2.386   7.843
 7329WAT     H222230   2.878   2.441   7.698
 7330WAT      O22231   4.722   5.481   9.789
 7330WAT     H122232   4.802   5.539   9.805
 7330WAT     H222233   4.639   5.533   9.805
 7331WAT      O22234   2.383   4.534   7.936
 7331WAT     H122235   2.400   4.574   7.846
 7331WAT     H222236   2.450   4.462   7.953
 7332WAT      O22237   7.414   9.710   5.409
 7332WAT     H122238   7.513   9.717   5.409
 7332WAT     H222239   7.386   9.629   5.357
 7333WAT      O22240   7.311   0.592   8.594
 7333WAT     H122241   7.372   0.513   8.594
 7333WAT     H222242   7.219   0.563   8.567
 7334WAT      O22243   4.229   7.667   1.596
 7334WAT     H122244   4.186   7.636   1.681
 7334WAT     H222245   4.158   7.682   1.527
 7335WAT      O22246   1.032   3.558   0.699
 7335WAT     H122247   0.993   3.635   0.649
 7335WAT     H222248   1.131   3.565   0.698
 7336WAT      O22249   1.411   1.641   4.848
 7336WAT     H122250   1.340   1.682   4.790
 7336WAT     H222251   1.477   1.712   4.873
 7337WAT      O22252   8.844   6.101   8.407
 7337WAT     H122253   8.799   6.021   8.447
 7337WAT     H222254   8.930   6.119   8.455
 7338WAT      O22255   7.947   6.827   6.790
 7338WAT     H122256   7.983   6.825   6.697
 7338WAT     H222257   7.864   6.772   6.795
 7339WAT      O22258   9.261   8.723   3.952
 7339WAT     H122259   9.339   8.724   4.015
 7339WAT     H222260   9.229   8.816   3.936
 7340WAT      O22261   2.727   7.010   4.258
 7340WAT     H122262   2.801   7.076   4.241
 7340WAT     H222263   2.648   7.035   4.202
 7341WAT      O22264   3.678   3.337   1.119
 7341WAT     H122265   3.580   3.333   1.099
 7341WAT     H222266   3.714   3.244   1.128
 7342WAT      O22267   6.250   7.127   1.542
 7342WAT     H122268   6.261   7.033   1.575
 7342WAT     H222269   6.168   7.167   1.584
 7343WAT      O22270   3.824   8.111   7.352
 7343WAT     H122271   3.893   8.089   7.420
 7343WAT     H222272   3.740   8.141   7.397
 7344WAT      O22273   9.189   8.984   4.497
 7344WAT     H122274   9.231   8.914   4.439
 7344WAT     H222275   9.097   9.003   4.463
 7345WAT      O22276   1.426   4.536   8.755
 7345WAT     H122277   1.525   4.530   8.744
 7345WAT     H222278   1.398   4.631   8.763
 7346WAT      O22279   0.939   9.490   5.423
 7346WAT     H122280   0.964   9.532   5.511
 7346WAT     H222281   0.873   9.416   5.439
 7347WAT      O22282   8.753   9.207   6.715
 7347WAT     H122283   8.844   9.235   6.683
 7347WAT     H222284   8.686   9.276   6.688
 7348WAT      O22285   9.175   7.242   9.828
 7348WAT     H122286   9.229   7.268   9.909
 7348WAT     H222287   9.115   7.317   9.802
 7349WAT      O22288   4.037   5.734   0.829
 7349WAT     H122289   3.947   5.757   0.865
 7349WAT     H222290   4.026   5.669   0.753
 7350WAT      O22291   0.902   2.260   6.528
 7350WAT     H122292   0.894   2.230   6.623
 7350WAT     H222293   0.875   2.356   6.520
 7351WAT      O22294   2.285   4.430   2.643
 7351WAT     H122295   2.270   4.425   2.544
 7351WAT     H222296   2.364   4.373   2.667
 7352WAT      O22297   7.839   7.685   0.233
 7352WAT     H122298   7.910   7.747   0.266
 7352WAT     H222299   7.755   7.737   0.217
 7353WAT      O22300   1.438   8.343   8.296
 7353WAT     H122301   1.459   8.246   8.286
 7353WAT     H222302   1.514   8.389   8.343
 7354WAT      O22303   9.699   5.000   2.032
 7354WAT     H122304   9.736   4.935   1.966
 7354WAT     H222305   9.655   4.951   2.107
 7355WAT      O22306   9.124   2.304   7.623
 7355WAT     H122307   9.134   2.213   7.664
 7355WAT     H222308   9.038   2.309   7.573
 7356WAT      O22309   7.639   3.293   1.743
 7356WAT     H122310   7.567   3.267   1.679
 7356WAT     H222311   7.607   3.368   1.801
 7357WAT      O22312   7.160   5.394   5.482
 7357WAT     H122313   7.181   5.390   5.384
 7357WAT     H222314   7.241   5.368   5.534
 7358WAT      O22315   6.001   6.789   9.885
 7358WAT     H122316   6.045   6.822   9.801
 7358WAT     H222317   5.931   6.854   9.913
 7359WAT      O22318   8.479   0.969   8.879
 7359WAT     H122319   8.470   0.882   8.927
 7359WAT     H222320   8.570   0.976   8.840
 7360WAT      O22321   4.690   7.947   4.700
 7360WAT     H122322   4.720   7.986   4.613
 7360WAT     H222323   4.608   7.892   4.685
 7361WAT      O22324   4.091   8.019   1.021
 7361WAT     H122325   4.127   7.960   0.950
 7361WAT     H222326   3.991   8.014   1.022
 7362WAT      O22327   3.269   4.875   2.861
 7362WAT     H122328   3.205   4.863   2.937
 7362WAT     H222329   3.352   4.820   2.878
 7363WAT      O22330   9.395   3.889   3.324
 7363WAT     H122331   9.358   3.822   3.389
 7363WAT     H222332   9.325   3.913   3.258
 7364WAT      O22333   2.266   1.835   6.580
 7364WAT     H122334   2.177   1.865   6.549
 7364WAT     H222335   2.255   1.777   6.661
 7365WAT      O22336   5.228   3.149   9.814
 7365WAT     H122337   5.153   3.107   9.865
 7365WAT     H222338   5.289   3.197   9.877
 7366WAT      O22339   3.837   4.296   1.741
 7366WAT     H122340   3.936   4.314   1.747
 7366WAT     H222341   3.822   4.206   1.700
 7367WAT      O22342   8.380   0.979   7.051
 7367WAT     H122343   8.432   1.030   6.982
 7367WAT     H222344   8.334   0.901   7.007
 7368WAT      O22345   8.549   1.024   5.791
 7368WAT     H122346   8.567   1.119   5.766
 7368WAT     H222347   8.531   1.018   5.889
 7369WAT      O22348   6.489   8.867   4.421
 7369WAT     H122349   6.584   8.838   4.432
 7369WAT     H222350   6.428   8.796   4.455
 7370WAT      O22351   2.265   3.628   8.593
 7370WAT     H122352   2.176   3.673   8.591
 7370WAT     H222353   2.304   3.626   8.501
 7371WAT      O22354   7.903   3.838   7.166
 7371WAT     H122355   7.981   3.885   7.207
 7371WAT     H222356   7.850   3.793   7.238
 7372WAT      O22357   3.483   1.479   8.405
 7372WAT     H122358   3.536   1.563   8.413
 7372WAT     H222359   3.544   1.400   8.415
 7373WAT      O22360   7.053   5.459   9.272
 7373WAT     H122361   7.015   5.385   9.216
 7373WAT     H222362   6.980   5.524   9.295
 7374WAT      O22363   9.174   7.916   9.734
 7374WAT     H122364   9.254   7.975   9.745
 7374WAT     H222365   9.155   7.904   9.637
 7375WAT      O22366   2.754   2.341   7.585
 7375WAT     H122367   2.680   2.374   7.527
 7375WAT     H222368   2.726   2.256   7.630
 7376WAT      O22369   6.569   1.787   8.603
 7376WAT     H122370   6.521   1.810   8.688
 7376WAT     H222371   6.508   1.802   8.525
 7377WAT      O22372   1.320   9.105   4.488
 7377WAT     H122373   1.379   9.151   4.422
 7377WAT     H222374   1.360   9.017   4.514
 7378WAT      O22375   1.376   2.778   8.618
 7378WAT     H122376   1.298   2.813   8.567
 7378WAT     H222377   1.386   2.680   8.600
 7379WAT      O22378   5.957   5.092   6.251
 7379WAT     H122379   6.048   5.064   6.284
 7379WAT     H222380   5.966   5.173   6.194
 7380WAT      O22381   3.620   0.221   0.773
 7380WAT     H122382   3.552   0.270   0.828
 7380WAT     H222383   3.655   0.143   0.825
 7381WAT      O22384   6.507   9.582   5.722
 7381WAT     H122385   6.514   9.588   5.622
 7381WAT     H222386   6.508   9.486   5.750
 7382WAT      O22387   8.799   5.476   5.249
 7382WAT     H122388   8.874   5.495   5.313
 7382WAT     H222389   8.780   5.557   5.195
 7383WAT      O22390   4.436   4.773   7.714
 7383WAT     H122391   4.419   4.856   7.766
 7383WAT     H222392   4.433   4.693   7.775
 7384WAT      O22393   1.022   8.244   2.941
 7384WAT     H122394   1.120   8.264   2.937
 7384WAT     H222395   1.005   8.151   2.906
 7385WAT      O22396   7.985   2.818   1.487
 7385WAT     H122397   7.939   2.824   1.576
 7385WAT     H222398   8.075   2.861   1.494
 7386WAT      O22399   0.005   9.580   1.374
 7386WAT     H122400  -0.070   9.643   1.395
 7386WAT     H222401  -0.001   9.501   1.435
 7387WAT      O22402   4.377   0.625   6.365
 7387WAT     H122403   4.428   0.705   6.332
 7387WAT     H222404   4.432   0.543   6.353
 7388WAT      O22405   5.705   9.626   1.219
 7388WAT     H122406   5.628   9.690   1.219
 7388WAT     H222407   5.721   9.592   1.126
 7389WAT      O22408   7.640   8.515   0.092
 7389WAT     H122409   7.542   8.535   0.087
 7389WAT     H222410   7.674   8.538   0.183
 7390WAT      O22411   7.485   1.573   1.365
 7390WAT     H122412   7.554   1.567   1.437
 7390WAT     H222413   7.423   1.494   1.371
 7391WAT      O22414   4.269   2.189   8.999
 7391WAT     H122415   4.363   2.162   8.981
 7391WAT     H222416   4.264   2.239   9.085
 7392WAT      O22417   4.859   0.592   9.035
 7392WAT     H122418   4.803   0.568   9.115
 7392WAT     H222419   4.807   0.572   8.952
 7393WAT      O22420   1.162   4.974   2.279
 7393WAT     H122421   1.257   4.958   2.307
 7393WAT     H222422   1.160   5.012   2.187
 7394WAT      O22423   3.097   5.342   9.448
 7394WAT     H122424   3.115   5.315   9.353
 7394WAT     H222425   3.174   5.397   9.481
 7395WAT      O22426   7.419   5.220   7.226
 7395WAT     H122427   7.444   5.187   7.317
 7395WAT     H222428   7.502   5.224   7.169
 7396WAT      O22429   2.080   7.148   8.437
 7396WAT     H122430   2.055   7.241   8.464
 7396WAT     H222431   2.062   7.086   8.514
 7397WAT      O22432   3.463   5.297   8.428
 7397WAT     H122433   3.536   5.353   8.388
 7397WAT     H222434   3.439   5.333   8.518
 7398WAT      O22435   6.694   8.069   9.460
 7398WAT     H122436   6.747   8.083   9.376
 7398WAT     H222437   6.715   8.141   9.525
 7399WAT      O22438   2.794   4.853   1.385
 7399WAT     H122439   2.697   4.879   1.387
 7399WAT     H222440   2.818   4.820   1.294
 7400WAT      O22441   9.876   9.235   4.077
 7400WAT     H122442   9.914   9.199   4.162
 7400WAT     H222443   9.929   9.200   4.000
 7401WAT      O22444   3.737   3.467   0.094
 7401WAT     H122445   3.774   3.392   0.040
 7401WAT     H222446   3.762   3.554   0.051
 7402WAT      O22447   9.125   7.325   9.484
 7402WAT     H122448   9.154   7.230   9.471
 7402WAT     H222449   9.075   7.333   9.570
 7403WAT      O22450   5.131   8.827   4.897
 7403WAT     H122451   5.069   8.763   4.851
 7403WAT     H222452   5.201   8.858   4.832
 7404WAT      O22453   0.697   3.572   6.477
 7404WAT     H122454   0.653   3.563   6.388
 7404WAT     H222455   0.636   3.538   6.548
 7405WAT      O22456   3.180   2.363   9.883
 7405WAT     H122457   3.130   2.398   9.804
 7405WAT     H222458   3.136   2.279   9.916
 7406WAT      O22459   3.390   1.445   7.973
 7406WAT     H122460   3.322   1.479   7.909
 7406WAT     H222461   3.395   1.505   8.053
 7407WAT      O22462   6.550   3.212   3.648
 7407WAT     H122463   6.463   3.176   3.681
 7407WAT     H222464   6.549   3.216   3.548
 7408WAT      O22465   4.807   2.625   0.279
 7408WAT     H122466   4.734   2.613   0.212
 7408WAT     H222467   4.801   2.553   0.348
 7409WAT      O22468   6.410   6.393   3.275
 7409WAT     H122469   6.420   6.293   3.282
 7409WAT     H222470   6.466   6.437   3.344
 7410WAT      O22471   9.636   1.790   9.304
 7410WAT     H122472   9.735   1.780   9.313
 7410WAT     H222473   9.601   1.723   9.238
 7411WAT      O22474   0.176   2.071   0.241
 7411WAT     H122475   0.121   2.005   0.191
 7411WAT     H222476   0.193   2.151   0.183
 7412WAT      O22477   9.369   5.070   5.667
 7412WAT     H122478   9.415   5.032   5.747
 7412WAT     H222479   9.344   4.996   5.604
 7413WAT      O22480   8.498   3.977   7.207
 7413WAT     H122481   8.568   4.003   7.141
 7413WAT     H222482   8.409   3.973   7.161
 7414WAT      O22483   0.278   8.069   8.819
 7414WAT     H122484   0.239   8.142   8.875
 7414WAT     H222485   0.339   8.012   8.875
 7415WAT      O22486   8.761   1.134   4.111
 7415WAT     H122487   8.685   1.148   4.175
 7415WAT     H222488   8.833   1.200   4.131
 7416WAT      O22489   2.579   8.944   1.582
 7416WAT     H122490   2.610   8.896   1.663
 7416WAT     H222491   2.484   8.973   1.595
 7417WAT      O22492   2.411   8.345   3.208
 7417WAT     H122493   2.489   8.393   3.166
 7417WAT     H222494   2.332   8.350   3.147
 7418WAT      O22495   1.429   8.177   1.221
 7418WAT     H122496   1.457   8.159   1.127
 7418WAT     H222497   1.349   8.238   1.221
 7419WAT      O22498   7.760   0.212   2.820
 7419WAT     H122499   7.724   0.283   2.881
 7419WAT     H222500   7.790   0.255   2.734
 7420WAT      O22501   0.224   4.636   2.990
 7420WAT     H122502   0.238   4.719   2.936
 7420WAT     H222503   0.249   4.556   2.935
 7421WAT      O22504   4.840   7.480   2.150
 7421WAT     H122505   4.902   7.402   2.158
 7421WAT     H222506   4.854   7.525   2.062
 7422WAT      O22507   9.502   6.931   2.541
 7422WAT     H122508   9.591   6.935   2.586
 7422WAT     H222509   9.514   6.896   2.448
 7423WAT      O22510   5.095   1.619   3.334
 7423WAT     H122511   5.178   1.669   3.361
 7423WAT     H222512   5.034   1.611   3.412
 7424WAT      O22513   3.439   6.288   4.162
 7424WAT     H122514   3.346   6.278   4.198
 7424WAT     H222515   3.479   6.198   4.148
 7425WAT      O22516   8.635   5.161   9.737
 7425WAT     H122517   8.565   5.157   9.666
 7425WAT     H222518   8.687   5.076   9.738
 7426WAT      O22519   3.749   1.527   0.293
 7426WAT     H122520   3.768   1.429   0.296
 7426WAT     H222521   3.671   1.548   0.352
 7427WAT      O22522   0.450   4.686   8.494
 7427WAT     H122523   0.384   4.759   8.478
 7427WAT     H222524   0.411   4.619   8.558
 7428WAT      O22525   6.529   7.983   8.830
 7428WAT     H122526   6.473   7.927   8.892
 7428WAT     H222527   6.582   8.049   8.883
 7429WAT      O22528   6.213   4.409   2.742
 7429WAT     H122529   6.281   4.466   2.787
 7429WAT     H222530   6.122   4.451   2.752
 7430WAT      O22531   8.878   3.384   3.857
 7430WAT     H122532   8.965   3.384   3.807
 7430WAT     H222533   8.891   3.341   3.947
 7431WAT      O22534   7.911   1.286   2.107
 7431WAT     H122535   7.820   1.327   2.119
 7431WAT     H222536   7.961   1.289   2.194
 7432WAT      O22537   3.550   6.711   5.713
 7432WAT     H122538   3.572   6.805   5.737
 7432WAT     H222539   3.566   6.696   5.616
 7433WAT      O22540   7.604   2.734   5.191
 7433WAT     H122541   7.539   2.736   5.115
 7433WAT     H222542   7.674   2.804   5.176
 7434WAT      O22543   0.170   8.086   4.422
 7434WAT     H122544   0.241   8.048   4.362
 7434WAT     H222545   0.206   8.167   4.468
 7435WAT      O22546   7.525   8.950   2.859
 7435WAT     H122547   7.470   9.033   2.858
 7435WAT     H222548   7.565   8.937   2.949
 7436WAT      O22549   3.386   1.783   1.199
 7436WAT     H122550   3.320   1.788   1.124
 7436WAT     H222551   3.441   1.699   1.189
 7437WAT      O22552   5.588   4.655   2.123
 7437WAT     H122553   5.603   4.746   2.163
 7437WAT     H222554   5.671   4.600   2.133
 7438WAT      O22555   9.227   0.069   2.265
 7438WAT     H122556   9.192   0.046   2.356
 7438WAT     H222557   9.303   0.134   2.274
 7439WAT      O22558   0.886   7.252   7.693
 7439WAT     H122559   0.897   7.337   7.745
 7439WAT     H222560   0.905   7.270   7.596
 7440WAT      O22561   8.875   0.022   4.406
 7440WAT     H122562   8.931   0.102   4.426
 7440WAT     H222563   8.788   0.052   4.366
 7441WAT      O22564   8.268   7.357   5.536
 7441WAT     H122565   8.367   7.363   5.523
 7441WAT     H222566   8.231   7.285   5.477
 7442WAT      O22567   4.370   8.746   7.111
 7442WAT     H122568   4.459   8.723   7.151
 7442WAT     H222569   4.297   8.711   7.170
 7443WAT      O22570   5.963   6.299   3.166
 7443WAT     H122571   6.053   6.339   3.151
 7443WAT     H222572   5.902   6.327   3.092
 7444WAT      O22573   8.493   4.754   7.728
 7444WAT     H122574   8.559   4.698   7.678
 7444WAT     H222575   8.419   4.696   7.762
 7445WAT      O22576   4.083   9.159   6.058
 7445WAT     H122577   4.167   9.208   6.079
 7445WAT     H222578   4.103   9.061   6.049
 7446WAT      O22579   4.590   9.634   7.677
 7446WAT     H122580   4.590   9.555   7.616
 7446WAT     H222581   4.685   9.660   7.698
 7447WAT      O22582   2.775   5.505   6.601
 7447WAT     H122583   2.687   5.549   6.617
 7447WAT     H222584   2.832   5.564   6.543
 7448WAT      O22585   0.252   7.266   5.929
 7448WAT     H122586   0.204   7.289   5.844
 7448WAT     H222587   0.218   7.325   6.002
 7449WAT      O22588   7.669   4.371   0.704
 7449WAT     H122589   7.703   4.458   0.740
 7449WAT     H222590   7.569   4.371   0.708
 7450WAT      O22591   7.861   0.229   8.823
 7450WAT     H122592   7.925   0.208   8.897
 7450WAT     H222593   7.853   0.149   8.762
 7451WAT      O22594   5.980   6.237   6.774
 7451WAT     H122595   5.951   6.277   6.687
 7451WAT     H222596   6.045   6.163   6.756
 7452WAT      O22597   7.220   2.346   6.156
 7452WAT     H122598   7.261   2.381   6.240
 7452WAT     H222599   7.292   2.311   6.096
 7453WAT      O22600   6.515   8.931   8.016
 7453WAT     H122601   6.464   8.951   8.099
 7453WAT     H222602   6.461   8.872   7.956
 7454WAT      O22603   5.673   7.232   9.240
 7454WAT     H122604   5.705   7.320   9.205
 7454WAT     H222605   5.578   7.240   9.269
 7455WAT      O22606   2.039   9.171   9.440
 7455WAT     H122607   2.060   9.172   9.342
 7455WAT     H222608   1.940   9.162   9.453
 7456WAT      O22609   1.485   5.404   6.221
 7456WAT     H122610   1.409   5.469   6.209
 7456WAT     H222611   1.568   5.443   6.181
 7457WAT      O22612   5.490   4.943   4.892
 7457WAT     H122613   5.390   4.937   4.884
 7457WAT     H222614   5.520   4.890   4.970
 7458WAT      O22615   2.186   4.024   2.977
 7458WAT     H122616   2.142   4.109   3.005
 7458WAT     H222617   2.274   4.016   3.024
 7459WAT      O22618   3.901   1.279   6.518
 7459WAT     H122619   3.914   1.280   6.419
 7459WAT     H222620   3.804   1.284   6.539
 7460WAT      O22621   8.654   0.047   6.980
 7460WAT     H122622   8.577   0.002   6.935
 7460WAT     H222623   8.664   0.012   7.073
 7461WAT      O22624   8.161   5.024   2.357
 7461WAT     H122625   8.121   5.107   2.397
 7461WAT     H222626   8.261   5.027   2.365
 7462WAT      O22627   9.133   2.042   2.765
 7462WAT     H122628   9.228   2.052   2.796
 7462WAT     H222629   9.131   2.040   2.665
 7463WAT      O22630   4.561   4.444   7.109
 7463WAT     H122631   4.597   4.536   7.090
 7463WAT     H222632   4.519   4.407   7.027
 7464WAT      O22633   5.216   7.782   8.206
 7464WAT     H122634   5.240   7.863   8.152
 7464WAT     H222635   5.150   7.808   8.277
 7465WAT      O22636   0.760   6.210   1.747
 7465WAT     H122637   0.664   6.236   1.740
 7465WAT     H222638   0.780   6.180   1.841
 7466WAT      O22639   1.129   4.305   6.684
 7466WAT     H122640   1.154   4.397   6.655
 7466WAT     H222641   1.187   4.239   6.636
 7467WAT      O22642   7.810   8.180   8.312
 7467WAT     H122643   7.718   8.156   8.343
 7467WAT     H222644   7.804   8.223   8.222
 7468WAT      O22645   9.610   2.842   9.616
 7468WAT     H122646   9.569   2.761   9.658
 7468WAT     H222647   9.700   2.860   9.658
 7469WAT      O22648   7.100   3.351   6.716
 7469WAT     H122649   7.039   3.428   6.696
 7469WAT     H222650   7.064   3.300   6.794
 7470WAT      O22651   5.721   2.788   2.675
 7470WAT     H122652   5.758   2.695   2.665
 7470WAT     H222653   5.685   2.819   2.588
 7471WAT      O22654   0.763   7.525   3.176
 7471WAT     H122655   0.666   7.518   3.155
 7471WAT     H222656   0.798   7.612   3.141
 7472WAT      O22657   1.817   5.708   7.756
 7472WAT     H122658   1.831   5.714   7.855
 7472WAT     H222659   1.807   5.800   7.718
 7473WAT      O22660   0.432   1.368   8.517
 7473WAT     H122661   0.385   1.298   8.570
 7473WAT     H222662   0.410   1.458   8.553
 7474WAT      O22663   9.618   8.947   9.628
 7474WAT     H122664   9.638   8.878   9.698
 7474WAT     H222665   9.695   9.009   9.618
 7475WAT      O22666   4.379   1.499   7.611
 7475WAT     H122667   4.361   1.443   7.531
 7475WAT     H222668   4.478   1.507   7.626
 7476WAT      O22669   3.751   3.895   0.099
 7476WAT     H122670   3.747   3.840   0.016
 7476WAT     H222671   3.691   3.856   0.169
 7477WAT      O22672   9.327   8.654   7.383
 7477WAT     H122673   9.238   8.693   7.358
 7477WAT     H222674   9.347   8.676   7.478
 7478WAT      O22675   5.886   5.931   7.675
 7478WAT     H122676   5.818   5.863   7.704
 7478WAT     H222677   5.863   5.965   7.584
 7479WAT      O22678   6.708   0.118   0.902
 7479WAT     H122679   6.680   0.161   0.987
 7479WAT     H222680   6.633   0.123   0.836
 7480WAT      O22681   8.127   5.866   5.910
 7480WAT     H122682   8.092   5.777   5.937
 7480WAT     H222683   8.221   5.857   5.876
 7481WAT      O22684   1.425   8.114   5.326
 7481WAT     H122685   1.436   8.134   5.424
 7481WAT     H222686   1.334   8.077   5.310
 7482WAT      O22687   1.040   4.391   9.487
 7482WAT     H122688   1.127   4.399   9.439
 7482WAT     H222689   0.971   4.355   9.424
 7483WAT      O22690   2.605   7.687   5.485
 7483WAT     H122691   2.625   7.590   5.500
 7483WAT     H222692   2.602   7.734   5.574
 7484WAT      O22693   7.428   3.846   1.124
 7484WAT     H122694   7.513   3.894   1.105
 7484WAT     H222695   7.392   3.876   1.212
 7485WAT      O22696   3.391   1.269   5.855
 7485WAT     H122697   3.477   1.260   5.903
 7485WAT     H222698   3.402   1.238   5.760
 7486WAT      O22699   9.185   6.287   6.460
 7486WAT     H122700   9.160   6.205   6.408
 7486WAT     H222701   9.103   6.328   6.499
 7487WAT      O22702   2.344   2.563   5.330
 7487WAT     H122703   2.436   2.568   5.368
 7487WAT     H222704   2.346   2.596   5.235
 7488WAT      O22705   6.209   4.894   5.576
 7488WAT     H122706   6.244   4.820   5.519
 7488WAT     H222707   6.285   4.946   5.614
 7489WAT      O22708   4.496   3.546   3.804
 7489WAT     H122709   4.557   3.467   3.802
 7489WAT     H222710   4.548   3.628   3.780
 7490WAT      O22711   5.573   6.510   2.274
 7490WAT     H122712   5.486   6.544   2.236
 7490WAT     H222713   5.594   6.421   2.233
 7491WAT      O22714   6.917   2.325   8.310
 7491WAT     H122715   6.847   2.269   8.353
 7491WAT     H222716   6.943   2.285   8.221
 7492WAT      O22717   8.571   0.148   8.044
 7492WAT     H122718   8.487   0.132   8.097
 7492WAT     H222719   8.547   0.192   7.958
 7493WAT      O22720   4.133   4.139   8.734
 7493WAT     H122721   4.119   4.202   8.810
 7493WAT     H222722   4.065   4.066   8.738
 7494WAT      O22723   9.505   0.180   6.593
 7494WAT     H122724   9.441   0.129   6.536
 7494WAT     H222725   9.589   0.127   6.605
 7495WAT      O22726   3.701   1.424   6.799
 7495WAT     H122727   3.742   1.515   6.809
 7495WAT     H222728   3.692   1.382   6.889
 7496WAT      O22729   6.662   8.590   4.269
 7496WAT     H122730   6.579   8.593   4.325
 7496WAT     H222731   6.731   8.533   4.313
 7497WAT      O22732   4.867   3.426   1.405
 7497WAT     H122733   4.845   3.481   1.485
 7497WAT     H222734   4.843   3.330   1.422
 7498WAT      O22735   2.282   6.386   3.529
 7498WAT     H122736   2.288   6.287   3.518
 7498WAT     H222737   2.222   6.408   3.605
 7499WAT      O22738   6.229   4.374   6.471
 7499WAT     H122739   6.310   4.426   6.497
 7499WAT     H222740   6.196   4.321   6.549
 7500WAT      O22741   7.382   6.006   3.648
 7500WAT     H122742   7.464   5.949   3.645
 7500WAT     H222743   7.346   6.016   3.555
 7501WAT      O22744   1.840   2.011   0.060
 7501WAT     H122745   1.795   2.054   0.138
 7501WAT     H222746   1.772   1.983  -0.007
 7502WAT      O22747   3.194   4.595   3.000
 7502WAT     H122748   3.185   4.498   3.022
 7502WAT     H222749   3.291   4.618   2.993
 7503WAT      O22750   4.157   6.718   1.283
 7503WAT     H122751   4.177   6.712   1.185
 7503WAT     H222752   4.132   6.627   1.317
 7504WAT      O22753   0.284   6.499   6.246
 7504WAT     H122754   0.311   6.402   6.243
 7504WAT     H222755   0.289   6.538   6.155
 7505WAT      O22756   5.903   8.035   1.198
 7505WAT     H122757   5.824   8.086   1.231
 7505WAT     H222758   5.979   8.098   1.183
 7506WAT      O22759   7.470   9.412   1.873
 7506WAT     H122760   7.513   9.502   1.867
 7506WAT     H222761   7.432   9.387   1.784
 7507WAT      O22762   7.704   9.671   5.204
 7507WAT     H122763   7.800   9.656   5.185
 7507WAT     H222764   7.680   9.766   5.183
 7508WAT      O22765   6.570   3.862   4.063
 7508WAT     H122766   6.588   3.940   4.123
 7508WAT     H222767   6.639   3.791   4.080
 7509WAT      O22768   8.251   4.806   9.670
 7509WAT     H122769   8.230   4.816   9.768
 7509WAT     H222770   8.227   4.891   9.623
 7510WAT      O22771   9.099   8.328   1.820
 7510WAT     H122772   9.112   8.375   1.908
 7510WAT     H222773   9.024   8.263   1.828
 7511WAT      O22774   9.373   2.393   4.852
 7511WAT     H122775   9.359   2.400   4.951
 7511WAT     H222776   9.303   2.333   4.813
 7512WAT      O22777   8.743   2.460   8.906
 7512WAT     H122778   8.819   2.396   8.914
 7512WAT     H222779   8.659   2.409   8.888
 7513WAT      O22780   1.534   5.490   5.474
 7513WAT     H122781   1.535   5.462   5.378
 7513WAT     H222782   1.629   5.498   5.506
 7514WAT      O22783   5.505   6.071   1.613
 7514WAT     H122784   5.595   6.107   1.637
 7514WAT     H222785   5.475   6.113   1.527
 7515WAT      O22786   0.511   3.895   1.988
 7515WAT     H122787   0.487   3.988   1.959
 7515WAT     H222788   0.514   3.890   2.088
 7516WAT      O22789   1.116   5.671   1.515
 7516WAT     H122790   1.087   5.719   1.598
 7516WAT     H222791   1.060   5.589   1.502
 7517WAT      O22792   9.780   3.598   1.984
 7517WAT     H122793   9.720   3.541   2.040
 7517WAT     H222794   9.737   3.688   1.971
 7518WAT      O22795   3.328   9.120   8.650
 7518WAT     H122796   3.379   9.064   8.716
 7518WAT     H222797   3.254   9.066   8.610
 7519WAT      O22798   8.991   0.265   4.377
 7519WAT     H122799   8.996   0.287   4.280
 7519WAT     H222800   8.935   0.333   4.425
 7520WAT      O22801   9.130   1.347   5.251
 7520WAT     H122802   9.142   1.347   5.151
 7520WAT     H222803   9.159   1.259   5.288
 7521WAT      O22804   0.351   1.669   6.276
 7521WAT     H122805   0.261   1.644   6.310
 7521WAT     H222806   0.391   1.591   6.226
 7522WAT      O22807   3.258   8.504   1.112
 7522WAT     H122808   3.163   8.534   1.115
 7522WAT     H222809   3.300   8.517   1.202
 7523WAT      O22810   0.492   7.712   4.920
 7523WAT     H122811   0.482   7.797   4.868
 7523WAT     H222812   0.423   7.646   4.890
 7524WAT      O22813   2.695   6.940   0.071
 7524WAT     H122814   2.677   6.871   0.001
 7524WAT     H222815   2.655   6.911   0.158
 7525WAT      O22816   9.147   1.296   4.962
 7525WAT     H122817   9.132   1.198   4.968
 7525WAT     H222818   9.233   1.314   4.914
 7526WAT      O22819   1.359   5.771   2.821
 7526WAT     H122820   1.411   5.776   2.906
 7526WAT     H222821   1.317   5.680   2.813
 7527WAT      O22822   5.603   9.460   5.045
 7527WAT     H122823   5.589   9.496   5.137
 7527WAT     H222824   5.673   9.514   4.998
 7528WAT      O22825   6.029   2.506   8.739
 7528WAT     H122826   5.991   2.426   8.693
 7528WAT     H222827   5.961   2.579   8.741
 7529WAT      O22828   3.926   5.540   1.881
 7529WAT     H122829   4.017   5.507   1.855
 7529WAT     H222830   3.928   5.639   1.896
 7530WAT      O22831   7.635   3.270   3.633
 7530WAT     H122832   7.549   3.290   3.680
 7530WAT     H222833   7.647   3.335   3.558
 7531WAT      O22834   9.573   2.078   8.397
 7531WAT     H122835   9.641   2.076   8.470
 7531WAT     H222836   9.618   2.066   8.308
 7532WAT      O22837   9.796   3.741   1.547
 7532WAT     H122838   9.872   3.734   1.612
 7532WAT     H222839   9.780   3.652   1.506
 7533WAT      O22840   2.290   8.026   1.249
 7533WAT     H122841   2.273   7.999   1.344
 7533WAT     H222842   2.211   8.078   1.215
 7534WAT      O22843   2.525   2.618   1.281
 7534WAT     H122844   2.569   2.621   1.370
 7534WAT     H222845   2.593   2.597   1.211
 7535WAT      O22846   7.241   6.181   5.096
 7535WAT     H122847   7.203   6.273   5.095
 7535WAT     H222848   7.249   6.147   5.002
 7536WAT      O22849   0.400   8.789   4.471
 7536WAT     H122850   0.403   8.772   4.569
 7536WAT     H222851   0.492   8.787   4.433
 7537WAT      O22852   9.823   6.182   6.246
 7537WAT     H122853   9.737   6.145   6.281
 7537WAT     H222854   9.884   6.107   6.221
 7538WAT      O22855   7.071   2.307   3.173
 7538WAT     H122856   6.984   2.308   3.125
 7538WAT     H222857   7.055   2.296   3.272
 7539WAT      O22858   7.355   2.320   2.849
 7539WAT     H122859   7.374   2.398   2.789
 7539WAT     H222860   7.256   2.310   2.860
 7540WAT      O22861   6.054   4.709   2.229
 7540WAT     H122862   6.098   4.704   2.319
 7540WAT     H222863   6.107   4.656   2.163
 7541WAT      O22864   7.543   7.991   6.753
 7541WAT     H122865   7.569   7.937   6.834
 7541WAT     H222866   7.567   8.087   6.768
 7542WAT      O22867   6.379   6.985   1.795
 7542WAT     H122868   6.453   7.011   1.733
 7542WAT     H222869   6.330   6.906   1.758
 7543WAT      O22870   2.782   5.008   7.586
 7543WAT     H122871   2.686   4.989   7.606
 7543WAT     H222872   2.808   4.963   7.500
 7544WAT      O22873   4.189   5.762   4.763
 7544WAT     H122874   4.115   5.704   4.797
 7544WAT     H222875   4.213   5.829   4.833
 7545WAT      O22876   1.757   8.624   6.458
 7545WAT     H122877   1.817   8.551   6.424
 7545WAT     H222878   1.663   8.605   6.431
 7546WAT      O22879   7.405   2.947   6.273
 7546WAT     H122880   7.387   2.891   6.193
 7546WAT     H222881   7.321   2.994   6.301
 7547WAT      O22882   5.616   6.402   8.148
 7547WAT     H122883   5.706   6.437   8.120
 7547WAT     H222884   5.548   6.424   8.078
 7548WAT      O22885   9.117   6.785   4.478
 7548WAT     H122886   9.141   6.869   4.527
 7548WAT     H222887   9.153   6.789   4.385
 7549WAT      O22888   2.000   3.071   6.357
 7549WAT     H122889   1.933   3.023   6.413
 7549WAT     H222890   1.957   3.148   6.310
 7550WAT      O22891   4.470   8.904   5.427
 7550WAT     H122892   4.453   8.962   5.347
 7550WAT     H222893   4.528   8.827   5.401
 7551WAT      O22894   6.191   3.850   1.541
 7551WAT     H122895   6.288   3.825   1.542
 7551WAT     H222896   6.156   3.849   1.635
 7552WAT      O22897   1.692   6.657   5.596
 7552WAT     H122898   1.668   6.560   5.596
 7552WAT     H222899   1.652   6.702   5.676
 7553WAT      O22900   2.657   1.996   0.252
 7553WAT     H122901   2.586   1.977   0.320
 7553WAT     H222902   2.617   2.045   0.175
 7554WAT      O22903   0.992   6.474   0.922
 7554WAT     H122904   1.047   6.418   0.861
 7554WAT     H222905   1.051   6.539   0.970
 7555WAT      O22906   9.436   7.348   2.115
 7555WAT     H122907   9.396   7.427   2.070
 7555WAT     H222908   9.456   7.370   2.211
 7556WAT      O22909   0.215   7.395   2.989
 7556WAT     H122910   0.203   7.452   2.908
 7556WAT     H222911   0.240   7.452   3.067
 7557WAT      O22912   1.431   3.339   8.784
 7557WAT     H122913   1.521   3.320   8.744
 7557WAT     H222914   1.441   3.402   8.860
 7558WAT      O22915   4.657   5.900   1.334
 7558WAT     H122916   4.647   5.835   1.410
 7558WAT     H222917   4.598   5.979   1.350
 7559WAT      O22918   5.211   8.809   1.500
 7559WAT     H122919   5.201   8.865   1.419
 7559WAT     H222920   5.257   8.861   1.572
 7560WAT      O22921   7.244   6.475   1.509
 7560WAT     H122922   7.312   6.546   1.488
 7560WAT     H222923   7.277   6.419   1.585
 7561WAT      O22924   4.152   4.354   2.280
 7561WAT     H122925   4.149   4.413   2.200
 7561WAT     H222926   4.059   4.325   2.304
 7562WAT      O22927   6.524   9.196   2.319
 7562WAT     H122928   6.591   9.154   2.380
 7562WAT     H222929   6.446   9.135   2.308
 7563WAT      O22930   1.724   2.213   8.058
 7563WAT     H122931   1.684   2.277   8.123
 7563WAT     H222932   1.818   2.193   8.086
 7564WAT      O22933   3.202   1.255   3.402
 7564WAT     H122934   3.104   1.235   3.411
 7564WAT     H222935   3.237   1.214   3.318
 7565WAT      O22936   1.191   2.008   5.536
 7565WAT     H122937   1.138   2.088   5.563
 7565WAT     H222938   1.225   1.962   5.618
 7566WAT      O22939   1.490   9.186   5.447
 7566WAT     H122940   1.525   9.270   5.406
 7566WAT     H222941   1.536   9.107   5.406
 7567WAT      O22942   8.725   7.623   3.326
 7567WAT     H122943   8.805   7.681   3.342
 7567WAT     H222944   8.643   7.670   3.359
 7568WAT      O22945   8.252   7.871   5.019
 7568WAT     H122946   8.161   7.840   5.045
 7568WAT     H222947   8.244   7.944   4.951
 7569WAT      O22948   0.134   1.073   3.331
 7569WAT     H122949   0.203   1.003   3.346
 7569WAT     H222950   0.168   1.141   3.267
 7570WAT      O22951   6.547   5.105   0.136
 7570WAT     H122952   6.506   5.069   0.220
 7570WAT     H222953   6.629   5.051   0.114
 7571WAT      O22954   1.858   7.947   1.015
 7571WAT     H122955   1.816   7.925   1.103
 7571WAT     H222956   1.937   7.888   1.000
 7572WAT      O22957   9.682   0.538   6.966
 7572WAT     H122958   9.654   0.628   7.000
 7572WAT     H222959   9.613   0.503   6.902
 7573WAT      O22960   4.036   2.757   4.101
 7573WAT     H122961   3.997   2.701   4.029
 7573WAT     H222962   4.109   2.707   4.147
 7574WAT      O22963   5.347   3.391   4.024
 7574WAT     H122964   5.252   3.417   4.008
 7574WAT     H222965   5.352   3.322   4.096
 7575WAT      O22966   8.444   8.641   2.447
 7575WAT     H122967   8.489   8.716   2.495
 7575WAT     H222968   8.397   8.583   2.514
 7576WAT      O22969   1.229   4.361   7.925
 7576WAT     H122970   1.176   4.294   7.977
 7576WAT     H222971   1.258   4.320   7.838
 7577WAT      O22972   0.633   9.201   8.108
 7577WAT     H122973   0.693   9.280   8.117
 7577WAT     H222974   0.682   9.125   8.066
 7578WAT      O22975   6.503   1.751   6.516
 7578WAT     H122976   6.598   1.729   6.537
 7578WAT     H222977   6.490   1.850   6.518
 7579WAT      O22978   2.397   1.265   0.283
 7579WAT     H122979   2.468   1.266   0.213
 7579WAT     H222980   2.434   1.228   0.368
 7580WAT      O22981   9.401   4.280   8.418
 7580WAT     H122982   9.450   4.364   8.394
 7580WAT     H222983   9.304   4.291   8.397
 7581WAT      O22984   6.456   1.055   1.140
 7581WAT     H122985   6.549   1.043   1.175
 7581WAT     H222986   6.459   1.111   1.057
 7582WAT      O22987   5.497   4.818   7.777
 7582WAT     H122988   5.426   4.799   7.710
 7582WAT     H222989   5.481   4.908   7.818
 7583WAT      O22990   9.095   0.780   4.317
 7583WAT     H122991   9.002   0.743   4.312
 7583WAT     H222992   9.156   0.725   4.259
 7584WAT      O22993   2.215   4.654   8.127
 7584WAT     H122994   2.178   4.574   8.174
 7584WAT     H222995   2.258   4.626   8.041
 7585WAT      O22996   6.591   4.464   5.759
 7585WAT     H122997   6.518   4.507   5.706
 7585WAT     H222998   6.623   4.529   5.829
 7586WAT      O22999   5.141   7.020   8.745
 7586WAT     H123000   5.089   7.099   8.710
 7586WAT     H223001   5.173   7.040   8.838
 7587WAT      O23002   8.126   8.085   5.653
 7587WAT     H123003   8.215   8.126   5.675
 7587WAT     H223004   8.053   8.139   5.695
 7588WAT      O23005   0.351   2.173   6.042
 7588WAT     H123006   0.404   2.151   5.961
 7588WAT     H223007   0.398   2.245   6.094
 7589WAT      O23008   9.252   5.238   1.753
 7589WAT     H123009   9.273   5.273   1.844
 7589WAT     H223010   9.156   5.254   1.732
 7590WAT      O23011   8.579   3.319   1.456
 7590WAT     H123012   8.657   3.369   1.418
 7590WAT     H223013   8.576   3.228   1.415
 7591WAT      O23014   6.630   2.458   7.032
 7591WAT     H123015   6.713   2.403   7.046
 7591WAT     H223016   6.551   2.409   7.071
 7592WAT      O23017   5.066   8.266   5.981
 7592WAT     H123018   5.092   8.179   5.939
 7592WAT     H223019   5.049   8.253   6.078
 7593WAT      O23020   1.176   9.055   4.178
 7593WAT     H123021   1.147   8.964   4.207
 7593WAT     H223022   1.232   9.048   4.095
 7594WAT      O23023   2.189   5.132   9.825
 7594WAT     H123024   2.090   5.130   9.815
 7594WAT     H223025   2.214   5.097   9.915
 7595WAT      O23026   5.869   8.186   0.167
 7595WAT     H123027   5.847   8.264   0.226
 7595WAT     H223028   5.968   8.170   0.170
 7596WAT      O23029   0.573   0.372   3.612
 7596WAT     H123030   0.577   0.443   3.682
 7596WAT     H223031   0.574   0.282   3.656
 7597WAT      O23032   7.946   7.119   6.166
 7597WAT     H123033   7.916   7.088   6.257
 7597WAT     H223034   7.899   7.065   6.096
 7598WAT      O23035   6.182   6.908   9.004
 7598WAT     H123036   6.171   6.967   8.924
 7598WAT     H223037   6.110   6.839   9.005
 7599WAT      O23038   6.606   7.124   1.197
 7599WAT     H123039   6.586   7.075   1.112
 7599WAT     H223040   6.522   7.162   1.235
 7600WAT      O23041   5.811   8.968   3.334
 7600WAT     H123042   5.839   8.942   3.426
 7600WAT     H223043   5.857   9.052   3.307
 7601WAT      O23044   8.882   1.177   9.039
 7601WAT     H123045   8.966   1.123   9.031
 7601WAT     H223046   8.894   1.264   8.993
 7602WAT      O23047   6.173   7.841   5.301
 7602WAT     H123048   6.107   7.916   5.310
 7602WAT     H223049   6.164   7.779   5.379
 7603WAT      O23050   8.409   4.010   2.677
 7603WAT     H123051   8.439   4.029   2.583
 7603WAT     H223052   8.312   3.986   2.676
 7604WAT      O23053   0.531   3.871   1.321
 7604WAT     H123054   0.504   3.926   1.242
 7604WAT     H223055   0.458   3.874   1.390
 7605WAT      O23056   8.713   8.217   3.912
 7605WAT     H123057   8.619   8.184   3.912
 7605WAT     H223058   8.737   8.249   4.004
 7606WAT      O23059   8.713   4.033   7.034
 7606WAT     H123060   8.748   3.940   7.023
 7606WAT     H223061   8.765   4.096   6.976
 7607WAT      O23062   0.262   4.108   1.048
 7607WAT     H123063   0.189   4.163   1.007
 7607WAT     H223064   0.293   4.150   1.133
 7608WAT      O23065   9.140   3.198   5.817
 7608WAT     H123066   9.166   3.121   5.875
 7608WAT     H223067   9.130   3.280   5.873
 7609WAT      O23068   9.141   1.205   3.159
 7609WAT     H123069   9.150   1.171   3.252
 7609WAT     H223070   9.224   1.183   3.107
 7610WAT      O23071   3.631   4.837   0.085
 7610WAT     H123072   3.695   4.844   0.162
 7610WAT     H223073   3.595   4.744   0.081
 7611WAT      O23074   6.161   5.670   8.281
 7611WAT     H123075   6.197   5.584   8.245
 7611WAT     H223076   6.217   5.746   8.250
 7612WAT      O23077   3.015   3.189   4.558
 7612WAT     H123078   3.005   3.098   4.519
 7612WAT     H223079   2.993   3.186   4.656
 7613WAT      O23080   2.404   0.570   8.072
 7613WAT     H123081   2.359   0.603   8.155
 7613WAT     H223082   2.460   0.490   8.095
 7614WAT      O23083   5.586   1.649   2.146
 7614WAT     H123084   5.663   1.711   2.131
 7614WAT     H223085   5.540   1.631   2.059
 7615WAT      O23086   0.461   2.358   8.865
 7615WAT     H123087   0.493   2.278   8.916
 7615WAT     H223088   0.506   2.361   8.776
 7616WAT      O23089   5.601   9.236   5.882
 7616WAT     H123090   5.678   9.297   5.900
 7616WAT     H223091   5.583   9.180   5.962
 7617WAT      O23092   7.275   7.253   7.929
 7617WAT     H123093   7.210   7.328   7.919
 7617WAT     H223094   7.326   7.242   7.843
 7618WAT      O23095   8.909   0.352   4.964
 7618WAT     H123096   8.955   0.339   5.052
 7618WAT     H223097   8.810   0.349   4.977
 7619WAT      O23098   1.359   2.215   2.089
 7619WAT     H123099   1.448   2.195   2.131
 7619WAT     H223100   1.323   2.132   2.046
 7620WAT      O23101   3.215   1.829   7.825
 7620WAT     H123102   3.247   1.878   7.906
 7620WAT     H223103   3.120   1.855   7.806
 7621WAT      O23104   1.063   3.611   9.840
 7621WAT     H123105   1.046   3.663   9.924
 7621WAT     H223106   0.990   3.629   9.774
 7622WAT      O23107   1.239   0.752   1.229
 7622WAT     H123108   1.300   0.768   1.306
 7622WAT     H223109   1.227   0.836   1.177
 7623WAT      O23110   2.203   2.434   3.427
 7623WAT     H123111   2.185   2.478   3.515
 7623WAT     H223112   2.294   2.392   3.428
 7624WAT      O23113   8.042   2.853   3.432
 7624WAT     H123114   7.994   2.866   3.518
 7624WAT     H223115   8.061   2.942   3.391
 7625WAT      O23116   6.141   2.980   6.587
 7625WAT     H123117   6.212   3.044   6.617
 7625WAT     H223118   6.096   3.016   6.505
 7626WAT      O23119   7.597   0.196   2.569
 7626WAT     H123120   7.608   0.294   2.552
 7626WAT     H223121   7.597   0.179   2.668
 7627WAT      O23122   1.418   4.128   0.739
 7627WAT     H123123   1.345   4.187   0.704
 7627WAT     H223124   1.504   4.149   0.692
 7628WAT      O23125   1.035   9.656   4.277
 7628WAT     H123126   1.085   9.704   4.349
 7628WAT     H223127   1.017   9.720   4.202
 7629WAT      O23128   5.789   8.204   7.912
 7629WAT     H123129   5.801   8.281   7.849
 7629WAT     H223130   5.817   8.120   7.866
 7630WAT      O23131   7.856   4.039   2.193
 7630WAT     H123132   7.862   4.082   2.103
 7630WAT     H223133   7.760   4.033   2.219
 7631WAT      O23134   2.901   5.984   3.751
 7631WAT     H123135   2.921   6.081   3.745
 7631WAT     H223136   2.969   5.939   3.809
 7632WAT      O23137   3.907   0.430   9.400
 7632WAT     H123138   3.913   0.510   9.459
 7632WAT     H223139   3.872   0.352   9.452
 7633WAT      O23140   8.844   1.272   2.692
 7633WAT     H123141   8.845   1.199   2.625
 7633WAT     H223142   8.887   1.240   2.777
 7634WAT      O23143   9.716   3.311   1.015
 7634WAT     H123144   9.721   3.212   1.027
 7634WAT     H223145   9.646   3.332   0.946
 7635WAT      O23146   6.079   3.873   9.567
 7635WAT     H123147   5.993   3.844   9.526
 7635WAT     H223148   6.079   3.850   9.665
 7636WAT      O23149   6.173   1.662   0.217
 7636WAT     H123150   6.180   1.587   0.284
 7636WAT     H223151   6.264   1.680   0.179
 7637WAT      O23152   9.769   2.966   0.936
 7637WAT     H123153   9.695   2.899   0.950
 7637WAT     H223154   9.826   2.969   1.018
 7638WAT      O23155   1.209   0.976   4.042
 7638WAT     H123156   1.144   0.957   3.968
 7638WAT     H223157   1.249   0.891   4.075
 7639WAT      O23158   0.516   1.576   6.881
 7639WAT     H123159   0.546   1.639   6.953
 7639WAT     H223160   0.521   1.623   6.792
 7640WAT      O23161   2.869   7.705   7.017
 7640WAT     H123162   2.924   7.622   7.027
 7640WAT     H223163   2.926   7.785   7.037
 7641WAT      O23164   1.650   1.730   6.130
 7641WAT     H123165   1.644   1.762   6.225
 7641WAT     H223166   1.585   1.781   6.073
 7642WAT      O23167   3.513   2.738   6.243
 7642WAT     H123168   3.457   2.666   6.284
 7642WAT     H223169   3.528   2.717   6.146
 7643WAT      O23170   6.057   7.356   6.867
 7643WAT     H123171   5.958   7.347   6.858
 7643WAT     H223172   6.094   7.405   6.787
 7644WAT      O23173   4.679   0.211   5.044
 7644WAT     H123174   4.772   0.179   5.028
 7644WAT     H223175   4.616   0.163   4.982
 7645WAT      O23176   6.984   7.833   3.099
 7645WAT     H123177   7.029   7.922   3.087
 7645WAT     H223178   7.041   7.762   3.056
 7646WAT      O23179   0.178   5.309   6.174
 7646WAT     H123180   0.121   5.388   6.152
 7646WAT     H223181   0.199   5.258   6.090
 7647WAT      O23182   1.394   9.415   7.482
 7647WAT     H123183   1.369   9.319   7.498
 7647WAT     H223184   1.325   9.459   7.425
 7648WAT      O23185   1.523   8.051   6.400
 7648WAT     H123186   1.521   7.953   6.418
 7648WAT     H223187   1.548   8.100   6.483
 7649WAT      O23188   5.898   1.293   0.918
 7649WAT     H123189   5.958   1.359   0.872
 7649WAT     H223190   5.849   1.338   0.992
 7650WAT      O23191   3.666   0.574   5.838
 7650WAT     H123192   3.657   0.615   5.747
 7650WAT     H223193   3.713   0.638   5.899
 7651WAT      O23194   8.496   7.982   8.540
 7651WAT     H123195   8.451   8.069   8.523
 7651WAT     H223196   8.432   7.907   8.522
 7652WAT      O23197   1.445   4.898   5.666
 7652WAT     H123198   1.427   4.963   5.593
 7652WAT     H223199   1.364   4.887   5.723
 7653WAT      O23200   1.153   9.742   0.809
 7653WAT     H123201   1.143   9.666   0.745
 7653WAT     H223202   1.070   9.798   0.807
 7654WAT      O23203   8.425   5.168   9.537
 7654WAT     H123204   8.343   5.111   9.537
 7654WAT     H223205   8.401   5.262   9.514
 7655WAT      O23206   2.354   3.002   9.624
 7655WAT     H123207   2.417   3.066   9.580
 7655WAT     H223208   2.396   2.911   9.628
 7656WAT      O23209   9.785   6.187   1.342
 7656WAT     H123210   9.757   6.106   1.393
 7656WAT     H223211   9.816   6.258   1.405
 7657WAT      O23212   5.322   4.392   8.304
 7657WAT     H123213   5.367   4.310   8.268
 7657WAT     H223214   5.248   4.364   8.366
 7658WAT      O23215   9.302   1.280   2.036
 7658WAT     H123216   9.361   1.287   2.117
 7658WAT     H223217   9.251   1.365   2.024
 7659WAT      O23218   9.109   1.950   3.970
 7659WAT     H123219   9.123   1.851   3.974
 7659WAT     H223220   9.129   1.982   3.877
 7660WAT      O23221   2.833   6.132   4.389
 7660WAT     H123222   2.797   6.219   4.355
 7660WAT     H223223   2.914   6.148   4.445
 7661WAT      O23224   3.949   5.977   1.678
 7661WAT     H123225   3.954   5.920   1.596
 7661WAT     H223226   3.931   5.919   1.757
 7662WAT      O23227   4.247   9.538   3.375
 7662WAT     H123228   4.216   9.633   3.385
 7662WAT     H223229   4.283   9.506   3.463
 7663WAT      O23230   8.158   8.788   8.026
 7663WAT     H123231   8.205   8.839   8.098
 7663WAT     H223232   8.113   8.708   8.066
 7664WAT      O23233   5.887   0.271   4.885
 7664WAT     H123234   5.838   0.196   4.840
 7664WAT     H223235   5.864   0.272   4.983
 7665WAT      O23236   6.583   2.393   2.452
 7665WAT     H123237   6.663   2.343   2.486
 7665WAT     H223238   6.566   2.473   2.510
 7666WAT      O23239   6.431   9.443   8.825
 7666WAT     H123240   6.488   9.477   8.900
 7666WAT     H223241   6.354   9.505   8.811
 7667WAT      O23242   8.365   9.395   7.305
 7667WAT     H123243   8.427   9.333   7.352
 7667WAT     H223244   8.400   9.488   7.312
 7668WAT      O23245   2.013   6.882   9.425
 7668WAT     H123246   1.934   6.872   9.365
 7668WAT     H223247   2.048   6.975   9.419
 7669WAT      O23248   3.827   7.959   1.324
 7669WAT     H123249   3.922   7.989   1.327
 7669WAT     H223250   3.768   8.039   1.317
 7670WAT      O23251   9.267   7.951   2.745
 7670WAT     H123252   9.256   8.048   2.766
 7670WAT     H223253   9.362   7.925   2.757
 7671WAT      O23254   3.659   2.302   1.228
 7671WAT     H123255   3.744   2.310   1.280
 7671WAT     H223256   3.618   2.212   1.245
 7672WAT      O23257   6.224   0.923   9.053
 7672WAT     H123258   6.205   0.872   9.137
 7672WAT     H223259   6.268   1.010   9.075
 7673WAT      O23260   4.660   2.336   3.923
 7673WAT     H123261   4.731   2.391   3.881
 7673WAT     H223262   4.616   2.279   3.854
 7674WAT      O23263   0.651   5.237   4.052
 7674WAT     H123264   0.590   5.282   4.117
 7674WAT     H223265   0.666   5.296   3.973
 7675WAT      O23266   0.727   1.742   6.175
 7675WAT     H123267   0.748   1.657   6.128
 7675WAT     H223268   0.642   1.780   6.138
 7676WAT      O23269   7.868   3.127   1.459
 7676WAT     H123270   7.956   3.081   1.464
 7676WAT     H223271   7.799   3.071   1.504
 7677WAT      O23272   1.080   2.039   4.626
 7677WAT     H123273   1.111   2.124   4.669
 7677WAT     H223274   1.054   2.057   4.531
 7678WAT      O23275   0.342   9.337   1.745
 7678WAT     H123276   0.395   9.306   1.823
 7678WAT     H223277   0.368   9.285   1.664
 7679WAT      O23278   6.591   7.515   9.085
 7679WAT     H123279   6.620   7.451   9.156
 7679WAT     H223280   6.491   7.521   9.084
 7680WAT      O23281   3.219   6.274   7.732
 7680WAT     H123282   3.148   6.254   7.665
 7680WAT     H223283   3.248   6.189   7.776
 7681WAT      O23284   4.126   5.625   9.297
 7681WAT     H123285   4.201   5.608   9.361
 7681WAT     H223286   4.131   5.559   9.222
 7682WAT      O23287   9.180   8.538   5.158
 7682WAT     H123288   9.126   8.515   5.078
 7682WAT     H223289   9.151   8.626   5.195
 7683WAT      O23290   0.981   1.604   3.108
 7683WAT     H123291   0.912   1.592   3.037
 7683WAT     H223292   0.946   1.665   3.179
 7684WAT      O23293   8.745   2.863   1.582
 7684WAT     H123294   8.799   2.909   1.512
 7684WAT     H223295   8.801   2.844   1.662
 7685WAT      O23296   3.442   9.620   6.606
 7685WAT     H123297   3.413   9.526   6.624
 7685WAT     H223298   3.539   9.620   6.579
 7686WAT      O23299   4.431   0.732   6.628
 7686WAT     H123300   4.432   0.831   6.624
 7686WAT     H223301   4.389   0.695   6.545
 7687WAT      O23302   6.133   9.021   3.659
 7687WAT     H123303   6.144   8.976   3.748
 7687WAT     H223304   6.184   9.107   3.659
 7688WAT      O23305   7.587   1.669   8.999
 7688WAT     H123306   7.500   1.703   8.963
 7688WAT     H223307   7.626   1.738   9.060
 7689WAT      O23308   8.366   8.436   4.683
 7689WAT     H123309   8.434   8.387   4.737
 7689WAT     H223310   8.387   8.426   4.586
 7690WAT      O23311   2.799   0.737   1.953
 7690WAT     H123312   2.733   0.802   1.916
 7690WAT     H223313   2.797   0.740   2.053
 7691WAT      O23314   6.393   3.389   6.517
 7691WAT     H123315   6.342   3.350   6.593
 7691WAT     H223316   6.430   3.478   6.544
 7692WAT      O23317   8.273   4.107   3.710
 7692WAT     H123318   8.339   4.036   3.734
 7692WAT     H223319   8.321   4.195   3.702
 7693WAT      O23320   0.705   3.113   0.534
 7693WAT     H123321   0.785   3.090   0.479
 7693WAT     H223322   0.669   3.202   0.505
 7694WAT      O23323   6.973   3.345   0.503
 7694WAT     H123324   6.976   3.422   0.440
 7694WAT     H223325   6.988   3.378   0.596
 7695WAT      O23326   6.725   3.011   3.051
 7695WAT     H123327   6.722   2.999   2.952
 7695WAT     H223328   6.781   2.938   3.092
 7696WAT      O23329   2.753   2.546   8.097
 7696WAT     H123330   2.825   2.478   8.085
 7696WAT     H223331   2.697   2.522   8.176
 7697WAT      O23332   3.234   9.143   3.071
 7697WAT     H123333   3.222   9.142   2.972
 7697WAT     H223334   3.163   9.086   3.113
 7698WAT      O23335   2.741   8.965   6.598
 7698WAT     H123336   2.786   9.041   6.552
 7698WAT     H223337   2.753   8.881   6.544
 7699WAT      O23338   6.177   6.577   4.609
 7699WAT     H123339   6.099   6.574   4.672
 7699WAT     H223340   6.227   6.663   4.621
 7700WAT      O23341   7.519   3.874   8.761
 7700WAT     H123342   7.465   3.821   8.695
 7700WAT     H223343   7.582   3.934   8.712
 7701WAT      O23344   0.134   3.453   9.883
 7701WAT     H123345   0.178   3.456   9.973
 7701WAT     H223346   0.202   3.467   9.812
 7702WAT      O23347   4.387   9.053   9.154
 7702WAT     H123348   4.410   9.100   9.069
 7702WAT     H223349   4.420   8.959   9.150
 7703WAT      O23350   2.986   7.552   6.420
 7703WAT     H123351   2.951   7.602   6.341
 7703WAT     H223352   3.010   7.459   6.394
 7704WAT      O23353   8.168   1.533   8.690
 7704WAT     H123354   8.237   1.475   8.734
 7704WAT     H223355   8.207   1.577   8.609
 7705WAT      O23356   4.602   8.728   0.282
 7705WAT     H123357   4.639   8.811   0.326
 7705WAT     H223358   4.622   8.649   0.340
 7706WAT      O23359   7.086   9.553   9.174
 7706WAT     H123360   7.159   9.514   9.118
 7706WAT     H223361   7.101   9.528   9.270
 7707WAT      O23362   1.715   4.590   6.872
 7707WAT     H123363   1.737   4.686   6.853
 7707WAT     H223364   1.777   4.530   6.823
 7708WAT      O23365   3.058   8.920   6.992
 7708WAT     H123366   2.989   8.856   6.957
 7708WAT     H223367   3.107   8.961   6.916
 7709WAT      O23368   9.128   3.313   7.538
 7709WAT     H123369   9.152   3.409   7.540
 7709WAT     H223370   9.116   3.279   7.631
 7710WAT      O23371   5.235   4.945   0.625
 7710WAT     H123372   5.153   4.961   0.680
 7710WAT     H223373   5.242   5.016   0.554
 7711WAT      O23374   6.714   7.706   6.449
 7711WAT     H123375   6.756   7.686   6.360
 7711WAT     H223376   6.727   7.628   6.510
 7712WAT      O23377   4.056   1.900   2.034
 7712WAT     H123378   3.964   1.941   2.030
 7712WAT     H223379   4.068   1.855   2.122
 7713WAT      O23380   0.422   1.747   4.493
 7713WAT     H123381   0.352   1.782   4.555
 7713WAT     H223382   0.483   1.686   4.542
 7714WAT      O23383   1.054   5.655   0.049
 7714WAT     H123384   0.986   5.728   0.060
 7714WAT     H223385   1.074   5.615   0.138
 7715WAT      O23386   0.155   5.384   4.026
 7715WAT     H123387   0.165   5.482   4.007
 7715WAT     H223388   0.137   5.335   3.941
 7716WAT      O23389   8.035   3.338   8.624
 7716WAT     H123390   8.068   3.431   8.638
 7716WAT     H223391   8.060   3.282   8.704
 7717WAT      O23392   7.954   5.603   4.724
 7717WAT     H123393   8.006   5.602   4.809
 7717WAT     H223394   8.010   5.645   4.652
 7718WAT      O23395   7.196   7.175   3.550
 7718WAT     H123396   7.128   7.199   3.482
 7718WAT     H223397   7.278   7.231   3.537
 7719WAT      O23398   1.313   5.996   0.189
 7719WAT     H123399   1.240   5.985   0.256
 7719WAT     H223400   1.275   6.035   0.105
 7720WAT      O23401   3.689   9.172   3.134
 7720WAT     H123402   3.777   9.129   3.114
 7720WAT     H223403   3.620   9.100   3.148
 7721WAT      O23404   9.513   0.156   1.761
 7721WAT     H123405   9.535   0.200   1.847
 7721WAT     H223406   9.418   0.125   1.762
 7722WAT      O23407   9.801   0.812   0.327
 7722WAT     H123408   9.867   0.821   0.401
 7722WAT     H223409   9.723   0.872   0.343
 7723WAT      O23410   5.179   5.253   2.784
 7723WAT     H123411   5.119   5.201   2.843
 7723WAT     H223412   5.139   5.259   2.692
 7724WAT      O23413   3.910   8.668   5.877
 7724WAT     H123414   3.945   8.739   5.815
 7724WAT     H223415   3.979   8.646   5.945
 7725WAT      O23416   6.610   2.014   8.193
 7725WAT     H123417   6.650   2.082   8.254
 7725WAT     H223418   6.614   2.046   8.099
 7726WAT      O23419   8.921   6.157   3.468
 7726WAT     H123420   8.880   6.206   3.545
 7726WAT     H223421   8.941   6.222   3.395
 7727WAT      O23422   2.196   5.099   0.226
 7727WAT     H123423   2.275   5.132   0.277
 7727WAT     H223424   2.112   5.127   0.273
 7728WAT      O23425   1.167   1.772   9.833
 7728WAT     H123426   1.213   1.851   9.794
 7728WAT     H223427   1.081   1.756   9.785
 7729WAT      O23428   2.679   1.689   8.065
 7729WAT     H123429   2.659   1.592   8.048
 7729WAT     H223430   2.605   1.729   8.119
 7730WAT      O23431   2.997   1.506   7.698
 7730WAT     H123432   2.925   1.494   7.766
 7730WAT     H223433   2.958   1.548   7.616
 7731WAT      O23434   6.716   7.551   1.456
 7731WAT     H123435   6.744   7.621   1.521
 7731WAT     H223436   6.772   7.557   1.374
 7732WAT      O23437   8.485   0.853   9.611
 7732WAT     H123438   8.503   0.949   9.592
 7732WAT     H223439   8.536   0.824   9.692
 7733WAT      O23440   4.300   0.192   3.267
 7733WAT     H123441   4.292   0.131   3.347
 7733WAT     H223442   4.394   0.223   3.258
 7734WAT      O23443   9.092   0.178   2.583
 7734WAT     H123444   9.114   0.266   2.541
 7734WAT     H223445   9.066   0.113   2.512
 7735WAT      O23446   3.900   6.929   2.035
 7735WAT     H123447   3.944   6.989   1.969
 7735WAT     H223448   3.966   6.902   2.106
 7736WAT      O23449   9.596   9.275   9.439
 7736WAT     H123450   9.647   9.329   9.372
 7736WAT     H223451   9.660   9.224   9.496
 7737WAT      O23452   8.306   6.462   7.110
 7737WAT     H123453   8.238   6.420   7.170
 7737WAT     H223454   8.279   6.450   7.015
 7738WAT      O23455   4.347   5.813   3.611
 7738WAT     H123456   4.380   5.813   3.706
 7738WAT     H223457   4.309   5.903   3.589
 7739WAT      O23458   6.851   2.984   1.965
 7739WAT     H123459   6.797   3.057   1.922
 7739WAT     H223460   6.846   2.902   1.909
 7740WAT      O23461   8.007   5.164   7.639
 7740WAT     H123462   8.036   5.079   7.683
 7740WAT     H223463   7.958   5.143   7.554
 7741WAT      O23464   2.707   8.029   4.681
 7741WAT     H123465   2.800   7.996   4.670
 7741WAT     H223466   2.666   7.987   4.763
 7742WAT      O23467   7.864   8.631   6.142
 7742WAT     H123468   7.919   8.596   6.217
 7742WAT     H223469   7.835   8.556   6.083
 7743WAT      O23470   0.919   7.710   6.956
 7743WAT     H123471   0.880   7.668   6.874
 7743WAT     H223472   0.934   7.808   6.939
 7744WAT      O23473   5.064   1.664   7.793
 7744WAT     H123474   4.975   1.631   7.823
 7744WAT     H223475   5.064   1.677   7.694
 7745WAT      O23476   4.668   8.617   4.271
 7745WAT     H123477   4.597   8.549   4.289
 7745WAT     H223478   4.651   8.659   4.182
 7746WAT      O23479   4.705   9.635   5.219
 7746WAT     H123480   4.782   9.688   5.254
 7746WAT     H223481   4.704   9.545   5.263
 7747WAT      O23482   6.018   6.882   9.628
 7747WAT     H123483   5.972   6.795   9.610
 7747WAT     H223484   5.960   6.958   9.599
 7748WAT      O23485   8.419   7.740   1.258
 7748WAT     H123486   8.347   7.764   1.323
 7748WAT     H223487   8.504   7.785   1.285
 7749WAT      O23488   4.821   5.419   5.464
 7749WAT     H123489   4.910   5.441   5.425
 7749WAT     H223490   4.777   5.504   5.495
 7750WAT      O23491   3.126   8.327   0.139
 7750WAT     H123492   3.199   8.332   0.206
 7750WAT     H223493   3.037   8.334   0.185
 7751WAT      O23494   4.299   6.944   6.505
 7751WAT     H123495   4.383   6.999   6.498
 7751WAT     H223496   4.237   6.987   6.571
 7752WAT      O23497   0.084   7.878   6.412
 7752WAT     H123498   0.006   7.868   6.473
 7752WAT     H223499   0.168   7.876   6.466
 7753WAT      O23500   7.918   8.236   6.375
 7753WAT     H123501   7.840   8.221   6.314
 7753WAT     H223502   7.935   8.153   6.428
 7754WAT      O23503   5.029   4.458   2.808
 7754WAT     H123504   5.010   4.540   2.861
 7754WAT     H223505   5.104   4.407   2.851
 7755WAT      O23506   0.297   7.964   9.645
 7755WAT     H123507   0.318   7.901   9.720
 7755WAT     H223508   0.198   7.978   9.641
 7756WAT      O23509   0.900   8.410   2.752
 7756WAT     H123510   0.829   8.457   2.805
 7756WAT     H223511   0.913   8.318   2.788
 7757WAT      O23512   8.631   7.858   1.077
 7757WAT     H123513   8.554   7.887   1.021
 7757WAT     H223514   8.634   7.913   1.161
 7758WAT      O23515   7.761   6.528   8.469
 7758WAT     H123516   7.810   6.569   8.393
 7758WAT     H223517   7.776   6.582   8.552
 7759WAT      O23518   6.079   4.893   2.946
 7759WAT     H123519   6.171   4.926   2.969
 7759WAT     H223520   6.046   4.834   3.019
 7760WAT      O23521   5.131   6.350   6.269
 7760WAT     H123522   5.111   6.257   6.297
 7760WAT     H223523   5.103   6.413   6.341
 7761WAT      O23524   3.886   1.158   7.999
 7761WAT     H123525   3.848   1.241   8.041
 7761WAT     H223526   3.943   1.183   7.921
 7762WAT      O23527   0.714   2.239   2.002
 7762WAT     H123528   0.734   2.283   2.089
 7762WAT     H223529   0.752   2.146   2.002
 7763WAT      O23530   8.783   0.854   4.060
 7763WAT     H123531   8.823   0.838   4.151
 7763WAT     H223532   8.769   0.952   4.047
 7764WAT      O23533   6.224   9.242   1.047
 7764WAT     H123534   6.191   9.246   1.142
 7764WAT     H223535   6.158   9.191   0.991
 7765WAT      O23536   8.424   5.041   4.710
 7765WAT     H123537   8.442   4.949   4.675
 7765WAT     H223538   8.344   5.040   4.769
 7766WAT      O23539   1.710   5.324   7.361
 7766WAT     H123540   1.780   5.263   7.324
 7766WAT     H223541   1.735   5.419   7.343
 7767WAT      O23542   0.592   5.412   1.324
 7767WAT     H123543   0.592   5.381   1.229
 7767WAT     H223544   0.512   5.470   1.339
 7768WAT      O23545   3.196   4.956   0.165
 7768WAT     H123546   3.116   4.998   0.123
 7768WAT     H223547   3.168   4.900   0.242
 7769WAT      O23548   8.155   7.091   7.694
 7769WAT     H123549   8.079   7.028   7.679
 7769WAT     H223550   8.204   7.064   7.777
 7770WAT      O23551   2.343   0.486   4.504
 7770WAT     H123552   2.327   0.395   4.542
 7770WAT     H223553   2.441   0.503   4.499
 7771WAT      O23554   0.605   7.895   9.677
 7771WAT     H123555   0.679   7.950   9.640
 7771WAT     H223556   0.589   7.815   9.619
 7772WAT      O23557   0.233   9.168   9.069
 7772WAT     H123558   0.138   9.139   9.054
 7772WAT     H223559   0.234   9.263   9.100
 7773WAT      O23560   7.427   3.295   9.047
 7773WAT     H123561   7.524   3.282   9.063
 7773WAT     H223562   7.388   3.213   9.005
 7774WAT      O23563   9.689   2.851   5.703
 7774WAT     H123564   9.659   2.943   5.679
 7774WAT     H223565   9.705   2.798   5.619
 7775WAT      O23566   0.745   4.266   0.577
 7775WAT     H123567   0.775   4.215   0.496
 7775WAT     H223568   0.649   4.247   0.594
 7776WAT      O23569   3.486   4.036   0.421
 7776WAT     H123570   3.482   4.130   0.456
 7776WAT     H223571   3.577   3.998   0.438
 7777WAT      O23572   0.725   1.910   6.767
 7777WAT     H123573   0.672   1.842   6.716
 7777WAT     H223574   0.751   1.872   6.855
 7778WAT      O23575   4.358   7.611   4.429
 7778WAT     H123576   4.412   7.600   4.346
 7778WAT     H223577   4.392   7.549   4.500
 7779WAT      O23578   8.987   1.868   2.906
 7779WAT     H123579   8.888   1.876   2.916
 7779WAT     H223580   9.023   1.950   2.861
 7780WAT      O23581   6.431   1.789   4.816
 7780WAT     H123582   6.488   1.852   4.869
 7780WAT     H223583   6.427   1.819   4.721
 7781WAT      O23584   3.913   2.708   0.775
 7781WAT     H123585   3.957   2.749   0.855
 7781WAT     H223586   3.820   2.678   0.799
 7782WAT      O23587   5.351   3.368   6.516
 7782WAT     H123588   5.372   3.316   6.598
 7782WAT     H223589   5.315   3.307   6.445
 7783WAT      O23590   5.006   0.928   0.792
 7783WAT     H123591   5.077   0.981   0.837
 7783WAT     H223592   4.974   0.977   0.711
 7784WAT      O23593   7.089   6.427   5.182
 7784WAT     H123594   7.070   6.387   5.093
 7784WAT     H223595   7.085   6.356   5.252
 7785WAT      O23596   1.627   2.882   8.581
 7785WAT     H123597   1.592   2.967   8.541
 7785WAT     H223598   1.551   2.827   8.614
 7786WAT      O23599   6.364   7.860   8.362
 7786WAT     H123600   6.432   7.908   8.307
 7786WAT     H223601   6.373   7.762   8.347
 7787WAT      O23602   9.013   0.459   0.909
 7787WAT     H123603   9.065   0.384   0.868
 7787WAT     H223604   8.919   0.458   0.874
 7788WAT      O23605   0.276   8.559   8.241
 7788WAT     H123606   0.289   8.658   8.233
 7788WAT     H223607   0.201   8.531   8.180
 7789WAT      O23608   3.145   2.157   2.471
 7789WAT     H123609   3.141   2.254   2.449
 7789WAT     H223610   3.118   2.142   2.566
 7790WAT      O23611   1.701   2.523   0.409
 7790WAT     H123612   1.619   2.512   0.466
 7790WAT     H223613   1.711   2.443   0.350
 7791WAT      O23614   9.037   6.000   7.191
 7791WAT     H123615   9.068   5.970   7.100
 7791WAT     H223616   8.995   6.091   7.183
 7792WAT      O23617   4.783   2.362   9.561
 7792WAT     H123618   4.712   2.292   9.574
 7792WAT     H223619   4.767   2.408   9.473
 7793WAT      O23620   6.275   3.984   8.629
 7793WAT     H123621   6.327   4.069   8.638
 7793WAT     H223622   6.266   3.940   8.718
 7794WAT      O23623   5.092   2.951   1.794
 7794WAT     H123624   5.040   3.008   1.730
 7794WAT     H223625   5.038   2.934   1.876
 7795WAT      O23626   2.191   2.904   6.467
 7795WAT     H123627   2.233   2.843   6.400
 7795WAT     H223628   2.133   2.971   6.420
 7796WAT      O23629   2.714   8.538   2.388
 7796WAT     H123630   2.761   8.459   2.426
 7796WAT     H223631   2.615   8.521   2.388
 7797WAT      O23632   0.225   0.879   5.041
 7797WAT     H123633   0.191   0.874   4.947
 7797WAT     H223634   0.188   0.803   5.094
 7798WAT      O23635   7.375   1.876   6.489
 7798WAT     H123636   7.329   1.817   6.556
 7798WAT     H223637   7.324   1.961   6.479
 7799WAT      O23638   3.905   8.338   3.513
 7799WAT     H123639   3.902   8.358   3.415
 7799WAT     H223640   3.980   8.388   3.555
 7800WAT      O23641   7.418   0.356   3.827
 7800WAT     H123642   7.460   0.389   3.742
 7800WAT     H223643   7.434   0.423   3.900
 7801WAT      O23644   7.239   4.026   4.852
 7801WAT     H123645   7.155   4.052   4.899
 7801WAT     H223646   7.289   4.109   4.824
 7802WAT      O23647   1.664   6.939   6.904
 7802WAT     H123648   1.605   6.861   6.885
 7802WAT     H223649   1.731   6.913   6.973
 7803WAT      O23650   7.309   2.512   5.521
 7803WAT     H123651   7.365   2.589   5.491
 7803WAT     H223652   7.351   2.468   5.600
 7804WAT      O23653   9.138   2.645   0.355
 7804WAT     H123654   9.229   2.609   0.334
 7804WAT     H223655   9.113   2.712   0.285
 7805WAT      O23656   0.243   2.625   1.184
 7805WAT     H123657   0.339   2.635   1.160
 7805WAT     H223658   0.191   2.602   1.101
 7806WAT      O23659   0.855   2.399   9.569
 7806WAT     H123660   0.909   2.482   9.583
 7806WAT     H223661   0.854   2.375   9.472
 7807WAT      O23662   0.106   5.219   3.513
 7807WAT     H123663   0.179   5.284   3.490
 7807WAT     H223664   0.018   5.256   3.484
 7808WAT      O23665   7.740   6.140   2.184
 7808WAT     H123666   7.734   6.041   2.173
 7808WAT     H223667   7.800   6.178   2.113
 7809WAT      O23668   1.507   1.989   9.117
 7809WAT     H123669   1.446   1.976   9.039
 7809WAT     H223670   1.594   2.026   9.085
 7810WAT      O23671   0.662   6.366   3.522
 7810WAT     H123672   0.666   6.286   3.581
 7810WAT     H223673   0.693   6.447   3.572
 7811WAT      O23674   9.734   1.857   8.527
 7811WAT     H123675   9.817   1.878   8.579
 7811WAT     H223676   9.724   1.758   8.518
 7812WAT      O23677   3.537   6.379   3.286
 7812WAT     H123678   3.528   6.477   3.268
 7812WAT     H223679   3.489   6.356   3.371
 7813WAT      O23680   6.415   5.915   6.921
 7813WAT     H123681   6.440   6.004   6.884
 7813WAT     H223682   6.456   5.903   7.011
 7814WAT      O23683   3.083   7.381   5.814
 7814WAT     H123684   3.159   7.338   5.765
 7814WAT     H223685   3.105   7.385   5.912
 7815WAT      O23686   0.042   1.944   6.183
 7815WAT     H123687   0.129   1.925   6.136
 7815WAT     H223688  -0.032   1.947   6.116
 7816WAT      O23689   0.521   2.652   0.616
 7816WAT     H123690   0.558   2.743   0.598
 7816WAT     H223691   0.581   2.603   0.680
 7817WAT      O23692   5.098   8.510   2.219
 7817WAT     H123693   5.028   8.438   2.211
 7817WAT     H223694   5.138   8.508   2.311
 7818WAT      O23695   2.321   6.420   0.544
 7818WAT     H123696   2.245   6.369   0.503
 7818WAT     H223697   2.381   6.453   0.471
 7819WAT      O23698   1.850   0.208   2.628
 7819WAT     H123699   1.768   0.242   2.582
 7819WAT     H223700   1.828   0.190   2.724
 7820WAT      O23701  -0.004   8.945   6.228
 7820WAT     H123702   0.021   8.994   6.312
 7820WAT     H223703   0.057   8.973   6.154
 7821WAT      O23704   2.771   3.896   6.620
 7821WAT     H123705   2.798   3.854   6.707
 7821WAT     H223706   2.675   3.875   6.602
 7822WAT      O23707   3.602   2.432   9.618
 7822WAT     H123708   3.562   2.504   9.561
 7822WAT     H223709   3.562   2.436   9.710
 7823WAT      O23710   6.791   2.488   1.539
 7823WAT     H123711   6.740   2.539   1.471
 7823WAT     H223712   6.748   2.498   1.629
 7824WAT      O23713   8.323   0.176   2.205
 7824WAT     H123714   8.246   0.237   2.187
 7824WAT     H223715   8.407   0.216   2.167
 7825WAT      O23716   0.611   0.264   1.762
 7825WAT     H123717   0.590   0.209   1.682
 7825WAT     H223718   0.624   0.359   1.735
 7826WAT      O23719   7.486   3.286   8.333
 7826WAT     H123720   7.394   3.266   8.368
 7826WAT     H223721   7.554   3.245   8.393
 7827WAT      O23722   3.263   8.047   5.260
 7827WAT     H123723   3.243   7.960   5.214
 7827WAT     H223724   3.355   8.077   5.236
 7828WAT      O23725   9.193   4.475   4.894
 7828WAT     H123726   9.150   4.561   4.923
 7828WAT     H223727   9.284   4.494   4.857
 7829WAT      O23728   9.759   0.054   7.228
 7829WAT     H123729   9.709   0.023   7.148
 7829WAT     H223730   9.699   0.053   7.309
 7830WAT      O23731   0.266   3.506   9.653
 7830WAT     H123732   0.234   3.600   9.644
 7830WAT     H223733   0.247   3.456   9.568
 7831WAT      O23734   5.727   6.670   1.535
 7831WAT     H123735   5.766   6.747   1.484
 7831WAT     H223736   5.662   6.705   1.603
 7832WAT      O23737   1.913   4.768   9.035
 7832WAT     H123738   1.871   4.820   9.108
 7832WAT     H223739   1.849   4.760   8.958
 7833WAT      O23740   7.801   4.437   1.985
 7833WAT     H123741   7.837   4.516   1.935
 7833WAT     H223742   7.701   4.437   1.978
 7834WAT      O23743   2.470   5.388   2.217
 7834WAT     H123744   2.450   5.292   2.237
 7834WAT     H223745   2.387   5.442   2.226
 7835WAT      O23746   3.274   6.002   0.195
 7835WAT     H123747   3.214   6.069   0.152
 7835WAT     H223748   3.365   6.006   0.153
 7836WAT      O23749   8.490   6.980   7.329
 7836WAT     H123750   8.525   6.902   7.381
 7836WAT     H223751   8.404   7.012   7.370
 7837WAT      O23752   0.624   5.452   3.220
 7837WAT     H123753   0.575   5.481   3.138
 7837WAT     H223754   0.672   5.531   3.259
 7838WAT      O23755   9.126   4.709   5.019
 7838WAT     H123756   9.133   4.784   4.952
 7838WAT     H223757   9.202   4.715   5.083
 7839WAT      O23758   3.504   5.819   2.824
 7839WAT     H123759   3.568   5.845   2.752
 7839WAT     H223760   3.510   5.720   2.839
 7840WAT      O23761   8.154   7.193   2.948
 7840WAT     H123762   8.084   7.262   2.928
 7840WAT     H223763   8.122   7.103   2.918
 7841WAT      O23764   0.358   5.014   1.725
 7841WAT     H123765   0.314   4.928   1.751
 7841WAT     H223766   0.447   5.021   1.768
 7842WAT      O23767   9.863   9.131   9.014
 7842WAT     H123768   9.890   9.121   8.918
 7842WAT     H223769   9.789   9.197   9.021
 7843WAT      O23770   2.717   1.688   4.907
 7843WAT     H123771   2.779   1.730   4.840
 7843WAT     H223772   2.690   1.597   4.876
 7844WAT      O23773   3.324   5.682   7.848
 7844WAT     H123774   3.348   5.778   7.863
 7844WAT     H223775   3.225   5.671   7.851
 7845WAT      O23776   0.719   6.889   2.557
 7845WAT     H123777   0.640   6.855   2.609
 7845WAT     H223778   0.707   6.866   2.461
 7846WAT      O23779   3.386   1.776   4.808
 7846WAT     H123780   3.335   1.776   4.894
 7846WAT     H223781   3.336   1.827   4.739
 7847WAT      O23782   8.982   6.709   2.655
 7847WAT     H123783   8.980   6.808   2.670
 7847WAT     H223784   8.897   6.669   2.688
 7848WAT      O23785   5.902   5.244   3.668
 7848WAT     H123786   5.977   5.270   3.728
 7848WAT     H223787   5.925   5.267   3.574
 7849WAT      O23788   5.818   4.456   5.296
 7849WAT     H123789   5.903   4.434   5.344
 7849WAT     H223790   5.740   4.438   5.356
 7850WAT      O23791   4.617   7.288   4.186
 7850WAT     H123792   4.715   7.303   4.179
 7850WAT     H223793   4.600   7.199   4.229
 7851WAT      O23794   9.548   4.446   4.852
 7851WAT     H123795   9.536   4.373   4.784
 7851WAT     H223796   9.643   4.475   4.853
 7852WAT      O23797   2.557   8.287   6.741
 7852WAT     H123798   2.609   8.294   6.825
 7852WAT     H223799   2.612   8.320   6.664
 7853WAT      O23800   7.556   8.075   5.781
 7853WAT     H123801   7.459   8.092   5.766
 7853WAT     H223802   7.604   8.163   5.792
 7854WAT      O23803   6.194   7.941   4.497
 7854WAT     H123804   6.130   7.982   4.432
 7854WAT     H223805   6.180   7.981   4.587
 7855WAT      O23806   1.919   4.704   5.647
 7855WAT     H123807   1.972   4.786   5.626
 7855WAT     H223808   1.823   4.719   5.621
 7856WAT      O23809   0.406   6.408   4.982
 7856WAT     H123810   0.343   6.398   4.906
 7856WAT     H223811   0.498   6.380   4.953
 7857WAT      O23812   4.221   2.174   3.028
 7857WAT     H123813   4.292   2.149   2.962
 7857WAT     H223814   4.253   2.157   3.121
 7858WAT      O23815   5.013   0.156   5.253
 7858WAT     H123816   5.062   0.235   5.291
 7858WAT     H223817   5.070   0.074   5.262
 7859WAT      O23818   5.007   0.509   8.167
 7859WAT     H123819   5.043   0.599   8.145
 7859WAT     H223820   4.929   0.488   8.108
 7860WAT      O23821   2.713   6.534   2.744
 7860WAT     H123822   2.649   6.529   2.668
 7860WAT     H223823   2.668   6.499   2.827
 7861WAT      O23824   7.795   5.693   5.708
 7861WAT     H123825   7.768   5.775   5.758
 7861WAT     H223826   7.810   5.617   5.772
 7862WAT      O23827   1.742   7.968   8.695
 7862WAT     H123828   1.663   8.026   8.717
 7862WAT     H223829   1.774   7.924   8.778
 7863WAT      O23830   6.669   2.180   7.250
 7863WAT     H123831   6.596   2.117   7.226
 7863WAT     H223832   6.739   2.180   7.178
 7864WAT      O23833   1.366   5.298   5.136
 7864WAT     H123834   1.277   5.340   5.154
 7864WAT     H223835   1.356   5.198   5.138
 7865WAT      O23836   6.512   6.942   2.047
 7865WAT     H123837   6.564   7.019   2.010
 7865WAT     H223838   6.434   6.922   1.987
 7866WAT      O23839   0.852   4.174   7.050
 7866WAT     H123840   0.883   4.182   7.145
 7866WAT     H223841   0.907   4.107   7.002
 7867WAT      O23842   5.034   2.012   7.923
 7867WAT     H123843   5.121   1.971   7.895
 7867WAT     H223844   5.036   2.110   7.905
 7868WAT      O23845   5.368   8.294   5.998
 7868WAT     H123846   5.275   8.317   6.026
 7868WAT     H223847   5.409   8.373   5.952
 7869WAT      O23848   7.175   1.205   6.404
 7869WAT     H123849   7.218   1.129   6.452
 7869WAT     H223850   7.087   1.175   6.366
 7870WAT      O23851   6.696   9.698   0.999
 7870WAT     H123852   6.692   9.634   0.922
 7870WAT     H223853   6.703   9.791   0.965
 7871WAT      O23854   0.711   0.156   3.259
 7871WAT     H123855   0.802   0.157   3.301
 7871WAT     H223856   0.656   0.084   3.300
 7872WAT      O23857   0.328   2.181   2.023
 7872WAT     H123858   0.240   2.189   1.977
 7872WAT     H223859   0.395   2.240   1.978
 7873WAT      O23860   1.105   4.515   7.105
 7873WAT     H123861   1.129   4.610   7.083
 7873WAT     H223862   1.035   4.515   7.177
 7874WAT      O23863   4.355   7.719   7.514
 7874WAT     H123864   4.372   7.782   7.589
 7874WAT     H223865   4.268   7.741   7.471
 7875WAT      O23866   9.055   5.965   1.986
 7875WAT     H123867   9.056   5.872   1.951
 7875WAT     H223868   9.136   5.980   2.044
 7876WAT      O23869   7.842   6.036   8.338
 7876WAT     H123870   7.781   6.060   8.263
 7876WAT     H223871   7.923   5.990   8.302
 7877WAT      O23872   0.098   7.004   5.671
 7877WAT     H123873   0.135   6.922   5.714
 7877WAT     H223874  -0.002   6.999   5.669
 7878WAT      O23875   1.117   2.184   7.013
 7878WAT     H123876   1.079   2.181   7.106
 7878WAT     H223877   1.090   2.270   6.970
 7879WAT      O23878   9.411   2.380   2.819
 7879WAT     H123879   9.322   2.425   2.825
 7879WAT     H223880   9.424   2.343   2.727
 7880WAT      O23881   2.349   2.622   0.258
 7880WAT     H123882   2.368   2.720   0.263
 7880WAT     H223883   2.267   2.607   0.201
 7881WAT      O23884   2.295   8.528   4.285
 7881WAT     H123885   2.294   8.468   4.205
 7881WAT     H223886   2.371   8.503   4.345
 7882WAT      O23887   2.261   2.869   5.688
 7882WAT     H123888   2.223   2.804   5.623
 7882WAT     H223889   2.346   2.833   5.726
 7883WAT      O23890   6.732   9.652   3.332
 7883WAT     H123891   6.817   9.694   3.363
 7883WAT     H223892   6.655   9.710   3.358
 7884WAT      O23893   7.081   2.743   1.337
 7884WAT     H123894   7.067   2.665   1.277
 7884WAT     H223895   7.014   2.815   1.315
 7885WAT      O23896   4.594   7.195   7.921
 7885WAT     H123897   4.632   7.284   7.947
 7885WAT     H223898   4.496   7.194   7.941
 7886WAT      O23899   6.276   5.578   2.688
 7886WAT     H123900   6.279   5.561   2.786
 7886WAT     H223901   6.242   5.496   2.641
 7887WAT      O23902   9.071   0.335   0.579
 7887WAT     H123903   9.135   0.388   0.524
 7887WAT     H223904   9.118   0.300   0.660
 7888WAT      O23905   4.652   6.128   3.218
 7888WAT     H123906   4.744   6.155   3.247
 7888WAT     H223907   4.646   6.028   3.215
 7889WAT      O23908   8.943   8.703   0.851
 7889WAT     H123909   9.015   8.636   0.867
 7889WAT     H223910   8.964   8.757   0.770
 7890WAT      O23911   0.072   4.976   3.017
 7890WAT     H123912   0.050   4.984   3.115
 7890WAT     H223913   0.153   4.918   3.006
 7891WAT      O23914   3.933   5.484   5.734
 7891WAT     H123915   3.880   5.495   5.819
 7891WAT     H223916   3.974   5.393   5.731
 7892WAT      O23917   8.172   1.260   4.648
 7892WAT     H123918   8.172   1.359   4.666
 7892WAT     H223919   8.203   1.211   4.729
 7893WAT      O23920   2.485   9.609   6.774
 7893WAT     H123921   2.526   9.527   6.734
 7893WAT     H223922   2.548   9.686   6.765
 7894WAT      O23923   1.484   6.730   9.312
 7894WAT     H123924   1.457   6.754   9.405
 7894WAT     H223925   1.418   6.665   9.274
 7895WAT      O23926   6.883   0.658   8.152
 7895WAT     H123927   6.895   0.559   8.139
 7895WAT     H223928   6.969   0.704   8.130
 7896WAT      O23929   7.511   8.864   5.069
 7896WAT     H123930   7.604   8.900   5.081
 7896WAT     H223931   7.453   8.895   5.144
 7897WAT      O23932   1.937   8.120   8.613
 7897WAT     H123933   2.030   8.097   8.643
 7897WAT     H223934   1.871   8.063   8.661
 7898WAT      O23935   7.412   8.506   5.113
 7898WAT     H123936   7.398   8.571   5.038
 7898WAT     H223937   7.502   8.463   5.103
 7899WAT      O23938   7.263   2.787   6.102
 7899WAT     H123939   7.203   2.734   6.043
 7899WAT     H223940   7.252   2.757   6.197
 7900WAT      O23941   6.851   2.417   4.603
 7900WAT     H123942   6.910   2.493   4.576
 7900WAT     H223943   6.794   2.445   4.680
 7901WAT      O23944   7.845   0.481   8.583
 7901WAT     H123945   7.841   0.516   8.676
 7901WAT     H223946   7.754   0.452   8.554
 7902WAT      O23947   4.808   5.789   8.609
 7902WAT     H123948   4.826   5.807   8.705
 7902WAT     H223949   4.877   5.727   8.573
 7903WAT      O23950   3.095   8.372   9.548
 7903WAT     H123951   3.142   8.380   9.461
 7903WAT     H223952   3.032   8.294   9.546
 7904WAT      O23953   0.389   3.029   2.073
 7904WAT     H123954   0.382   3.090   1.994
 7904WAT     H223955   0.345   2.942   2.051
 7905WAT      O23956   8.288   7.512   0.798
 7905WAT     H123957   8.331   7.503   0.708
 7905WAT     H223958   8.356   7.540   0.866
 7906WAT      O23959   7.267   5.588   2.917
 7906WAT     H123960   7.351   5.580   2.863
 7906WAT     H223961   7.192   5.541   2.870
 7907WAT      O23962   0.452   4.915   4.897
 7907WAT     H123963   0.525   4.978   4.870
 7907WAT     H223964   0.457   4.897   4.995
 7908WAT      O23965   3.792   0.742   5.993
 7908WAT     H123966   3.839   0.827   5.969
 7908WAT     H223967   3.856   0.680   6.037
 7909WAT      O23968   6.243   3.791   2.725
 7909WAT     H123969   6.341   3.796   2.711
 7909WAT     H223970   6.222   3.724   2.796
 7910WAT      O23971   3.287   3.924   3.484
 7910WAT     H123972   3.195   3.962   3.472
 7910WAT     H223973   3.313   3.873   3.403
 7911WAT      O23974   6.429   3.468   2.264
 7911WAT     H123975   6.388   3.464   2.355
 7911WAT     H223976   6.407   3.384   2.215
 7912WAT      O23977   8.100   5.731   6.729
 7912WAT     H123978   8.139   5.802   6.670
 7912WAT     H223979   8.172   5.688   6.783
 7913WAT      O23980   7.955   8.403   9.208
 7913WAT     H123981   7.983   8.309   9.227
 7913WAT     H223982   7.971   8.424   9.112
 7914WAT      O23983   9.810   6.714   5.550
 7914WAT     H123984   9.808   6.761   5.462
 7914WAT     H223985   9.771   6.773   5.621
 7915WAT      O23986   4.104   0.732   9.059
 7915WAT     H123987   4.041   0.730   9.137
 7915WAT     H223988   4.119   0.826   9.031
 7916WAT      O23989   1.880   9.637   6.155
 7916WAT     H123990   1.803   9.608   6.097
 7916WAT     H223991   1.952   9.675   6.097
 7917WAT      O23992   2.203   3.195   7.808
 7917WAT     H123993   2.212   3.123   7.738
 7917WAT     H223994   2.287   3.199   7.862
 7918WAT      O23995   8.869   0.500   4.477
 7918WAT     H123996   8.856   0.572   4.409
 7918WAT     H223997   8.964   0.500   4.508
 7919WAT      O23998   3.118   4.905   1.828
 7919WAT     H123999   3.019   4.908   1.811
 7919WAT     H224000   3.157   4.825   1.782
 7920WAT      O24001   6.057   6.421   0.630
 7920WAT     H124002   5.987   6.357   0.662
 7920WAT     H224003   6.147   6.382   0.648
 7921WAT      O24004   5.286   8.707   7.861
 7921WAT     H124005   5.235   8.778   7.811
 7921WAT     H224006   5.379   8.740   7.878
 7922WAT      O24007   7.388   0.167   1.577
 7922WAT     H124008   7.457   0.187   1.507
 7922WAT     H224009   7.434   0.134   1.660
 7923WAT      O24010   9.570   2.073   2.611
 7923WAT     H124011   9.502   2.090   2.540
 7923WAT     H224012   9.650   2.028   2.571
 7924WAT      O24013   4.792   2.655   2.195
 7924WAT     H124014   4.703   2.618   2.222
 7924WAT     H224015   4.790   2.680   2.098
 7925WAT      O24016   1.900   9.078   7.316
 7925WAT     H124017   1.842   8.997   7.302
 7925WAT     H224018   1.983   9.051   7.365
 7926WAT      O24019   5.550   6.884   0.871
 7926WAT     H124020   5.599   6.875   0.958
 7926WAT     H224021   5.495   6.803   0.855
 7927WAT      O24022   8.358   9.390   6.071
 7927WAT     H124023   8.390   9.462   6.133
 7927WAT     H224024   8.258   9.393   6.064
 7928WAT      O24025   4.480   7.356   6.417
 7928WAT     H124026   4.576   7.351   6.442
 7928WAT     H224027   4.466   7.316   6.327
 7929WAT      O24028   0.899   2.637   4.445
 7929WAT     H124029   0.931   2.720   4.399
 7929WAT     H224030   0.807   2.615   4.413
 7930WAT      O24031   4.871   5.969   1.091
 7930WAT     H124032   4.814   5.895   1.126
 7930WAT     H224033   4.813   6.037   1.046
 7931WAT      O24034   3.309   8.676   3.810
 7931WAT     H124035   3.385   8.625   3.769
 7931WAT     H224036   3.286   8.753   3.751
 7932WAT      O24037   5.815   5.490   2.369
 7932WAT     H124038   5.910   5.463   2.384
 7932WAT     H224039   5.813   5.586   2.339
 7933WAT      O24040   5.491   6.576   3.290
 7933WAT     H124041   5.465   6.606   3.199
 7933WAT     H224042   5.583   6.539   3.288
 7934WAT      O24043   4.551   2.431   6.088
 7934WAT     H124044   4.626   2.494   6.067
 7934WAT     H224045   4.478   2.480   6.135
 7935WAT      O24046   8.745   4.493   6.253
 7935WAT     H124047   8.835   4.454   6.268
 7935WAT     H224048   8.753   4.572   6.191
 7936WAT      O24049   7.563   5.976   5.530
 7936WAT     H124050   7.642   6.027   5.494
 7936WAT     H224051   7.502   5.951   5.456
 7937WAT      O24052   9.409   0.843   3.058
 7937WAT     H124053   9.467   0.861   3.138
 7937WAT     H224054   9.375   0.749   3.062
 7938WAT      O24055   3.655   5.867   7.653
 7938WAT     H124056   3.704   5.937   7.602
 7938WAT     H224057   3.676   5.777   7.615
 7939WAT      O24058   8.837   8.492   1.797
 7939WAT     H124059   8.784   8.532   1.722
 7939WAT     H224060   8.842   8.393   1.785
 7940WAT      O24061   9.616   3.137   4.578
 7940WAT     H124062   9.586   3.042   4.583
 7940WAT     H224063   9.542   3.197   4.608
 7941WAT      O24064   5.541   9.638   2.446
 7941WAT     H124065   5.573   9.548   2.476
 7941WAT     H224066   5.441   9.639   2.444
 7942WAT      O24067   5.807   9.022   5.178
 7942WAT     H124068   5.771   9.090   5.114
 7942WAT     H224069   5.740   8.949   5.191
 7943WAT      O24070   0.891   5.712   5.460
 7943WAT     H124071   0.909   5.789   5.522
 7943WAT     H224072   0.878   5.629   5.513
 7944WAT      O24073   6.694   3.204   1.879
 7944WAT     H124074   6.609   3.247   1.911
 7944WAT     H224075   6.747   3.270   1.827
 7945WAT      O24076   5.458   7.922   4.384
 7945WAT     H124077   5.472   7.833   4.339
 7945WAT     H224078   5.419   7.986   4.318
 7946WAT      O24079   0.987   9.222   0.026
 7946WAT     H124080   1.063   9.161   0.051
 7946WAT     H224081   0.925   9.174  -0.035
 7947WAT      O24082   6.187   3.793   0.824
 7947WAT     H124083   6.266   3.854   0.813
 7947WAT     H224084   6.218   3.698   0.820
 7948WAT      O24085   3.329   4.444   0.554
 7948WAT     H124086   3.306   4.482   0.464
 7948WAT     H224087   3.335   4.519   0.620
 7949WAT      O24088   5.303   0.667   8.893
 7949WAT     H124089   5.208   0.690   8.916
 7949WAT     H224090   5.363   0.743   8.919
 7950WAT      O24091   8.081   2.145   2.667
 7950WAT     H124092   8.106   2.109   2.577
 7950WAT     H224093   8.047   2.238   2.657
 7951WAT      O24094   6.625   8.917   1.976
 7951WAT     H124095   6.553   8.848   1.975
 7951WAT     H224096   6.706   8.880   2.022
 7952WAT      O24097   6.701   3.223   7.272
 7952WAT     H124098   6.652   3.138   7.254
 7952WAT     H224099   6.690   3.285   7.195
 7953WAT      O24100   6.817   2.913   4.706
 7953WAT     H124101   6.751   2.973   4.662
 7953WAT     H224102   6.798   2.818   4.681
 7954WAT      O24103   7.083   1.380   5.709
 7954WAT     H124104   7.060   1.359   5.614
 7954WAT     H224105   7.007   1.428   5.752
 7955WAT      O24106   7.150   5.990   0.720
 7955WAT     H124107   7.123   5.935   0.640
 7955WAT     H224108   7.249   5.983   0.733
 7956WAT      O24109   4.972   1.275   5.227
 7956WAT     H124110   5.062   1.291   5.187
 7956WAT     H224111   4.901   1.302   5.162
 7957WAT      O24112   2.101   2.634   6.195
 7957WAT     H124113   2.112   2.592   6.105
 7957WAT     H224114   2.104   2.734   6.186
 7958WAT      O24115   6.077   9.239   1.291
 7958WAT     H124116   6.068   9.334   1.321
 7958WAT     H224117   5.987   9.194   1.295
 7959WAT      O24118   6.020   4.853   8.442
 7959WAT     H124119   6.091   4.919   8.467
 7959WAT     H224120   5.974   4.884   8.359
 7960WAT      O24121   1.547   5.038   4.807
 7960WAT     H124122   1.586   5.111   4.864
 7960WAT     H224123   1.527   5.074   4.716
 7961WAT      O24124   8.330   1.525   5.241
 7961WAT     H124125   8.252   1.463   5.254
 7961WAT     H224126   8.399   1.480   5.184
 7962WAT      O24127   4.490   8.120   8.414
 7962WAT     H124128   4.418   8.186   8.395
 7962WAT     H224129   4.531   8.139   8.504
 7963WAT      O24130   3.466   3.444   1.619
 7963WAT     H124131   3.503   3.396   1.540
 7963WAT     H224132   3.531   3.440   1.695
 7964WAT      O24133   2.883   1.852   0.251
 7964WAT     H124134   2.890   1.788   0.175
 7964WAT     H224135   2.794   1.897   0.249
 7965WAT      O24136   8.761   2.481   3.623
 7965WAT     H124137   8.746   2.403   3.562
 7965WAT     H224138   8.672   2.518   3.652
 7966WAT      O24139   8.876   5.462   2.921
 7966WAT     H124140   8.861   5.368   2.949
 7966WAT     H224141   8.790   5.502   2.888
 7967WAT      O24142   5.960   6.197   3.431
 7967WAT     H124143   5.963   6.221   3.333
 7967WAT     H224144   5.867   6.168   3.454
 7968WAT      O24145   2.026   8.168   4.433
 7968WAT     H124146   1.986   8.134   4.517
 7968WAT     H224147   2.111   8.120   4.414
 7969WAT      O24148   2.798   5.507   2.004
 7969WAT     H124149   2.702   5.524   1.983
 7969WAT     H224150   2.806   5.474   2.098
 7970WAT      O24151   6.664   2.842   5.905
 7970WAT     H124152   6.606   2.923   5.915
 7970WAT     H224153   6.714   2.826   5.990
 7971WAT      O24154   8.558   5.393   6.056
 7971WAT     H124155   8.560   5.409   5.957
 7971WAT     H224156   8.463   5.391   6.087
 7972WAT      O24157   2.762   0.426   3.268
 7972WAT     H124158   2.737   0.427   3.171
 7972WAT     H224159   2.795   0.334   3.292
 7973WAT      O24160   2.135   6.051   3.696
 7973WAT     H124161   2.116   5.977   3.761
 7973WAT     H224162   2.096   6.027   3.606
 7974WAT      O24163   2.780   3.958   8.048
 7974WAT     H124164   2.710   3.943   7.977
 7974WAT     H224165   2.870   3.962   8.005
 7975WAT      O24166   5.315   5.187   5.608
 7975WAT     H124167   5.348   5.122   5.540
 7975WAT     H224168   5.215   5.183   5.612
 7976WAT      O24169   1.581   6.142   1.817
 7976WAT     H124170   1.613   6.235   1.801
 7976WAT     H224171   1.656   6.078   1.800
 7977WAT      O24172   6.769   0.341   2.939
 7977WAT     H124173   6.814   0.323   3.027
 7977WAT     H224174   6.683   0.389   2.956
 7978WAT      O24175   2.328   6.994   8.803
 7978WAT     H124176   2.383   7.040   8.873
 7978WAT     H224177   2.278   6.918   8.844
 7979WAT      O24178   0.406   1.139   0.778
 7979WAT     H124179   0.460   1.112   0.698
 7979WAT     H224180   0.335   1.204   0.750
 7980WAT      O24181   6.365   7.265   9.181
 7980WAT     H124182   6.318   7.351   9.203
 7980WAT     H224183   6.337   7.235   9.089
 7981WAT      O24184   8.774   5.939   4.487
 7981WAT     H124185   8.694   5.961   4.543
 7981WAT     H224186   8.752   5.956   4.391
 7982WAT      O24187   2.805   1.849   9.707
 7982WAT     H124188   2.887   1.841   9.650
 7982WAT     H224189   2.799   1.943   9.742
 7983WAT      O24190   6.193   0.165   9.171
 7983WAT     H124191   6.270   0.112   9.207
 7983WAT     H224192   6.137   0.106   9.112
 7984WAT      O24193   0.819   8.036   0.723
 7984WAT     H124194   0.772   8.008   0.807
 7984WAT     H224195   0.773   7.995   0.644
 7985WAT      O24196   2.745   4.543   1.736
 7985WAT     H124197   2.802   4.463   1.721
 7985WAT     H224198   2.776   4.590   1.819
 7986WAT      O24199   4.113   5.688   5.595
 7986WAT     H124200   4.074   5.611   5.644
 7986WAT     H224201   4.117   5.667   5.497
 7987WAT      O24202   4.021   3.915   1.781
 7987WAT     H124203   4.082   3.865   1.720
 7987WAT     H224204   3.995   3.857   1.859
 7988WAT      O24205   0.181   0.206   9.176
 7988WAT     H124206   0.089   0.168   9.166
 7988WAT     H224207   0.189   0.286   9.117
 7989WAT      O24208   4.071   0.412   4.908
 7989WAT     H124209   4.099   0.389   4.815
 7989WAT     H224210   4.050   0.509   4.914
 7990WAT      O24211   3.722   8.307   6.014
 7990WAT     H124212   3.690   8.401   6.013
 7990WAT     H224213   3.803   8.300   6.072
 7991WAT      O24214   7.111   2.036   2.830
 7991WAT     H124215   7.101   2.013   2.926
 7991WAT     H224216   7.082   2.130   2.815
 7992WAT      O24217   8.416   9.621   3.279
 7992WAT     H124218   8.348   9.680   3.322
 7992WAT     H224219   8.491   9.604   3.343
 7993WAT      O24220   1.927   9.824   1.006
 7993WAT     H124221   2.011   9.782   0.972
 7993WAT     H224222   1.949   9.901   1.065
 7994WAT      O24223   8.073   8.323   8.059
 7994WAT     H124224   7.981   8.290   8.080
 7994WAT     H224225   8.082   8.335   7.960
 7995WAT      O24226   7.655   1.569   8.401
 7995WAT     H124227   7.611   1.658   8.390
 7995WAT     H224228   7.603   1.513   8.466
 7996WAT      O24229   3.241   8.727   4.334
 7996WAT     H124230   3.212   8.755   4.426
 7996WAT     H224231   3.170   8.750   4.268
 7997WAT      O24232   4.025   9.010   6.559
 7997WAT     H124233   3.993   8.959   6.639
 7997WAT     H224234   3.977   8.978   6.478
 7998WAT      O24235   9.762   5.039   5.703
 7998WAT     H124236   9.693   5.075   5.765
 7998WAT     H224237   9.757   4.939   5.701
 7999WAT      O24238   4.705   3.356   7.884
 7999WAT     H124239   4.805   3.350   7.885
 7999WAT     H224240   4.675   3.422   7.953
 8000WAT      O24241   7.660   1.087   9.291
 8000WAT     H124242   7.599   1.075   9.213
 8000WAT     H224243   7.734   1.149   9.267
 8001WAT      O24244   5.805   4.673   5.884
 8001WAT     H124245   5.834   4.768   5.871
 8001WAT     H224246   5.737   4.650   5.815
 8002WAT      O24247   4.999   4.033   0.763
 8002WAT     H124248   5.037   3.997   0.848
 8002WAT     H224249   5.016   4.132   0.759
 8003WAT      O24250   5.592   3.430   6.416
 8003WAT     H124251   5.640   3.498   6.471
 8003WAT     H224252   5.504   3.408   6.459
 8004WAT      O24253   3.971   7.402   8.369
 8004WAT     H124254   3.931   7.481   8.416
 8004WAT     H224255   3.937   7.318   8.411
 8005WAT      O24256   4.520   7.684   9.590
 8005WAT     H124257   4.572   7.619   9.535
 8005WAT     H224258   4.566   7.696   9.678
 8006WAT      O24259   6.462   9.735   7.973
 8006WAT     H124260   6.554   9.725   7.936
 8006WAT     H224261   6.406   9.790   7.910
 8007WAT      O24262   8.918   3.653   3.806
 8007WAT     H124263   8.894   3.557   3.820
 8007WAT     H224264   8.872   3.709   3.875
 8008WAT      O24265   8.590   1.140   7.346
 8008WAT     H124266   8.560   1.176   7.258
 8008WAT     H224267   8.597   1.214   7.413
 8009WAT      O24268   3.660   2.309   5.275
 8009WAT     H124269   3.674   2.210   5.284
 8009WAT     H224270   3.736   2.358   5.316
 8010WAT      O24271   1.904   7.778   9.741
 8010WAT     H124272   1.862   7.694   9.774
 8010WAT     H224273   1.840   7.854   9.754
 8011WAT      O24274   9.453   6.115   6.072
 8011WAT     H124275   9.354   6.112   6.069
 8011WAT     H224276   9.485   6.117   6.167
 8012WAT      O24277   6.276   0.848   0.256
 8012WAT     H124278   6.239   0.888   0.172
 8012WAT     H224279   6.271   0.748   0.249
 8013WAT      O24280   6.537   3.508   5.436
 8013WAT     H124281   6.637   3.502   5.434
 8013WAT     H224282   6.502   3.497   5.343
 8014WAT      O24283   0.673   3.443   0.485
 8014WAT     H124284   0.661   3.483   0.576
 8014WAT     H224285   0.682   3.516   0.418
 8015WAT      O24286   0.925   0.904   7.728
 8015WAT     H124287   0.990   0.971   7.762
 8015WAT     H224288   0.857   0.950   7.671
 8016WAT      O24289   2.756   6.873   4.980
 8016WAT     H124290   2.788   6.811   5.052
 8016WAT     H224291   2.749   6.823   4.894
 8017WAT      O24292   5.805   1.485   2.247
 8017WAT     H124293   5.841   1.401   2.208
 8017WAT     H224294   5.739   1.525   2.184
 8018WAT      O24295   7.050   9.635   4.951
 8018WAT     H124296   7.014   9.548   4.917
 8018WAT     H224297   7.038   9.705   4.881
 8019WAT      O24298   0.440   3.673   9.435
 8019WAT     H124299   0.490   3.650   9.352
 8019WAT     H224300   0.344   3.690   9.413
 8020WAT      O24301   4.047   1.415   5.739
 8020WAT     H124302   4.011   1.346   5.676
 8020WAT     H224303   4.024   1.506   5.705
 8021WAT      O24304   2.734   1.918   4.666
 8021WAT     H124305   2.762   1.899   4.572
 8021WAT     H224306   2.635   1.905   4.674
 8022WAT      O24307   5.046   4.185   9.040
 8022WAT     H124308   5.025   4.096   9.080
 8022WAT     H224309   5.051   4.254   9.112
 8023WAT      O24310   3.879   3.806   6.888
 8023WAT     H124311   3.794   3.792   6.837
 8023WAT     H224312   3.957   3.794   6.826
 8024WAT      O24313   0.067   9.175   1.441
 8024WAT     H124314   0.147   9.232   1.422
 8024WAT     H224315   0.040   9.125   1.359
 8025WAT      O24316   5.887   9.424   5.500
 8025WAT     H124317   5.791   9.446   5.489
 8025WAT     H224318   5.914   9.354   5.434
 8026WAT      O24319   2.596   1.465   1.690
 8026WAT     H124320   2.519   1.452   1.753
 8026WAT     H224321   2.563   1.457   1.595
 8027WAT      O24322   4.523   9.043   0.533
 8027WAT     H124323   4.575   8.967   0.494
 8027WAT     H224324   4.445   9.064   0.475
 8028WAT      O24325   8.419   8.276   8.705
 8028WAT     H124326   8.389   8.291   8.611
 8028WAT     H224327   8.383   8.188   8.737
 8029WAT      O24328   1.686   3.671   1.432
 8029WAT     H124329   1.693   3.710   1.340
 8029WAT     H224330   1.773   3.683   1.479
 8030WAT      O24331   2.520   2.848   5.814
 8030WAT     H124332   2.484   2.823   5.904
 8030WAT     H224333   2.517   2.947   5.803
 8031WAT      O24334   2.948   6.922   8.517
 8031WAT     H124335   2.877   6.986   8.543
 8031WAT     H224336   3.034   6.972   8.503
 8032WAT      O24337   6.567   5.594   1.650
 8032WAT     H124338   6.651   5.544   1.668
 8032WAT     H224339   6.491   5.530   1.638
 8033WAT      O24340   8.630   2.936   3.964
 8033WAT     H124341   8.543   2.906   4.002
 8033WAT     H224342   8.614   3.012   3.900
 8034WAT      O24343   0.194   1.858   3.228
 8034WAT     H124344   0.240   1.770   3.216
 8034WAT     H224345   0.099   1.844   3.255
 8035WAT      O24346   4.199   7.198   9.874
 8035WAT     H124347   4.164   7.207   9.781
 8035WAT     H224348   4.141   7.135   9.926
 8036WAT      O24349   8.798   5.338   9.870
 8036WAT     H124350   8.775   5.337   9.967
 8036WAT     H224351   8.737   5.277   9.821
 8037WAT      O24352   3.762   1.547   0.733
 8037WAT     H124353   3.833   1.583   0.673
 8037WAT     H224354   3.796   1.465   0.780
 8038WAT      O24355   4.764   4.699   1.038
 8038WAT     H124356   4.821   4.684   0.957
 8038WAT     H224357   4.759   4.614   1.090
 8039WAT      O24358   7.458   0.957   0.939
 8039WAT     H124359   7.499   0.875   0.979
 8039WAT     H224360   7.362   0.939   0.917
 8040WAT      O24361   3.000   5.904   9.291
 8040WAT     H124362   2.903   5.891   9.268
 8040WAT     H224363   3.045   5.956   9.218
 8041WAT      O24364   0.105   2.516   6.276
 8041WAT     H124365   0.139   2.561   6.193
 8041WAT     H224366   0.039   2.445   6.252
 8042WAT      O24367   7.100   3.714   2.329
 8042WAT     H124368   7.160   3.782   2.288
 8042WAT     H224369   7.058   3.659   2.256
 8043WAT      O24370   3.706   5.411   8.317
 8043WAT     H124371   3.635   5.393   8.249
 8043WAT     H224372   3.795   5.386   8.281
 8044WAT      O24373   6.132   1.478   3.880
 8044WAT     H124374   6.143   1.445   3.974
 8044WAT     H224375   6.040   1.517   3.870
 8045WAT      O24376   3.603   5.727   8.080
 8045WAT     H124377   3.689   5.677   8.070
 8045WAT     H224378   3.600   5.802   8.014
 8046WAT      O24379   2.252   7.593   3.780
 8046WAT     H124380   2.233   7.619   3.685
 8046WAT     H224381   2.326   7.650   3.816
 8047WAT      O24382   5.049   6.224   5.184
 8047WAT     H124383   5.058   6.211   5.085
 8047WAT     H224384   4.953   6.233   5.208
 8048WAT      O24385   2.879   7.870   3.386
 8048WAT     H124386   2.830   7.858   3.472
 8048WAT     H224387   2.845   7.952   3.339
 8049WAT      O24388   7.392   2.294   0.974
 8049WAT     H124389   7.459   2.278   1.047
 8049WAT     H224390   7.356   2.387   0.982
 8050WAT      O24391   3.255   1.936   6.773
 8050WAT     H124392   3.208   1.851   6.748
 8050WAT     H224393   3.206   2.014   6.734
 8051WAT      O24394   7.906   1.289   7.642
 8051WAT     H124395   7.842   1.294   7.566
 8051WAT     H224396   7.857   1.265   7.725
 8052WAT      O24397   8.792   3.000   0.475
 8052WAT     H124398   8.877   2.951   0.492
 8052WAT     H224399   8.798   3.049   0.388
 8053WAT      O24400   8.373   6.923   1.620
 8053WAT     H124401   8.461   6.968   1.605
 8053WAT     H224402   8.388   6.828   1.646
 8054WAT      O24403   8.897   1.306   4.272
 8054WAT     H124404   8.916   1.299   4.370
 8054WAT     H224405   8.905   1.402   4.244
 8055WAT      O24406   6.722   0.151   5.635
 8055WAT     H124407   6.732   0.065   5.686
 8055WAT     H224408   6.719   0.132   5.537
 8056WAT      O24409   3.802   2.654   8.778
 8056WAT     H124410   3.775   2.703   8.861
 8056WAT     H224411   3.777   2.709   8.698
 8057WAT      O24412   7.998   9.136   7.945
 8057WAT     H124413   8.054   9.126   8.027
 8057WAT     H224414   7.901   9.141   7.971
 8058WAT      O24415   2.432   4.892   6.115
 8058WAT     H124416   2.515   4.947   6.109
 8058WAT     H224417   2.382   4.917   6.198
 8059WAT      O24418   8.124   1.590   0.676
 8059WAT     H124419   8.206   1.538   0.699
 8059WAT     H224420   8.149   1.687   0.665
 8060WAT      O24421   6.828   2.541   8.464
 8060WAT     H124422   6.848   2.485   8.384
 8060WAT     H224423   6.730   2.538   8.483
 8061WAT      O24424   2.752   2.108   9.185
 8061WAT     H124425   2.765   2.198   9.227
 8061WAT     H224426   2.840   2.075   9.150
 8062WAT      O24427   5.572   8.531   0.882
 8062WAT     H124428   5.491   8.512   0.827
 8062WAT     H224429   5.589   8.454   0.944
 8063WAT      O24430   1.620   6.130   8.775
 8063WAT     H124431   1.712   6.163   8.754
 8063WAT     H224432   1.596   6.057   8.711
 8064WAT      O24433   5.327   8.868   8.728
 8064WAT     H124434   5.345   8.902   8.821
 8064WAT     H224435   5.341   8.942   8.662
 8065WAT      O24436   2.846   9.546   5.889
 8065WAT     H124437   2.938   9.531   5.851
 8065WAT     H224438   2.824   9.643   5.886
 8066WAT      O24439   4.294   3.956   0.173
 8066WAT     H124440   4.220   3.940   0.107
 8066WAT     H224441   4.326   4.050   0.166
 8067WAT      O24442   0.635   8.307   8.534
 8067WAT     H124443   0.631   8.407   8.538
 8067WAT     H224444   0.542   8.270   8.530
 8068WAT      O24445   8.744   2.897   6.434
 8068WAT     H124446   8.696   2.838   6.499
 8068WAT     H224447   8.677   2.948   6.379
 8069WAT      O24448   5.524   5.184   8.395
 8069WAT     H124449   5.525   5.284   8.395
 8069WAT     H224450   5.617   5.151   8.383
 8070WAT      O24451   8.577   6.905   4.192
 8070WAT     H124452   8.591   6.906   4.291
 8070WAT     H224453   8.665   6.910   4.146
 8071WAT      O24454   6.424   9.234   6.007
 8071WAT     H124455   6.464   9.259   5.919
 8071WAT     H224456   6.324   9.233   5.998
 8072WAT      O24457   6.203   6.710   6.696
 8072WAT     H124458   6.252   6.664   6.621
 8072WAT     H224459   6.258   6.784   6.732
 8073WAT      O24460   2.527   8.547   6.002
 8073WAT     H124461   2.445   8.494   5.981
 8073WAT     H224462   2.542   8.615   5.930
 8074WAT      O24463   3.870   1.312   0.863
 8074WAT     H124464   3.938   1.297   0.936
 8074WAT     H224465   3.782   1.275   0.892
 8075WAT      O24466   2.836   8.677   1.422
 8075WAT     H124467   2.816   8.648   1.515
 8075WAT     H224468   2.776   8.628   1.358
 8076WAT      O24469   1.434   3.923   6.949
 8076WAT     H124470   1.389   3.981   7.018
 8076WAT     H224471   1.508   3.871   6.992
 8077WAT      O24472   5.609   8.056   7.663
 8077WAT     H124473   5.510   8.063   7.671
 8077WAT     H224474   5.647   8.145   7.633
 8078WAT      O24475   1.957   0.631   3.293
 8078WAT     H124476   2.051   0.602   3.311
 8078WAT     H224477   1.926   0.691   3.367
 8079WAT      O24478   0.711   5.364   2.491
 8079WAT     H124479   0.739   5.414   2.573
 8079WAT     H224480   0.634   5.304   2.514
 8080WAT      O24481   5.601   7.388   1.049
 8080WAT     H124482   5.522   7.392   0.988
 8080WAT     H224483   5.588   7.315   1.116
 8081WAT      O24484   4.988   7.768   2.580
 8081WAT     H124485   5.052   7.714   2.525
 8081WAT     H224486   4.959   7.849   2.528
 8082WAT      O24487   9.307   8.081   3.366
 8082WAT     H124488   9.265   8.136   3.438
 8082WAT     H224489   9.366   8.138   3.310
 8083WAT      O24490   5.591   9.559   0.170
 8083WAT     H124491   5.674   9.511   0.142
 8083WAT     H224492   5.543   9.593   0.089
 8084WAT      O24493   2.232   9.025   5.819
 8084WAT     H124494   2.254   8.950   5.881
 8084WAT     H224495   2.150   9.002   5.767
 8085WAT      O24496   2.246   8.196   2.292
 8085WAT     H124497   2.218   8.223   2.384
 8085WAT     H224498   2.345   8.209   2.282
 8086WAT      O24499   8.099   8.973   7.105
 8086WAT     H124500   8.153   8.897   7.068
 8086WAT     H224501   8.156   9.026   7.168
 8087WAT      O24502   9.509   7.640   1.980
 8087WAT     H124503   9.598   7.609   1.947
 8087WAT     H224504   9.506   7.632   2.080
 8088WAT      O24505   2.181   1.151   8.238
 8088WAT     H124506   2.160   1.054   8.254
 8088WAT     H224507   2.145   1.179   8.150
 8089WAT      O24508   7.012   0.073   4.785
 8089WAT     H124509   7.106   0.079   4.820
 8089WAT     H224510   7.014   0.028   4.695
 8090WAT      O24511   5.936   7.954   2.214
 8090WAT     H124512   5.864   7.887   2.232
 8090WAT     H224513   6.025   7.910   2.224
 8091WAT      O24514   4.087   5.540   8.489
 8091WAT     H124515   4.033   5.623   8.490
 8091WAT     H224516   4.129   5.528   8.399
 8092WAT      O24517   1.507   5.662   9.476
 8092WAT     H124518   1.497   5.749   9.525
 8092WAT     H224519   1.568   5.674   9.398
 8093WAT      O24520   4.510   7.671   5.638
 8093WAT     H124521   4.447   7.636   5.708
 8093WAT     H224522   4.470   7.751   5.594
 8094WAT      O24523   4.646   6.015   5.639
 8094WAT     H124524   4.585   5.935   5.642
 8094WAT     H224525   4.611   6.085   5.701
 8095WAT      O24526   3.439   4.802   5.071
 8095WAT     H124527   3.522   4.770   5.118
 8095WAT     H224528   3.461   4.820   4.975
 8096WAT      O24529   7.663   9.702   7.646
 8096WAT     H124530   7.634   9.606   7.641
 8096WAT     H224531   7.742   9.710   7.707
 8097WAT      O24532   4.583   8.475   6.997
 8097WAT     H124533   4.498   8.511   6.959
 8097WAT     H224534   4.570   8.380   7.025
 8098WAT      O24535   3.519   9.306   0.727
 8098WAT     H124536   3.514   9.274   0.822
 8098WAT     H224537   3.427   9.305   0.687
 8099WAT      O24538   0.066   0.842   7.040
 8099WAT     H124539   0.079   0.872   7.134
 8099WAT     H224540  -0.022   0.876   7.006
 8100WAT      O24541   4.001   2.197   4.749
 8100WAT     H124542   3.962   2.113   4.711
 8100WAT     H224543   3.937   2.273   4.733
 8101WAT      O24544   8.459   8.311   2.510
 8101WAT     H124545   8.468   8.241   2.439
 8101WAT     H224546   8.367   8.309   2.548
 8102WAT      O24547   5.640   5.783   8.987
 8102WAT     H124548   5.609   5.851   9.053
 8102WAT     H224549   5.584   5.788   8.904
 8103WAT      O24550   2.301   8.825   8.723
 8103WAT     H124551   2.271   8.905   8.776
 8103WAT     H224552   2.254   8.825   8.635
 8104WAT      O24553   9.180   1.734   9.243
 8104WAT     H124554   9.240   1.663   9.279
 8104WAT     H224555   9.234   1.797   9.186
 8105WAT      O24556   3.647   4.525   0.776
 8105WAT     H124557   3.632   4.598   0.709
 8105WAT     H224558   3.578   4.531   0.848
 8106WAT      O24559   9.281   7.709   9.156
 8106WAT     H124560   9.193   7.709   9.203
 8106WAT     H224561   9.351   7.747   9.217
 8107WAT      O24562   2.439   1.646   1.120
 8107WAT     H124563   2.531   1.607   1.124
 8107WAT     H224564   2.371   1.573   1.117
 8108WAT      O24565   6.759   9.052   7.255
 8108WAT     H124566   6.859   9.057   7.263
 8108WAT     H224567   6.731   8.956   7.256
 8109WAT      O24568   6.591   3.883   8.326
 8109WAT     H124569   6.683   3.909   8.355
 8109WAT     H224570   6.583   3.892   8.227
 8110WAT      O24571   7.344   6.678   7.992
 8110WAT     H124572   7.299   6.754   8.038
 8110WAT     H224573   7.425   6.651   8.043
 8111WAT      O24574   0.849   4.896   7.344
 8111WAT     H124575   0.895   4.980   7.373
 8111WAT     H224576   0.818   4.846   7.425
 8112WAT      O24577   9.518   4.876   0.888
 8112WAT     H124578   9.604   4.915   0.920
 8112WAT     H224579   9.453   4.871   0.963
 8113WAT      O24580   7.704   6.118   8.082
 8113WAT     H124581   7.753   6.053   8.025
 8113WAT     H224582   7.648   6.178   8.024
 8114WAT      O24583   0.726   8.587   0.543
 8114WAT     H124584   0.734   8.686   0.528
 8114WAT     H224585   0.658   8.549   0.481
 8115WAT      O24586   3.368   7.756   2.425
 8115WAT     H124587   3.318   7.675   2.392
 8115WAT     H224588   3.359   7.830   2.359
 8116WAT      O24589   7.051   0.083   9.590
 8116WAT     H124590   7.113   0.106   9.664
 8116WAT     H224591   6.975   0.029   9.626
 8117WAT      O24592   6.238   8.224   2.262
 8117WAT     H124593   6.164   8.189   2.205
 8117WAT     H224594   6.318   8.165   2.254
 8118WAT      O24595   7.299   8.609   3.714
 8118WAT     H124596   7.249   8.603   3.628
 8118WAT     H224597   7.236   8.596   3.790
 8119WAT      O24598   5.746   6.688   4.138
 8119WAT     H124599   5.761   6.698   4.237
 8119WAT     H224600   5.828   6.648   4.097
 8120WAT      O24601   8.220   8.172   3.704
 8120WAT     H124602   8.159   8.251   3.711
 8120WAT     H224603   8.193   8.103   3.772
 8121WAT      O24604   7.372   0.170   5.447
 8121WAT     H124605   7.407   0.264   5.447
 8121WAT     H224606   7.446   0.107   5.466
 8122WAT      O24607   3.827   0.321   0.446
 8122WAT     H124608   3.862   0.401   0.495
 8122WAT     H224609   3.902   0.258   0.427
 8123WAT      O24610   0.469   3.689   3.373
 8123WAT     H124611   0.515   3.751   3.436
 8123WAT     H224612   0.522   3.604   3.365
 8124WAT      O24613   8.694   8.536   3.769
 8124WAT     H124614   8.708   8.498   3.861
 8124WAT     H224615   8.782   8.567   3.732
 8125WAT      O24616   3.844   2.235   3.452
 8125WAT     H124617   3.776   2.202   3.518
 8125WAT     H224618   3.935   2.222   3.490
 8126WAT      O24619   6.983   2.944   7.708
 8126WAT     H124620   6.924   2.967   7.630
 8126WAT     H224621   6.945   2.865   7.755
 8127WAT      O24622   9.070   1.782   3.499
 8127WAT     H124623   9.029   1.741   3.418
 8127WAT     H224624   9.127   1.860   3.473
 8128WAT      O24625   8.605   6.363   0.316
 8128WAT     H124626   8.547   6.412   0.382
 8128WAT     H224627   8.556   6.284   0.280
 8129WAT      O24628   5.475   6.804   9.817
 8129WAT     H124629   5.433   6.888   9.851
 8129WAT     H224630   5.413   6.727   9.832
 8130WAT      O24631   4.925   2.944   8.717
 8130WAT     H124632   4.830   2.945   8.686
 8130WAT     H224633   4.980   2.890   8.654
 8131WAT      O24634   8.391   1.581   1.562
 8131WAT     H124635   8.455   1.602   1.489
 8131WAT     H224636   8.403   1.485   1.590
 8132WAT      O24637   2.877   3.882   3.513
 8132WAT     H124638   2.789   3.924   3.491
 8132WAT     H224639   2.942   3.902   3.440
 8133WAT      O24640   0.945   0.157   2.775
 8133WAT     H124641   0.923   0.148   2.872
 8133WAT     H224642   0.933   0.252   2.746
 8134WAT      O24643   0.755   5.527   4.652
 8134WAT     H124644   0.718   5.471   4.578
 8134WAT     H224645   0.699   5.610   4.662
 8135WAT      O24646   9.340   1.585   8.344
 8135WAT     H124647   9.408   1.658   8.344
 8135WAT     H224648   9.332   1.548   8.251
 8136WAT      O24649   4.289   4.453   2.505
 8136WAT     H124650   4.269   4.385   2.576
 8136WAT     H224651   4.239   4.430   2.422
 8137WAT      O24652   9.471   5.805   7.892
 8137WAT     H124653   9.493   5.739   7.820
 8137WAT     H224654   9.431   5.887   7.850
 8138WAT      O24655   1.667   8.593   1.279
 8138WAT     H124656   1.688   8.615   1.375
 8138WAT     H224657   1.752   8.571   1.231
 8139WAT      O24658   7.757   5.220   7.735
 8139WAT     H124659   7.722   5.303   7.694
 8139WAT     H224660   7.853   5.208   7.712
 8140WAT      O24661   5.075   4.716   9.466
 8140WAT     H124662   5.154   4.773   9.443
 8140WAT     H224663   4.991   4.764   9.441
 8141WAT      O24664   7.177   5.681   6.007
 8141WAT     H124665   7.203   5.629   6.088
 8141WAT     H224666   7.257   5.729   5.970
 8142WAT      O24667   9.660   9.623   7.544
 8142WAT     H124668   9.659   9.594   7.640
 8142WAT     H224669   9.754   9.644   7.517
 8143WAT      O24670   1.383   1.524   4.152
 8143WAT     H124671   1.417   1.573   4.072
 8143WAT     H224672   1.415   1.570   4.235
 8144WAT      O24673   7.900   6.618   4.804
 8144WAT     H124674   7.832   6.585   4.739
 8144WAT     H224675   7.891   6.569   4.891
 8145WAT      O24676   2.828   5.868   4.377
 8145WAT     H124677   2.912   5.853   4.326
 8145WAT     H224678   2.815   5.966   4.392
 8146WAT      O24679   1.277   1.082   4.540
 8146WAT     H124680   1.314   1.038   4.458
 8146WAT     H224681   1.185   1.047   4.557
 8147WAT      O24682   9.369   0.152   4.150
 8147WAT     H124683   9.447   0.090   4.148
 8147WAT     H224684   9.336   0.162   4.244
 8148WAT      O24685   6.233   3.145   3.450
 8148WAT     H124686   6.235   3.160   3.351
 8148WAT     H224687   6.282   3.061   3.472
 8149WAT      O24688   5.516   2.004   3.675
 8149WAT     H124689   5.435   2.062   3.684
 8149WAT     H224690   5.562   1.998   3.764
 8150WAT      O24691   4.307   7.699   2.004
 8150WAT     H124692   4.323   7.798   1.994
 8150WAT     H224693   4.225   7.674   1.953
 8151WAT      O24694   5.830   9.044   0.497
 8151WAT     H124695   5.805   8.957   0.455
 8151WAT     H224696   5.781   9.055   0.583
 8152WAT      O24697   7.229   5.843   3.010
 8152WAT     H124698   7.225   5.752   2.970
 8152WAT     H224699   7.229   5.836   3.109
 8153WAT      O24700   8.646   8.682   8.435
 8153WAT     H124701   8.654   8.583   8.425
 8153WAT     H224702   8.674   8.709   8.528
 8154WAT      O24703   1.606   2.482   3.847
 8154WAT     H124704   1.619   2.484   3.946
 8154WAT     H224705   1.572   2.392   3.819
 8155WAT      O24706   1.576   4.667   7.131
 8155WAT     H124707   1.541   4.742   7.075
 8155WAT     H224708   1.634   4.607   7.076
 8156WAT      O24709   3.885   8.375   7.571
 8156WAT     H124710   3.974   8.386   7.527
 8156WAT     H224711   3.823   8.327   7.508
 8157WAT      O24712   0.155   1.729   8.289
 8157WAT     H124713   0.211   1.720   8.370
 8157WAT     H224714   0.169   1.650   8.229
 8158WAT      O24715   4.903   3.860   1.004
 8158WAT     H124716   4.990   3.814   1.015
 8158WAT     H224717   4.908   3.952   1.043
 8159WAT      O24718   2.075   2.766   9.831
 8159WAT     H124719   2.015   2.816   9.893
 8159WAT     H224720   2.105   2.827   9.757
 8160WAT      O24721   8.107   9.062   8.181
 8160WAT     H124722   8.199   9.023   8.187
 8160WAT     H224723   8.049   9.019   8.250
 8161WAT      O24724   7.384   6.069   4.359
 8161WAT     H124725   7.438   6.065   4.443
 8161WAT     H224726   7.325   6.151   4.361
 8162WAT      O24727   6.887   3.528   7.621
 8162WAT     H124728   6.980   3.493   7.608
 8162WAT     H224729   6.862   3.521   7.717
 8163WAT      O24730   9.753   5.122   8.343
 8163WAT     H124731   9.807   5.071   8.277
 8163WAT     H224732   9.745   5.070   8.428
 8164WAT      O24733   1.138   4.739   4.918
 8164WAT     H124734   1.090   4.709   4.835
 8164WAT     H224735   1.232   4.762   4.895
 8165WAT      O24736   9.163   7.669   4.397
 8165WAT     H124737   9.174   7.755   4.346
 8165WAT     H224738   9.093   7.681   4.467
 8166WAT      O24739   9.317   3.680   6.895
 8166WAT     H124740   9.218   3.688   6.891
 8166WAT     H224741   9.352   3.731   6.974
 8167WAT      O24742   6.045   1.907   0.523
 8167WAT     H124743   6.108   1.838   0.486
 8167WAT     H224744   6.079   1.998   0.499
 8168WAT      O24745   7.034   0.360   4.457
 8168WAT     H124746   7.012   0.311   4.372
 8168WAT     H224747   7.088   0.441   4.435
 8169WAT      O24748   3.850   2.945   2.058
 8169WAT     H124749   3.862   2.960   2.156
 8169WAT     H224750   3.940   2.945   2.013
 8170WAT      O24751   9.718   1.802   6.302
 8170WAT     H124752   9.794   1.855   6.265
 8170WAT     H224753   9.743   1.765   6.392
 8171WAT      O24754   5.686   3.251   9.284
 8171WAT     H124755   5.689   3.347   9.311
 8171WAT     H224756   5.747   3.237   9.206
 8172WAT      O24757   9.135   2.979   3.097
 8172WAT     H124758   9.224   2.991   3.053
 8172WAT     H224759   9.073   2.932   3.035
 8173WAT      O24760   2.934   8.475   7.039
 8173WAT     H124761   3.033   8.475   7.054
 8173WAT     H224762   2.906   8.563   7.000
 8174WAT      O24763   9.372   6.617   8.155
 8174WAT     H124764   9.454   6.562   8.144
 8174WAT     H224765   9.386   6.706   8.112
 8175WAT      O24766   3.480   0.872   2.412
 8175WAT     H124767   3.415   0.825   2.351
 8175WAT     H224768   3.430   0.912   2.489
 8176WAT      O24769   2.118   0.574   6.082
 8176WAT     H124770   2.158   0.662   6.108
 8176WAT     H224771   2.030   0.563   6.127
 8177WAT      O24772   8.799   5.486   9.210
 8177WAT     H124773   8.883   5.463   9.261
 8177WAT     H224774   8.750   5.401   9.188
 8178WAT      O24775   3.292   0.248   6.913
 8178WAT     H124776   3.238   0.311   6.856
 8178WAT     H224777   3.246   0.160   6.917
 8179WAT      O24778   5.224   2.541   7.783
 8179WAT     H124779   5.125   2.552   7.789
 8179WAT     H224780   5.249   2.447   7.803
 8180WAT      O24781   2.469   7.761   2.511
 8180WAT     H124782   2.426   7.675   2.537
 8180WAT     H224783   2.455   7.777   2.413
 8181WAT      O24784   9.200   5.864   5.694
 8181WAT     H124785   9.187   5.900   5.602
 8181WAT     H224786   9.152   5.922   5.760
 8182WAT      O24787   9.536   2.271   5.986
 8182WAT     H124788   9.577   2.236   6.070
 8182WAT     H224789   9.609   2.303   5.925
 8183WAT      O24790   2.600   7.936   9.548
 8183WAT     H124791   2.677   7.961   9.490
 8183WAT     H224792   2.630   7.867   9.614
 8184WAT      O24793   4.530   9.828   4.025
 8184WAT     H124794   4.586   9.856   4.103
 8184WAT     H224795   4.590   9.807   3.947
 8185WAT      O24796   2.844   2.945   9.679
 8185WAT     H124797   2.883   2.955   9.770
 8185WAT     H224798   2.764   2.884   9.683
 8186WAT      O24799   8.513   9.219   8.086
 8186WAT     H124800   8.431   9.215   8.029
 8186WAT     H224801   8.593   9.196   8.030
 8187WAT      O24802   2.618   3.247   6.715
 8187WAT     H124803   2.660   3.208   6.797
 8187WAT     H224804   2.661   3.209   6.634
 8188WAT      O24805   4.323   8.077   0.104
 8188WAT     H124806   4.368   8.006   0.049
 8188WAT     H224807   4.234   8.098   0.065
 8189WAT      O24808   9.263   6.312   7.914
 8189WAT     H124809   9.175   6.265   7.901
 8189WAT     H224810   9.252   6.409   7.894
 8190WAT      O24811   4.793   3.895   6.013
 8190WAT     H124812   4.878   3.843   6.022
 8190WAT     H224813   4.801   3.981   6.063
 8191WAT      O24814   0.401   7.002   3.838
 8191WAT     H124815   0.390   7.101   3.843
 8191WAT     H224816   0.410   6.974   3.743
 8192WAT      O24817   0.325   7.012   3.549
 8192WAT     H124818   0.401   7.028   3.486
 8192WAT     H224819   0.265   7.093   3.550
 8193WAT      O24820   0.457   0.674   1.762
 8193WAT     H124821   0.466   0.638   1.854
 8193WAT     H224822   0.497   0.765   1.757
 8194WAT      O24823   0.530   6.671   2.041
 8194WAT     H124824   0.459   6.636   1.980
 8194WAT     H224825   0.488   6.735   2.107
 8195WAT      O24826   6.432   0.840   8.885
 8195WAT     H124827   6.430   0.846   8.785
 8195WAT     H224828   6.345   0.873   8.922
 8196WAT      O24829   6.362   8.713   5.612
 8196WAT     H124830   6.455   8.692   5.580
 8196WAT     H224831   6.297   8.656   5.562
 8197WAT      O24832   8.974   6.236   8.095
 8197WAT     H124833   9.034   6.156   8.094
 8197WAT     H224834   8.927   6.243   8.007
 8198WAT      O24835   6.404   2.363   1.689
 8198WAT     H124836   6.331   2.404   1.743
 8198WAT     H224837   6.485   2.422   1.691
 8199WAT      O24838   3.175   2.945   9.843
 8199WAT     H124839   3.124   2.859   9.837
 8199WAT     H224840   3.113   3.019   9.867
 8200WAT      O24841   0.987   5.679   8.617
 8200WAT     H124842   0.924   5.692   8.540
 8200WAT     H224843   0.938   5.639   8.694
 8201WAT      O24844   6.976   4.111   6.145
 8201WAT     H124845   6.967   4.195   6.198
 8201WAT     H224846   7.046   4.123   6.075
 8202WAT      O24847   0.010   6.987   7.127
 8202WAT     H124848   0.047   6.952   7.213
 8202WAT     H224849  -0.015   6.911   7.067
 8203WAT      O24850   4.771   8.380   3.688
 8203WAT     H124851   4.849   8.438   3.663
 8203WAT     H224852   4.802   8.304   3.744
 8204WAT      O24853   1.940   3.361   5.668
 8204WAT     H124854   1.875   3.348   5.743
 8204WAT     H224855   1.918   3.444   5.618
 8205WAT      O24856   9.633   8.098   0.826
 8205WAT     H124857   9.727   8.117   0.798
 8205WAT     H224858   9.624   8.114   0.925
 8206WAT      O24859   1.713   5.221   3.858
 8206WAT     H124860   1.659   5.182   3.932
 8206WAT     H224861   1.766   5.149   3.813
 8207WAT      O24862   1.050   4.425   5.359
 8207WAT     H124863   1.043   4.501   5.294
 8207WAT     H224864   1.075   4.341   5.310
 8208WAT      O24865   9.694   6.180   0.332
 8208WAT     H124866   9.671   6.152   0.425
 8208WAT     H224867   9.631   6.137   0.267
 8209WAT      O24868   1.214   6.186   8.749
 8209WAT     H124869   1.205   6.109   8.812
 8209WAT     H224870   1.252   6.265   8.798
 8210WAT      O24871   7.403   7.422   0.804
 8210WAT     H124872   7.480   7.465   0.758
 8210WAT     H224873   7.406   7.444   0.902
 8211WAT      O24874   5.023   7.347   5.739
 8211WAT     H124875   5.006   7.251   5.763
 8211WAT     H224876   5.028   7.401   5.823
 8212WAT      O24877   8.654   5.582   1.511
 8212WAT     H124878   8.645   5.595   1.413
 8212WAT     H224879   8.564   5.585   1.554
 8213WAT      O24880   2.121   8.097   3.241
 8213WAT     H124881   2.197   8.088   3.306
 8213WAT     H224882   2.124   8.022   3.175
 8214WAT      O24883   6.012   8.715   4.302
 8214WAT     H124884   5.925   8.759   4.283
 8214WAT     H224885   6.073   8.780   4.348
 8215WAT      O24886   7.595   8.447   6.447
 8215WAT     H124887   7.522   8.396   6.492
 8215WAT     H224888   7.680   8.434   6.497
 8216WAT      O24889   5.654   0.723   1.208
 8216WAT     H124890   5.632   0.655   1.138
 8216WAT     H224891   5.742   0.701   1.250
 8217WAT      O24892   9.506   5.816   5.809
 8217WAT     H124893   9.557   5.738   5.774
 8217WAT     H224894   9.418   5.822   5.762
 8218WAT      O24895   9.647   7.059   1.757
 8218WAT     H124896   9.636   7.158   1.743
 8218WAT     H224897   9.744   7.036   1.751
 8219WAT      O24898   6.591   9.365   6.756
 8219WAT     H124899   6.519   9.377   6.825
 8219WAT     H224900   6.667   9.314   6.796
 8220WAT      O24901   3.577   4.650   4.475
 8220WAT     H124902   3.653   4.594   4.443
 8220WAT     H224903   3.538   4.608   4.558
 8221WAT      O24904   5.250   5.550   8.219
 8221WAT     H124905   5.167   5.604   8.205
 8221WAT     H224906   5.260   5.485   8.143
 8222WAT      O24907   7.604   1.528   6.585
 8222WAT     H124908   7.587   1.586   6.665
 8222WAT     H224909   7.545   1.557   6.510
 8223WAT      O24910   9.778   9.613   4.823
 8223WAT     H124911   9.818   9.589   4.911
 8223WAT     H224912   9.850   9.636   4.758
 8224WAT      O24913   6.886   0.428   5.394
 8224WAT     H124914   6.891   0.401   5.490
 8224WAT     H224915   6.794   0.409   5.359
 8225WAT      O24916   9.291   5.713   6.823
 8225WAT     H124917   9.370   5.679   6.875
 8225WAT     H224918   9.207   5.676   6.863
 8226WAT      O24919   2.458   5.338   0.631
 8226WAT     H124920   2.465   5.370   0.725
 8226WAT     H224921   2.388   5.390   0.583
 8227WAT      O24922   4.493   8.072   4.040
 8227WAT     H124923   4.591   8.049   4.037
 8227WAT     H224924   4.482   8.166   4.071
 8228WAT      O24925   6.659   4.357   8.245
 8228WAT     H124926   6.643   4.428   8.177
 8228WAT     H224927   6.684   4.272   8.199
 8229WAT      O24928   1.568   9.104   7.993
 8229WAT     H124929   1.513   9.186   7.977
 8229WAT     H224930   1.514   9.038   8.046
 8230WAT      O24931   4.694   5.977   6.347
 8230WAT     H124932   4.693   5.890   6.298
 8230WAT     H224933   4.693   5.960   6.445
 8231WAT      O24934   4.941   4.906   6.726
 8231WAT     H124935   4.934   4.811   6.696
 8231WAT     H224936   4.913   4.913   6.822
 8232WAT      O24937   8.619   4.220   9.730
 8232WAT     H124938   8.710   4.225   9.771
 8232WAT     H224939   8.580   4.130   9.748
 8233WAT      O24940   6.416   1.967   3.141
 8233WAT     H124941   6.342   1.912   3.180
 8233WAT     H224942   6.501   1.915   3.143
 8234WAT      O24943   4.974   4.901   9.716
 8234WAT     H124944   5.060   4.944   9.689
 8234WAT     H224945   4.933   4.856   9.636
 8235WAT      O24946   7.042   7.107   6.450
 8235WAT     H124947   7.035   7.050   6.531
 8235WAT     H224948   7.129   7.089   6.404
 8236WAT      O24949   8.263   7.811   3.783
 8236WAT     H124950   8.358   7.836   3.762
 8236WAT     H224951   8.224   7.879   3.845
 8237WAT      O24952   3.858   2.419   2.816
 8237WAT     H124953   3.799   2.342   2.793
 8237WAT     H224954   3.873   2.476   2.734
 8238WAT      O24955   3.767   5.283   2.960
 8238WAT     H124956   3.681   5.250   2.921
 8238WAT     H224957   3.761   5.382   2.976
 8239WAT      O24958   8.277   5.407   9.528
 8239WAT     H124959   8.250   5.450   9.614
 8239WAT     H224960   8.296   5.478   9.460
 8240WAT      O24961   0.014   9.526   0.656
 8240WAT     H124962   0.099   9.577   0.645
 8240WAT     H224963  -0.005   9.514   0.754
 8241WAT      O24964   5.422   4.075   1.019
 8241WAT     H124965   5.472   4.075   1.106
 8241WAT     H224966   5.326   4.096   1.036
 8242WAT      O24967   6.891   7.994   6.883
 8242WAT     H124968   6.847   8.024   6.967
 8242WAT     H224969   6.857   8.049   6.806
 8243WAT      O24970   3.271   5.258   3.621
 8243WAT     H124971   3.317   5.214   3.543
 8243WAT     H224972   3.172   5.258   3.606
 8244WAT      O24973   4.704   7.189   8.465
 8244WAT     H124974   4.730   7.180   8.561
 8244WAT     H224975   4.635   7.260   8.455
 8245WAT      O24976   3.449   9.816   4.626
 8245WAT     H124977   3.499   9.801   4.710
 8245WAT     H224978   3.492   9.890   4.574
 8246WAT      O24979   5.597   4.783   5.093
 8246WAT     H124980   5.684   4.735   5.083
 8246WAT     H224981   5.527   4.718   5.125
 8247WAT      O24982   8.112   1.210   5.109
 8247WAT     H124983   8.143   1.228   5.203
 8247WAT     H224984   8.051   1.131   5.108
 8248WAT      O24985   2.536   5.486   4.840
 8248WAT     H124986   2.623   5.440   4.823
 8248WAT     H224987   2.539   5.531   4.930
 8249WAT      O24988   0.692   2.675   2.754
 8249WAT     H124989   0.655   2.687   2.662
 8249WAT     H224990   0.673   2.582   2.786
 8250WAT      O24991   7.323   8.490   5.374
 8250WAT     H124992   7.374   8.558   5.427
 8250WAT     H224993   7.343   8.501   5.277
 8251WAT      O24994   3.184   8.436   7.752
 8251WAT     H124995   3.252   8.363   7.740
 8251WAT     H224996   3.096   8.396   7.777
 8252WAT      O24997   0.558   5.995   1.279
 8252WAT     H124998   0.579   6.020   1.373
 8252WAT     H224999   0.487   5.924   1.279
 8253WAT      O25000   6.424   5.762   8.868
 8253WAT     H125001   6.510   5.758   8.919
 8253WAT     H225002   6.389   5.856   8.870
 8254WAT      O25003   3.736   3.089   7.553
 8254WAT     H125004   3.729   3.055   7.459
 8254WAT     H225005   3.645   3.098   7.592
 8255WAT      O25006   5.728   6.638   6.825
 8255WAT     H125007   5.749   6.645   6.922
 8255WAT     H225008   5.631   6.619   6.813
 8256WAT      O25009   4.365   8.084   9.558
 8256WAT     H125010   4.342   7.993   9.523
 8256WAT     H225011   4.347   8.153   9.487
 8257WAT      O25012   6.002   1.505   0.768
 8257WAT     H125013   5.986   1.560   0.850
 8257WAT     H225014   5.957   1.547   0.690
 8258WAT      O25015   6.176   3.463   1.309
 8258WAT     H125016   6.128   3.547   1.332
 8258WAT     H225017   6.191   3.459   1.210
 8259WAT      O25018   9.578   0.372   0.954
 8259WAT     H125019   9.513   0.365   1.029
 8259WAT     H225020   9.633   0.456   0.966
 8260WAT      O25021   1.568   7.863   7.870
 8260WAT     H125022   1.666   7.865   7.886
 8260WAT     H225023   1.547   7.912   7.785
 8261WAT      O25024   4.227   1.255   4.652
 8261WAT     H125025   4.255   1.250   4.748
 8261WAT     H225026   4.135   1.293   4.646
 8262WAT      O25027   5.780   2.457   7.512
 8262WAT     H125028   5.819   2.543   7.544
 8262WAT     H225029   5.682   2.470   7.493
 8263WAT      O25030   6.275   5.289   3.342
 8263WAT     H125031   6.323   5.207   3.374
 8263WAT     H225032   6.276   5.292   3.243
 8264WAT      O25033   3.387   5.464   1.620
 8264WAT     H125034   3.295   5.473   1.658
 8264WAT     H225035   3.428   5.378   1.651
 8265WAT      O25036   4.893   9.785   3.934
 8265WAT     H125037   4.877   9.736   3.849
 8265WAT     H225038   4.865   9.881   3.923
 8266WAT      O25039   7.795   6.824   7.659
 8266WAT     H125040   7.795   6.739   7.606
 8266WAT     H225041   7.880   6.831   7.712
 8267WAT      O25042   1.431   7.681   2.567
 8267WAT     H125043   1.404   7.618   2.640
 8267WAT     H225044   1.351   7.701   2.509
 8268WAT      O25045   6.716   5.644   8.753
 8268WAT     H125046   6.628   5.608   8.722
 8268WAT     H225047   6.787   5.621   8.687
 8269WAT      O25048   8.770   0.203   3.869
 8269WAT     H125049   8.694   0.160   3.822
 8269WAT     H225050   8.809   0.139   3.935
 8270WAT      O25051   8.942   3.710   1.654
 8270WAT     H125052   8.956   3.611   1.664
 8270WAT     H225053   9.020   3.750   1.608
 8271WAT      O25054   7.059   6.711   5.522
 8271WAT     H125055   6.989   6.644   5.547
 8271WAT     H225056   7.113   6.676   5.446
 8272WAT      O25057   0.372   6.210   5.514
 8272WAT     H125058   0.394   6.293   5.566
 8272WAT     H225059   0.379   6.130   5.574
 8273WAT      O25060   2.306   2.786   4.066
 8273WAT     H125061   2.249   2.840   4.128
 8273WAT     H225062   2.273   2.796   3.972
 8274WAT      O25063   6.524   0.834   5.014
 8274WAT     H125064   6.568   0.754   5.054
 8274WAT     H225065   6.544   0.914   5.070
 8275WAT      O25066   4.691   6.024   0.603
 8275WAT     H125067   4.630   5.948   0.624
 8275WAT     H225068   4.666   6.103   0.658
 8276WAT      O25069   8.895   0.425   3.751
 8276WAT     H125070   8.865   0.346   3.804
 8276WAT     H225071   8.823   0.494   3.749
 8277WAT      O25072   0.415   3.592   1.680
 8277WAT     H125073   0.404   3.572   1.583
 8277WAT     H225074   0.507   3.567   1.709
 8278WAT      O25075   1.402   6.274   3.106
 8278WAT     H125076   1.399   6.283   3.206
 8278WAT     H225077   1.446   6.355   3.067
 8279WAT      O25078   6.295   6.999   9.256
 8279WAT     H125079   6.241   6.970   9.177
 8279WAT     H225080   6.338   7.087   9.236
 8280WAT      O25081   7.086   4.309   2.504
 8280WAT     H125082   7.024   4.348   2.436
 8280WAT     H225083   7.085   4.365   2.587
 8281WAT      O25084   5.193   6.994   1.480
 8281WAT     H125085   5.283   6.993   1.523
 8281WAT     H225086   5.204   7.001   1.381
 8282WAT      O25087   1.215   1.810   4.730
 8282WAT     H125088   1.302   1.858   4.714
 8282WAT     H225089   1.139   1.873   4.717
 8283WAT      O25090   7.201   5.103   7.101
 8283WAT     H125091   7.166   5.039   7.169
 8283WAT     H225092   7.283   5.148   7.136
 8284WAT      O25093   7.335   5.554   5.145
 8284WAT     H125094   7.317   5.645   5.183
 8284WAT     H225095   7.386   5.563   5.059
 8285WAT      O25096   0.630   0.540   8.980
 8285WAT     H125097   0.631   0.633   8.943
 8285WAT     H225098   0.538   0.502   8.974
 8286WAT      O25099   1.052   0.875   3.798
 8286WAT     H125100   0.990   0.822   3.740
 8286WAT     H225101   1.009   0.962   3.822
 8287WAT      O25102   3.856   0.488   2.233
 8287WAT     H125103   3.815   0.403   2.198
 8287WAT     H225104   3.936   0.466   2.290
 8288WAT      O25105   4.691   4.754   7.861
 8288WAT     H125106   4.686   4.676   7.923
 8288WAT     H225107   4.627   4.741   7.785
 8289WAT      O25108   4.076   4.097   0.811
 8289WAT     H125109   3.979   4.098   0.787
 8289WAT     H225110   4.089   4.042   0.894
 8290WAT      O25111   4.110   4.546   0.531
 8290WAT     H125112   4.190   4.506   0.485
 8290WAT     H225113   4.125   4.643   0.546
 8291WAT      O25114   0.270   6.275   1.461
 8291WAT     H125115   0.310   6.232   1.542
 8291WAT     H225116   0.330   6.262   1.382
 8292WAT      O25117   7.021   6.091   3.405
 8292WAT     H125118   6.978   6.004   3.381
 8292WAT     H225119   7.119   6.087   3.384
 8293WAT      O25120   8.004   0.022   3.221
 8293WAT     H125121   8.083   0.001   3.278
 8293WAT     H225122   8.002   0.119   3.200
 8294WAT      O25123   3.918   1.221   3.657
 8294WAT     H125124   4.011   1.255   3.654
 8294WAT     H225125   3.878   1.241   3.747
 8295WAT      O25126   6.035   8.471   7.002
 8295WAT     H125127   6.024   8.374   6.981
 8295WAT     H225128   5.959   8.522   6.961
 8296WAT      O25129   7.987   3.052   4.371
 8296WAT     H125130   7.923   3.039   4.447
 8296WAT     H225131   8.078   3.022   4.400
 8297WAT      O25132   4.605   0.122   8.678
 8297WAT     H125133   4.557   0.126   8.591
 8297WAT     H225134   4.626   0.215   8.708
 8298WAT      O25135   7.040   2.998   5.990
 8298WAT     H125136   7.094   3.051   6.055
 8298WAT     H225137   6.968   2.949   6.038
 8299WAT      O25138   6.189   8.838   7.385
 8299WAT     H125139   6.147   8.771   7.325
 8299WAT     H225140   6.260   8.888   7.335
 8300WAT      O25141   1.334   5.675   5.461
 8300WAT     H125142   1.412   5.615   5.477
 8300WAT     H225143   1.270   5.631   5.398
 8301WAT      O25144   4.110   7.254   9.628
 8301WAT     H125145   4.203   7.252   9.591
 8301WAT     H225146   4.070   7.345   9.614
 8302WAT      O25147   6.688   7.781   4.797
 8302WAT     H125148   6.697   7.852   4.728
 8302WAT     H225149   6.648   7.699   4.755
 8303WAT      O25150   4.862   6.355   1.564
 8303WAT     H125151   4.950   6.366   1.609
 8303WAT     H225152   4.863   6.404   1.477
 8304WAT      O25153   0.242   1.826   2.250
 8304WAT     H125154   0.250   1.781   2.339
 8304WAT     H225155   0.331   1.859   2.221
 8305WAT      O25156   3.052   4.567   0.828
 8305WAT     H125157   3.096   4.478   0.841
 8305WAT     H225158   3.053   4.618   0.914
 8306WAT      O25159   6.707   6.240   1.555
 8306WAT     H125160   6.755   6.314   1.508
 8306WAT     H225161   6.753   6.153   1.537
 8307WAT      O25162   9.074   3.292   4.334
 8307WAT     H125163   9.129   3.225   4.382
 8307WAT     H225164   9.116   3.383   4.343
 8308WAT      O25165   8.313   1.139   6.250
 8308WAT     H125166   8.383   1.120   6.320
 8308WAT     H225167   8.223   1.139   6.293
 8309WAT      O25168   4.844   9.806   8.728
 8309WAT     H125169   4.765   9.857   8.695
 8309WAT     H225170   4.823   9.709   8.729
 8310WAT      O25171   7.291   5.030   4.811
 8310WAT     H125172   7.204   5.064   4.777
 8310WAT     H225173   7.360   5.102   4.804
 8311WAT      O25174   2.857   0.597   8.508
 8311WAT     H125175   2.774   0.548   8.483
 8311WAT     H225176   2.851   0.627   8.603
 8312WAT      O25177   0.390   2.702   1.700
 8312WAT     H125178   0.463   2.633   1.699
 8312WAT     H225179   0.430   2.793   1.708
 8313WAT      O25180   3.549   0.057   5.345
 8313WAT     H125181   3.638   0.017   5.368
 8313WAT     H225182   3.546   0.079   5.248
 8314WAT      O25183   3.039   4.922   6.474
 8314WAT     H125184   3.119   4.977   6.450
 8314WAT     H225185   2.988   4.968   6.547
 8315WAT      O25186   8.364   1.351   6.556
 8315WAT     H125187   8.267   1.367   6.576
 8315WAT     H225188   8.395   1.418   6.489
 8316WAT      O25189   2.696   3.848   7.621
 8316WAT     H125190   2.692   3.945   7.642
 8316WAT     H225191   2.638   3.797   7.685
 8317WAT      O25192   8.234   2.715   0.247
 8317WAT     H125193   8.203   2.698   0.153
 8317WAT     H225194   8.276   2.805   0.252
 8318WAT      O25195   3.707   3.829   8.894
 8318WAT     H125196   3.750   3.792   8.812
 8318WAT     H225197   3.627   3.884   8.869
 8319WAT      O25198   5.997   9.007   5.599
 8319WAT     H125199   6.063   9.076   5.627
 8319WAT     H225200   5.933   8.990   5.674
 8320WAT      O25201   5.826   1.923   7.226
 8320WAT     H125202   5.801   1.989   7.155
 8320WAT     H225203   5.926   1.916   7.231
 8321WAT      O25204   9.599   7.131   4.371
 8321WAT     H125205   9.583   7.229   4.354
 8321WAT     H225206   9.690   7.119   4.410
 8322WAT      O25207   1.468   5.169   2.336
 8322WAT     H125208   1.469   5.074   2.367
 8322WAT     H225209   1.482   5.229   2.414
 8323WAT      O25210   9.025   6.656   0.243
 8323WAT     H125211   9.023   6.556   0.235
 8323WAT     H225212   8.937   6.688   0.278
 8324WAT      O25213   8.351   1.849   5.830
 8324WAT     H125214   8.363   1.947   5.841
 8324WAT     H225215   8.396   1.801   5.905
 8325WAT      O25216   4.000   5.800   8.469
 8325WAT     H125217   3.964   5.848   8.389
 8325WAT     H225218   4.100   5.798   8.465
 8326WAT      O25219   4.957   3.719   1.627
 8326WAT     H125220   4.863   3.691   1.644
 8326WAT     H225221   5.019   3.668   1.686
 8327WAT      O25222   4.951   0.646   0.668
 8327WAT     H125223   5.049   0.666   0.676
 8327WAT     H225224   4.930   0.566   0.724
 8328WAT      O25225   0.873   2.097   8.723
 8328WAT     H125226   0.917   2.026   8.666
 8328WAT     H225227   0.883   2.186   8.678
 8329WAT      O25228   4.852   2.793   7.512
 8329WAT     H125229   4.897   2.706   7.495
 8329WAT     H225230   4.920   2.866   7.512
 8330WAT      O25231   0.643   1.702   0.139
 8330WAT     H125232   0.727   1.683   0.189
 8330WAT     H225233   0.648   1.793   0.098
 8331WAT      O25234   5.170   2.880   2.723
 8331WAT     H125235   5.166   2.931   2.809
 8331WAT     H225236   5.230   2.801   2.734
 8332WAT      O25237   1.416   8.621   3.003
 8332WAT     H125238   1.429   8.641   2.906
 8332WAT     H225239   1.469   8.540   3.028
 8333WAT      O25240   3.323   2.340   4.242
 8333WAT     H125241   3.291   2.268   4.181
 8333WAT     H225242   3.276   2.426   4.221
 8334WAT      O25243   8.503   2.132   2.070
 8334WAT     H125244   8.523   2.229   2.084
 8334WAT     H225245   8.557   2.098   1.992
 8335WAT      O25246   5.989   0.631   7.987
 8335WAT     H125247   6.016   0.593   8.075
 8335WAT     H225248   5.929   0.710   8.001
 8336WAT      O25249   8.275   3.138   9.398
 8336WAT     H125250   8.181   3.139   9.430
 8336WAT     H225251   8.334   3.099   9.469
 8337WAT      O25252   5.640   3.612   3.643
 8337WAT     H125253   5.674   3.679   3.577
 8337WAT     H225254   5.553   3.644   3.681
 8338WAT      O25255   6.845   0.873   0.953
 8338WAT     H125256   6.912   0.887   1.026
 8338WAT     H225257   6.768   0.820   0.989
 8339WAT      O25258   0.488   1.263   7.305
 8339WAT     H125259   0.502   1.164   7.299
 8339WAT     H225260   0.493   1.303   7.213
 8340WAT      O25261   5.569   6.406   2.558
 8340WAT     H125262   5.490   6.347   2.573
 8340WAT     H225263   5.562   6.449   2.468
 8341WAT      O25264   6.987   6.553   4.384
 8341WAT     H125265   6.959   6.568   4.479
 8341WAT     H225266   6.908   6.565   4.324
 8342WAT      O25267   5.952   8.174   9.546
 8342WAT     H125268   5.924   8.226   9.627
 8342WAT     H225269   5.953   8.235   9.466
 8343WAT      O25270   0.505   7.058   1.057
 8343WAT     H125271   0.581   7.119   1.076
 8343WAT     H225272   0.461   7.031   1.144
 8344WAT      O25273   9.643   9.132   3.432
 8344WAT     H125274   9.681   9.066   3.497
 8344WAT     H225275   9.691   9.124   3.345
 8345WAT      O25276   8.288   2.776   9.877
 8345WAT     H125277   8.387   2.779   9.860
 8345WAT     H225278   8.240   2.815   9.799
 8346WAT      O25279   8.242   2.840   6.151
 8346WAT     H125280   8.151   2.808   6.178
 8346WAT     H225281   8.279   2.781   6.080
 8347WAT      O25282   7.775   6.567   7.267
 8347WAT     H125283   7.864   6.589   7.226
 8347WAT     H225284   7.724   6.506   7.207
 8348WAT      O25285   5.759   1.995   4.884
 8348WAT     H125286   5.732   2.011   4.979
 8348WAT     H225287   5.709   1.915   4.848
 8349WAT      O25288   0.056   9.342   6.823
 8349WAT     H125289   0.151   9.350   6.854
 8349WAT     H225290   0.011   9.268   6.873
 8350WAT      O25291   0.355   6.867   6.479
 8350WAT     H125292   0.365   6.963   6.453
 8350WAT     H225293   0.441   6.819   6.463
 8351WAT      O25294   2.533   0.968   3.627
 8351WAT     H125295   2.570   0.882   3.664
 8351WAT     H225296   2.609   1.029   3.604
 8352WAT      O25297   8.722   7.963   8.145
 8352WAT     H125298   8.805   7.908   8.161
 8352WAT     H225299   8.642   7.905   8.156
 8353WAT      O25300   7.964   3.883   1.585
 8353WAT     H125301   8.062   3.868   1.571
 8353WAT     H225302   7.937   3.967   1.539
 8354WAT      O25303   6.166   0.740   7.791
 8354WAT     H125304   6.223   0.785   7.859
 8354WAT     H225305   6.093   0.689   7.836
 8355WAT      O25306   3.219   4.659   5.410
 8355WAT     H125307   3.290   4.683   5.343
 8355WAT     H225308   3.255   4.675   5.502
 8356WAT      O25309   8.457   9.172   0.872
 8356WAT     H125310   8.512   9.233   0.813
 8356WAT     H225311   8.455   9.080   0.831
 8357WAT      O25312   9.799   9.435   5.597
 8357WAT     H125313   9.769   9.392   5.682
 8357WAT     H225314   9.821   9.364   5.530
 8358WAT      O25315   7.869   9.150   2.969
 8358WAT     H125316   7.792   9.197   2.928
 8358WAT     H225317   7.932   9.218   3.008
 8359WAT      O25318   9.700   4.544   4.075
 8359WAT     H125319   9.749   4.603   4.138
 8359WAT     H225320   9.765   4.501   4.012
 8360WAT      O25321   0.248   8.912   9.473
 8360WAT     H125322   0.263   8.927   9.571
 8360WAT     H225323   0.191   8.831   9.460
 8361WAT      O25324   0.250   4.882   4.509
 8361WAT     H125325   0.206   4.829   4.436
 8361WAT     H225326   0.277   4.820   4.583
 8362WAT      O25327   3.621   1.944   6.335
 8362WAT     H125328   3.671   2.028   6.315
 8362WAT     H225329   3.654   1.905   6.420
 8363WAT      O25330   7.128   2.092   3.620
 8363WAT     H125331   7.056   2.043   3.670
 8363WAT     H225332   7.159   2.170   3.674
 8364WAT      O25333   8.774   3.195   6.531
 8364WAT     H125334   8.874   3.191   6.536
 8364WAT     H225335   8.738   3.107   6.500
 8365WAT      O25336   4.078   9.443   7.031
 8365WAT     H125337   3.996   9.446   6.974
 8365WAT     H225338   4.067   9.506   7.108
 8366WAT      O25339   6.220   8.413   2.855
 8366WAT     H125340   6.289   8.468   2.809
 8366WAT     H225341   6.129   8.436   2.819
 8367WAT      O25342   1.975   0.770   8.591
 8367WAT     H125343   1.958   0.677   8.623
 8367WAT     H225344   1.899   0.800   8.533
 8368WAT      O25345   0.704   0.341   2.299
 8368WAT     H125346   0.709   0.279   2.377
 8368WAT     H225347   0.747   0.299   2.220
 8369WAT      O25348   0.885   5.647   6.853
 8369WAT     H125349   0.918   5.614   6.942
 8369WAT     H225350   0.797   5.605   6.833
 8370WAT      O25351   8.716   1.793   3.366
 8370WAT     H125352   8.640   1.732   3.389
 8370WAT     H225353   8.795   1.738   3.339
 8371WAT      O25354   1.286   3.594   0.253
 8371WAT     H125355   1.322   3.634   0.169
 8371WAT     H225356   1.350   3.612   0.328
 8372WAT      O25357   9.199   1.142   3.414
 8372WAT     H125358   9.180   1.214   3.480
 8372WAT     H225359   9.133   1.068   3.424
 8373WAT      O25360   6.969   5.800   5.239
 8373WAT     H125361   6.870   5.784   5.243
 8373WAT     H225362   7.011   5.768   5.324
 8374WAT      O25363   4.563   8.506   5.056
 8374WAT     H125364   4.478   8.464   5.087
 8374WAT     H225365   4.640   8.447   5.078
 8375WAT      O25366   0.340   4.781   8.795
 8375WAT     H125367   0.344   4.693   8.748
 8375WAT     H225368   0.323   4.767   8.893
 8376WAT      O25369   3.490   4.736   8.894
 8376WAT     H125370   3.479   4.819   8.838
 8376WAT     H225371   3.517   4.660   8.835
 8377WAT      O25372   8.886   6.799   1.131
 8377WAT     H125373   8.913   6.887   1.170
 8377WAT     H225374   8.963   6.761   1.080
 8378WAT      O25375   3.036   7.561   7.601
 8378WAT     H125376   3.097   7.637   7.577
 8378WAT     H225377   3.006   7.515   7.517
 8379WAT      O25378   3.787   4.749   9.491
 8379WAT     H125379   3.766   4.782   9.583
 8379WAT     H225380   3.870   4.794   9.458
 8380WAT      O25381   7.850   1.972   1.837
 8380WAT     H125382   7.944   1.982   1.806
 8380WAT     H225383   7.818   2.059   1.873
 8381WAT      O25384   1.386   4.910   7.365
 8381WAT     H125385   1.470   4.861   7.389
 8381WAT     H225386   1.307   4.856   7.394
 8382WAT      O25387   0.612   7.785   6.251
 8382WAT     H125388   0.668   7.816   6.327
 8382WAT     H225389   0.559   7.862   6.214
 8383WAT      O25390   0.584   0.757   8.812
 8383WAT     H125391   0.545   0.849   8.810
 8383WAT     H225392   0.684   0.763   8.803
 8384WAT      O25393   2.786   6.185   9.374
 8384WAT     H125394   2.691   6.187   9.406
 8384WAT     H225395   2.791   6.226   9.283
 8385WAT      O25396   2.853   5.850   1.147
 8385WAT     H125397   2.907   5.807   1.220
 8385WAT     H225398   2.898   5.832   1.059
 8386WAT      O25399   8.823   6.345   9.101
 8386WAT     H125400   8.728   6.375   9.101
 8386WAT     H225401   8.827   6.247   9.079
 8387WAT      O25402   5.617   5.284   2.559
 8387WAT     H125403   5.654   5.249   2.644
 8387WAT     H225404   5.661   5.371   2.537
 8388WAT      O25405   7.190   1.452   6.120
 8388WAT     H125406   7.196   1.489   6.213
 8388WAT     H225407   7.176   1.527   6.056
 8389WAT      O25408   3.534   8.760   9.202
 8389WAT     H125409   3.547   8.663   9.186
 8389WAT     H225410   3.453   8.774   9.259
 8390WAT      O25411   7.094   5.408   3.152
 8390WAT     H125412   7.140   5.358   3.225
 8390WAT     H225413   7.163   5.447   3.090
 8391WAT      O25414   0.777   1.497   5.442
 8391WAT     H125415   0.862   1.537   5.410
 8391WAT     H225416   0.724   1.464   5.364
 8392WAT      O25417   2.592   7.419   1.828
 8392WAT     H125418   2.673   7.453   1.875
 8392WAT     H225419   2.618   7.349   1.762
 8393WAT      O25420   5.837   0.270   2.615
 8393WAT     H125421   5.751   0.316   2.637
 8393WAT     H225422   5.875   0.229   2.698
 8394WAT      O25423   9.016   4.760   1.834
 8394WAT     H125424   9.019   4.716   1.923
 8394WAT     H225425   8.981   4.696   1.765
 8395WAT      O25426   4.596   9.238   0.883
 8395WAT     H125427   4.537   9.165   0.848
 8395WAT     H225428   4.685   9.233   0.838
 8396WAT      O25429   8.529   9.662   0.519
 8396WAT     H125430   8.595   9.636   0.448
 8396WAT     H225431   8.559   9.625   0.607
 8397WAT      O25432   3.650   9.814   4.845
 8397WAT     H125433   3.717   9.881   4.814
 8397WAT     H225434   3.675   9.724   4.810
 8398WAT      O25435   4.157   6.183   8.226
 8398WAT     H125436   4.197   6.223   8.143
 8398WAT     H225437   4.066   6.220   8.240
 8399WAT      O25438   2.797   7.392   6.098
 8399WAT     H125439   2.785   7.411   6.001
 8399WAT     H225440   2.848   7.467   6.141
 8400WAT      O25441   7.134   5.938   6.951
 8400WAT     H125442   7.046   5.965   6.988
 8400WAT     H225443   7.121   5.902   6.858
 8401WAT      O25444   3.138   8.124   2.457
 8401WAT     H125445   3.208   8.071   2.410
 8401WAT     H225446   3.101   8.193   2.394
 8402WAT      O25447   5.381   8.203   4.759
 8402WAT     H125448   5.380   8.106   4.782
 8402WAT     H225449   5.317   8.252   4.818
 8403WAT      O25450   0.545   0.656   7.695
 8403WAT     H125451   0.565   0.647   7.597
 8403WAT     H225452   0.631   0.662   7.746
 8404WAT      O25453   5.324   2.447   1.209
 8404WAT     H125454   5.321   2.543   1.182
 8404WAT     H225455   5.400   2.402   1.162
 8405WAT      O25456   9.702   1.424   7.250
 8405WAT     H125457   9.776   1.461   7.306
 8405WAT     H225458   9.698   1.474   7.164
 8406WAT      O25459   3.107   1.829   3.375
 8406WAT     H125460   3.048   1.867   3.448
 8406WAT     H225461   3.094   1.730   3.370
 8407WAT      O25462   2.415   9.013   9.782
 8407WAT     H125463   2.498   9.010   9.726
 8407WAT     H225464   2.335   9.019   9.724
 8408WAT      O25465   4.321   6.154   0.795
 8408WAT     H125466   4.262   6.100   0.735
 8408WAT     H225467   4.287   6.148   0.889
 8409WAT      O25468   4.474   9.793   1.290
 8409WAT     H125469   4.458   9.763   1.384
 8409WAT     H225470   4.535   9.728   1.244
 8410WAT      O25471   2.617   8.345   0.874
 8410WAT     H125472   2.650   8.266   0.927
 8410WAT     H225473   2.519   8.357   0.891
 8411WAT      O25474   9.298   3.622   7.236
 8411WAT     H125475   9.205   3.646   7.209
 8411WAT     H225476   9.361   3.690   7.198
 8412WAT      O25477   8.832   6.801   5.034
 8412WAT     H125478   8.845   6.877   5.097
 8412WAT     H225479   8.734   6.785   5.020
 8413WAT      O25480   0.092   7.611   4.684
 8413WAT     H125481   0.036   7.536   4.649
 8413WAT     H225482   0.155   7.643   4.613
 8414WAT      O25483   2.867   6.461   6.772
 8414WAT     H125484   2.810   6.381   6.753
 8414WAT     H225485   2.911   6.450   6.861
 8415WAT      O25486   1.354   5.994   0.808
 8415WAT     H125487   1.312   6.027   0.724
 8415WAT     H225488   1.342   5.895   0.814
 8416WAT      O25489   9.392   3.565   9.431
 8416WAT     H125490   9.300   3.587   9.464
 8416WAT     H225491   9.415   3.472   9.459
 8417WAT      O25492   8.167   4.040   9.647
 8417WAT     H125493   8.203   4.129   9.619
 8417WAT     H225494   8.190   4.024   9.743
 8418WAT      O25495   2.475   9.539   2.392
 8418WAT     H125496   2.445   9.448   2.363
 8418WAT     H225497   2.402   9.585   2.442
 8419WAT      O25498   8.914   5.709   6.435
 8419WAT     H125499   8.848   5.678   6.366
 8419WAT     H225500   8.878   5.689   6.526
 8420WAT      O25501   2.585   9.625   8.318
 8420WAT     H125502   2.511   9.560   8.335
 8420WAT     H225503   2.659   9.609   8.383
 8421WAT      O25504   4.705   9.733   0.227
 8421WAT     H125505   4.786   9.725   0.169
 8421WAT     H225506   4.624   9.746   0.170
 8422WAT      O25507   7.368   6.255   8.175
 8422WAT     H125508   7.359   6.353   8.194
 8422WAT     H225509   7.389   6.206   8.260
 8423WAT      O25510   8.380   3.402   1.946
 8423WAT     H125511   8.325   3.473   1.990
 8423WAT     H225512   8.466   3.442   1.915
 8424WAT      O25513   7.354   1.944   4.474
 8424WAT     H125514   7.439   1.913   4.516
 8424WAT     H225515   7.302   1.998   4.540
 8425WAT      O25516   5.119   5.679   1.834
 8425WAT     H125517   5.073   5.598   1.798
 8425WAT     H225518   5.210   5.687   1.793
 8426WAT      O25519   1.373   6.441   5.259
 8426WAT     H125520   1.376   6.377   5.335
 8426WAT     H225521   1.389   6.534   5.292
 8427WAT      O25522   1.758   1.742   7.095
 8427WAT     H125523   1.714   1.659   7.128
 8427WAT     H225524   1.788   1.798   7.172
 8428WAT      O25525   0.427   1.913   2.682
 8428WAT     H125526   0.371   1.983   2.639
 8428WAT     H225527   0.516   1.952   2.708
 8429WAT      O25528   4.165   5.540   2.980
 8429WAT     H125529   4.076   5.580   3.001
 8429WAT     H225530   4.164   5.443   3.003
 8430WAT      O25531   1.509   3.271   9.510
 8430WAT     H125532   1.553   3.329   9.441
 8430WAT     H225533   1.413   3.298   9.520
 8431WAT      O25534   9.515   1.840   6.630
 8431WAT     H125535   9.442   1.825   6.696
 8431WAT     H225536   9.548   1.752   6.595
 8432WAT      O25537   9.691   8.754   1.580
 8432WAT     H125538   9.696   8.846   1.617
 8432WAT     H225539   9.735   8.752   1.490
 8433WAT      O25540   2.758   9.543   9.098
 8433WAT     H125541   2.675   9.532   9.153
 8433WAT     H225542   2.765   9.637   9.066
 8434WAT      O25543   8.676   1.510   6.871
 8434WAT     H125544   8.764   1.540   6.907
 8434WAT     H225545   8.659   1.554   6.783
 8435WAT      O25546   1.841   5.358   1.471
 8435WAT     H125547   1.823   5.456   1.483
 8435WAT     H225548   1.939   5.343   1.461
 8436WAT      O25549   8.511   4.742   6.617
 8436WAT     H125550   8.512   4.658   6.563
 8436WAT     H225551   8.435   4.800   6.588
 8437WAT      O25552   0.183   7.073   8.082
 8437WAT     H125553   0.179   7.116   8.172
 8437WAT     H225554   0.099   7.022   8.066
 8438WAT      O25555   0.384   8.532   0.156
 8438WAT     H125556   0.289   8.546   0.183
 8438WAT     H225557   0.397   8.436   0.131
 8439WAT      O25558   9.439   1.016   3.556
 8439WAT     H125559   9.417   0.919   3.560
 8439WAT     H225560   9.362   1.067   3.519
 8440WAT      O25561   1.783   8.944   1.384
 8440WAT     H125562   1.717   8.898   1.443
 8440WAT     H225563   1.875   8.930   1.420
 8441WAT      O25564   9.873   1.138   4.869
 8441WAT     H125565   9.916   1.200   4.934
 8441WAT     H225566   9.937   1.064   4.846
 8442WAT      O25567   7.717   5.455   3.536
 8442WAT     H125568   7.640   5.519   3.537
 8442WAT     H225569   7.762   5.455   3.626
 8443WAT      O25570   4.141   9.493   2.523
 8443WAT     H125571   4.070   9.560   2.501
 8443WAT     H225572   4.103   9.401   2.515
 8444WAT      O25573   8.976   8.717   4.252
 8444WAT     H125574   8.920   8.785   4.301
 8444WAT     H225575   9.068   8.753   4.240
 8445WAT      O25576   5.640   7.542   7.145
 8445WAT     H125577   5.593   7.460   7.112
 8445WAT     H225578   5.584   7.623   7.125
 8446WAT      O25579   2.359   9.189   7.700
 8446WAT     H125580   2.294   9.140   7.758
 8446WAT     H225581   2.323   9.192   7.606
 8447WAT      O25582   4.511   7.318   6.803
 8447WAT     H125583   4.603   7.340   6.771
 8447WAT     H225584   4.517   7.275   6.893
 8448WAT      O25585   9.462   4.465   7.477
 8448WAT     H125586   9.371   4.491   7.511
 8448WAT     H225587   9.523   4.449   7.555
 8449WAT      O25588   2.025   4.497   5.788
 8449WAT     H125589   1.983   4.578   5.746
 8449WAT     H225590   2.112   4.523   5.829
 8450WAT      O25591   6.167   3.439   5.169
 8450WAT     H125592   6.214   3.519   5.209
 8450WAT     H225593   6.235   3.368   5.149
 8451WAT      O25594   6.959   4.166   5.809
 8451WAT     H125595   7.046   4.127   5.779
 8451WAT     H225596   6.972   4.261   5.837
 8452WAT      O25597   6.770   2.346   6.136
 8452WAT     H125598   6.830   2.271   6.164
 8452WAT     H225599   6.690   2.349   6.196
 8453WAT      O25600   3.723   4.713   2.351
 8453WAT     H125601   3.675   4.762   2.279
 8453WAT     H225602   3.668   4.636   2.382
 8454WAT      O25603   4.688   4.548   8.052
 8454WAT     H125604   4.781   4.555   8.086
 8454WAT     H225605   4.633   4.492   8.113
 8455WAT      O25606   4.876   4.225   3.867
 8455WAT     H125607   4.931   4.155   3.914
 8455WAT     H225608   4.928   4.261   3.790
 8456WAT      O25609   9.636   4.619   8.989
 8456WAT     H125610   9.732   4.595   8.997
 8456WAT     H225611   9.580   4.548   9.033
 8457WAT      O25612   7.479   1.430   2.099
 8457WAT     H125613   7.532   1.404   2.180
 8457WAT     H225614   7.382   1.420   2.119
 8458WAT      O25615   3.117   4.653   2.732
 8458WAT     H125616   3.144   4.749   2.741
 8458WAT     H225617   3.111   4.611   2.822
 8459WAT      O25618   9.274   3.014   6.331
 8459WAT     H125619   9.230   3.014   6.241
 8459WAT     H225620   9.374   3.017   6.320
 8460WAT      O25621   5.641   6.330   9.663
 8460WAT     H125622   5.650   6.428   9.679
 8460WAT     H225623   5.705   6.281   9.722
 8461WAT      O25624   8.847   0.921   3.094
 8461WAT     H125625   8.805   0.859   3.027
 8461WAT     H225626   8.942   0.894   3.109
 8462WAT      O25627   4.289   2.763   4.381
 8462WAT     H125628   4.353   2.725   4.449
 8462WAT     H225629   4.241   2.841   4.420
 8463WAT      O25630   7.499   2.398   7.635
 8463WAT     H125631   7.439   2.319   7.625
 8463WAT     H225632   7.494   2.454   7.552
 8464WAT      O25633   1.109   2.245   3.848
 8464WAT     H125634   1.098   2.284   3.940
 8464WAT     H225635   1.144   2.315   3.786
 8465WAT      O25636   1.168   1.418   5.945
 8465WAT     H125637   1.114   1.355   5.889
 8465WAT     H225638   1.126   1.426   6.035
 8466WAT      O25639   5.226   4.178   2.373
 8466WAT     H125640   5.130   4.201   2.388
 8466WAT     H225641   5.275   4.258   2.339
 8467WAT      O25642   6.004   8.277   6.316
 8467WAT     H125643   5.928   8.213   6.307
 8467WAT     H225644   6.072   8.238   6.378
 8468WAT      O25645   5.448   6.440   7.287
 8468WAT     H125646   5.471   6.503   7.362
 8468WAT     H225647   5.418   6.353   7.325
 8469WAT      O25648   1.179   7.900   2.953
 8469WAT     H125649   1.221   7.895   2.862
 8469WAT     H225650   1.175   7.809   2.993
 8470WAT      O25651   9.367   2.433   0.728
 8470WAT     H125652   9.377   2.447   0.827
 8470WAT     H225653   9.354   2.335   0.710
 8471WAT      O25654   3.618   2.904   7.898
 8471WAT     H125655   3.645   2.842   7.972
 8471WAT     H225656   3.625   2.999   7.930
 8472WAT      O25657   3.631   6.456   6.259
 8472WAT     H125658   3.612   6.533   6.320
 8472WAT     H225659   3.720   6.471   6.214
 8473WAT      O25660   0.587   5.496   7.480
 8473WAT     H125661   0.547   5.576   7.525
 8473WAT     H225662   0.595   5.421   7.545
 8474WAT      O25663   1.897   8.123   7.871
 8474WAT     H125664   1.908   8.151   7.776
 8474WAT     H225665   1.872   8.026   7.875
 8475WAT      O25666   3.078   3.882   7.564
 8475WAT     H125667   3.026   3.848   7.642
 8475WAT     H225668   3.019   3.934   7.503
 8476WAT      O25669   9.439   1.137   1.059
 8476WAT     H125670   9.438   1.046   1.100
 8476WAT     H225671   9.436   1.206   1.131
 8477WAT      O25672   0.385   5.605   7.855
 8477WAT     H125673   0.406   5.513   7.890
 8477WAT     H225674   0.464   5.640   7.804
 8478WAT      O25675   6.914   6.724   3.582
 8478WAT     H125676   6.825   6.741   3.625
 8478WAT     H225677   6.957   6.644   3.625
 8479WAT      O25678   2.295   0.740   3.011
 8479WAT     H125679   2.197   0.730   3.027
 8479WAT     H225680   2.341   0.655   3.035
 8480WAT      O25681   6.531   0.513   7.022
 8480WAT     H125682   6.454   0.569   6.993
 8480WAT     H225683   6.562   0.457   6.946
 8481WAT      O25684   9.639   6.038   5.897
 8481WAT     H125685   9.618   5.945   5.870
 8481WAT     H225686   9.571   6.071   5.963
 8482WAT      O25687   3.173   0.567   3.424
 8482WAT     H125688   3.157   0.489   3.484
 8482WAT     H225689   3.097   0.574   3.358
 8483WAT      O25690   3.844   6.715   7.396
 8483WAT     H125691   3.848   6.814   7.377
 8483WAT     H225692   3.825   6.666   7.312
 8484WAT      O25693   3.974   4.294   3.413
 8484WAT     H125694   3.918   4.342   3.346
 8484WAT     H225695   4.070   4.320   3.401
 8485WAT      O25696   2.232   8.262   9.375
 8485WAT     H125697   2.135   8.285   9.363
 8485WAT     H225698   2.243   8.200   9.452
 8486WAT      O25699   7.099   4.495   6.382
 8486WAT     H125700   7.080   4.491   6.284
 8486WAT     H225701   7.196   4.519   6.396
 8487WAT      O25702   8.599   6.879   1.132
 8487WAT     H125703   8.581   6.975   1.113
 8487WAT     H225704   8.695   6.858   1.115
 8488WAT      O25705   8.222   0.294   5.102
 8488WAT     H125706   8.221   0.320   5.005
 8488WAT     H225707   8.272   0.363   5.154
 8489WAT      O25708   1.801   7.373   5.689
 8489WAT     H125709   1.702   7.369   5.677
 8489WAT     H225710   1.823   7.428   5.769
 8490WAT      O25711   0.585   6.190   5.366
 8490WAT     H125712   0.513   6.211   5.431
 8490WAT     H225713   0.609   6.272   5.313
 8491WAT      O25714   1.406   2.212   7.689
 8491WAT     H125715   1.354   2.133   7.721
 8491WAT     H225716   1.343   2.280   7.651
 8492WAT      O25717   7.134   6.507   9.469
 8492WAT     H125718   7.133   6.432   9.402
 8492WAT     H225719   7.041   6.519   9.505
 8493WAT      O25720   2.607   8.986   6.831
 8493WAT     H125721   2.594   8.893   6.866
 8493WAT     H225722   2.655   8.980   6.743
 8494WAT      O25723   2.097   2.134   4.274
 8494WAT     H125724   2.026   2.181   4.221
 8494WAT     H225725   2.074   2.138   4.371
 8495WAT      O25726   2.493   0.788   5.843
 8495WAT     H125727   2.503   0.730   5.924
 8495WAT     H225728   2.404   0.834   5.846
 8496WAT      O25729   0.755   9.453   0.878
 8496WAT     H125730   0.831   9.498   0.924
 8496WAT     H225731   0.669   9.496   0.907
 8497WAT      O25732   1.186   3.133   5.082
 8497WAT     H125733   1.255   3.193   5.041
 8497WAT     H225734   1.125   3.098   5.010
 8498WAT      O25735   4.911   0.926   4.424
 8498WAT     H125736   4.855   0.915   4.506
 8498WAT     H225737   4.853   0.922   4.343
 8499WAT      O25738   1.591   5.456   5.216
 8499WAT     H125739   1.510   5.402   5.195
 8499WAT     H225740   1.673   5.402   5.197
 8500WAT      O25741   4.065   6.671   4.166
 8500WAT     H125742   4.139   6.737   4.156
 8500WAT     H225743   4.012   6.691   4.248
 8501WAT      O25744   2.165   0.341   5.565
 8501WAT     H125745   2.166   0.342   5.665
 8501WAT     H225746   2.139   0.431   5.530
 8502WAT      O25747   2.592   8.009   6.742
 8502WAT     H125748   2.668   8.009   6.807
 8502WAT     H225749   2.566   8.104   6.722
 8503WAT      O25750   3.223   4.341   0.889
 8503WAT     H125751   3.210   4.257   0.836
 8503WAT     H225752   3.214   4.321   0.986
 8504WAT      O25753   0.116   6.785   5.875
 8504WAT     H125754   0.127   6.866   5.933
 8504WAT     H225755   0.025   6.746   5.890
 8505WAT      O25756   1.554   5.238   7.669
 8505WAT     H125757   1.493   5.226   7.747
 8505WAT     H225758   1.597   5.328   7.673
 8506WAT      O25759   1.188   3.067   1.006
 8506WAT     H125760   1.238   3.129   0.945
 8506WAT     H225761   1.201   3.096   1.101
 8507WAT      O25762   7.752   8.453   2.500
 8507WAT     H125763   7.821   8.495   2.441
 8507WAT     H225764   7.704   8.381   2.449
 8508WAT      O25765   4.462   6.532   2.888
 8508WAT     H125766   4.550   6.578   2.901
 8508WAT     H225767   4.439   6.531   2.791
 8509WAT      O25768   8.198   6.505   5.639
 8509WAT     H125769   8.195   6.411   5.605
 8509WAT     H225770   8.187   6.504   5.738
 8510WAT      O25771   5.737   2.590   0.132
 8510WAT     H125772   5.797   2.615   0.208
 8510WAT     H225773   5.660   2.653   0.128
 8511WAT      O25774   2.514   9.321   7.085
 8511WAT     H125775   2.488   9.399   7.142
 8511WAT     H225776   2.607   9.293   7.107
 8512WAT      O25777   4.243   3.758   4.902
 8512WAT     H125778   4.310   3.708   4.958
 8512WAT     H225779   4.175   3.694   4.867
 8513WAT      O25780   5.155   8.153   5.164
 8513WAT     H125781   5.097   8.081   5.126
 8513WAT     H225782   5.098   8.221   5.211
 8514WAT      O25783   8.693   4.898   4.915
 8514WAT     H125784   8.651   4.860   4.832
 8514WAT     H225785   8.769   4.957   4.890
 8515WAT      O25786   1.777   6.584   3.219
 8515WAT     H125787   1.869   6.619   3.200
 8515WAT     H225788   1.765   6.496   3.171
 8516WAT      O25789   2.225   6.504   1.363
 8516WAT     H125790   2.204   6.582   1.422
 8516WAT     H225791   2.146   6.442   1.359
 8517WAT      O25792   7.880   2.855   3.656
 8517WAT     H125793   7.858   2.757   3.655
 8517WAT     H225794   7.795   2.907   3.652
 8518WAT      O25795   6.204   6.450   4.378
 8518WAT     H125796   6.197   6.481   4.473
 8518WAT     H225797   6.294   6.472   4.342
 8519WAT      O25798   6.348   2.024   9.203
 8519WAT     H125799   6.269   2.080   9.179
 8519WAT     H225800   6.427   2.052   9.149
 8520WAT      O25801   2.237   3.889   5.093
 8520WAT     H125802   2.247   3.957   5.165
 8520WAT     H225803   2.275   3.801   5.123
 8521WAT      O25804   8.858   0.368   6.618
 8521WAT     H125805   8.913   0.442   6.578
 8521WAT     H225806   8.898   0.280   6.592
 8522WAT      O25807   0.175   7.868   8.216
 8522WAT     H125808   0.128   7.943   8.169
 8522WAT     H225809   0.221   7.904   8.297
 8523WAT      O25810   5.732   7.021   8.779
 8523WAT     H125811   5.659   7.063   8.834
 8523WAT     H225812   5.694   6.990   8.692
 8524WAT      O25813   0.833   5.784   8.430
 8524WAT     H125814   0.880   5.858   8.382
 8524WAT     H225815   0.753   5.756   8.378
 8525WAT      O25816   7.917   6.948   8.149
 8525WAT     H125817   7.915   6.894   8.065
 8525WAT     H225818   7.984   6.910   8.213
 8526WAT      O25819   0.233   7.379   9.208
 8526WAT     H125820   0.166   7.440   9.167
 8526WAT     H225821   0.290   7.338   9.137
 8527WAT      O25822   9.299   0.126   7.419
 8527WAT     H125823   9.363   0.168   7.484
 8527WAT     H225824   9.264   0.196   7.357
 8528WAT      O25825   3.753   7.562   1.096
 8528WAT     H125826   3.718   7.553   1.003
 8528WAT     H225827   3.812   7.484   1.118
 8529WAT      O25828   4.453   7.955   2.327
 8529WAT     H125829   4.520   7.963   2.400
 8529WAT     H225830   4.497   7.915   2.246
 8530WAT      O25831   4.891   8.951   7.725
 8530WAT     H125832   4.844   8.871   7.761
 8530WAT     H225833   4.824   9.021   7.699
 8531WAT      O25834   1.750   0.365   2.919
 8531WAT     H125835   1.738   0.400   3.012
 8531WAT     H225836   1.733   0.437   2.853
 8532WAT      O25837   9.459   6.114   9.647
 8532WAT     H125838   9.404   6.035   9.675
 8532WAT     H225839   9.476   6.172   9.726
 8533WAT      O25840   5.070   6.033   2.043
 8533WAT     H125841   4.997   6.001   1.984
 8533WAT     H225842   5.032   6.088   2.118
 8534WAT      O25843   8.281   1.075   4.234
 8534WAT     H125844   8.228   1.150   4.273
 8534WAT     H225845   8.251   0.988   4.276
 8535WAT      O25846   3.582   4.523   1.207
 8535WAT     H125847   3.526   4.505   1.126
 8535WAT     H225848   3.603   4.436   1.253
 8536WAT      O25849   8.219   2.048   9.828
 8536WAT     H125850   8.167   2.065   9.744
 8536WAT     H225851   8.299   1.992   9.807
 8537WAT      O25852   5.534   2.299   6.452
 8537WAT     H125853   5.552   2.226   6.386
 8537WAT     H225854   5.439   2.331   6.440
 8538WAT      O25855   1.490   4.421   2.807
 8538WAT     H125856   1.408   4.379   2.847
 8538WAT     H225857   1.506   4.381   2.716
 8539WAT      O25858   2.579   0.241   7.847
 8539WAT     H125859   2.517   0.224   7.924
 8539WAT     H225860   2.672   0.215   7.873
 8540WAT      O25861   9.087   7.876   3.037
 8540WAT     H125862   9.177   7.871   3.080
 8540WAT     H225863   9.029   7.804   3.073
 8541WAT      O25864   0.236   3.895   8.896
 8541WAT     H125865   0.240   3.976   8.837
 8541WAT     H225866   0.189   3.919   8.981
 8542WAT      O25867   4.080   2.562   3.551
 8542WAT     H125868   4.176   2.564   3.578
 8542WAT     H225869   4.071   2.516   3.463
 8543WAT      O25870   8.930   1.143   2.936
 8543WAT     H125871   8.872   1.071   2.973
 8543WAT     H225872   8.998   1.170   3.004
 8544WAT      O25873   1.078   5.909   8.063
 8544WAT     H125874   0.990   5.880   8.026
 8544WAT     H225875   1.069   5.924   8.162
 8545WAT      O25876   9.868   9.827   8.671
 8545WAT     H125877   9.889   9.897   8.603
 8545WAT     H225878   9.775   9.793   8.656
 8546WAT      O25879   9.163   6.569   2.282
 8546WAT     H125880   9.207   6.499   2.225
 8546WAT     H225881   9.066   6.574   2.258
 8547WAT      O25882   1.810   2.954   8.827
 8547WAT     H125883   1.719   2.976   8.792
 8547WAT     H225884   1.816   2.856   8.845
 8548WAT      O25885   7.715   7.652   3.036
 8548WAT     H125886   7.661   7.672   2.954
 8548WAT     H225887   7.809   7.633   3.011
 8549WAT      O25888   5.366   5.286   5.080
 8549WAT     H125889   5.435   5.273   5.009
 8549WAT     H225890   5.339   5.382   5.084
 8550WAT      O25891   8.230   1.144   4.883
 8550WAT     H125892   8.187   1.183   4.964
 8550WAT     H225893   8.327   1.128   4.901
 8551WAT      O25894   8.357   1.354   6.100
 8551WAT     H125895   8.343   1.279   6.165
 8551WAT     H225896   8.445   1.342   6.054
 8552WAT      O25897   2.843   0.775   1.520
 8552WAT     H125898   2.898   0.727   1.588
 8552WAT     H225899   2.882   0.867   1.506
 8553WAT      O25900   2.561   3.938   3.958
 8553WAT     H125901   2.518   4.022   3.925
 8553WAT     H225902   2.522   3.860   3.910
 8554WAT      O25903   0.638   1.737   8.567
 8554WAT     H125904   0.652   1.763   8.663
 8554WAT     H225905   0.582   1.806   8.522
 8555WAT      O25906   2.812   8.035   6.425
 8555WAT     H125907   2.855   8.001   6.509
 8555WAT     H225908   2.737   7.974   6.400
 8556WAT      O25909   4.063   3.633   2.677
 8556WAT     H125910   4.120   3.596   2.751
 8556WAT     H225911   4.027   3.722   2.705
 8557WAT      O25912   5.207   7.082   8.998
 8557WAT     H125913   5.273   7.021   9.042
 8557WAT     H225914   5.232   7.177   9.016
 8558WAT      O25915   6.456   4.379   9.332
 8558WAT     H125916   6.357   4.396   9.327
 8558WAT     H225917   6.482   4.318   9.257
 8559WAT      O25918   2.606   0.084   8.396
 8559WAT     H125919   2.702   0.091   8.372
 8559WAT     H225920   2.558   0.029   8.328
 8560WAT      O25921   1.485   1.363   5.828
 8560WAT     H125922   1.431   1.279   5.826
 8560WAT     H225923   1.561   1.352   5.892
 8561WAT      O25924   4.656   8.941   9.302
 8561WAT     H125925   4.753   8.967   9.298
 8561WAT     H225926   4.632   8.914   9.395
 8562WAT      O25927   5.428   4.165   9.858
 8562WAT     H125928   5.426   4.216   9.944
 8562WAT     H225929   5.362   4.204   9.794
 8563WAT      O25930   6.420   1.155   9.704
 8563WAT     H125931   6.350   1.108   9.758
 8563WAT     H225932   6.437   1.104   9.620
 8564WAT      O25933   1.208   3.730   2.355
 8564WAT     H125934   1.191   3.736   2.453
 8564WAT     H225935   1.223   3.822   2.319
 8565WAT      O25936   3.353   5.175   8.815
 8565WAT     H125937   3.345   5.258   8.760
 8565WAT     H225938   3.399   5.197   8.901
 8566WAT      O25939   2.106   1.822   9.672
 8566WAT     H125940   2.021   1.775   9.647
 8566WAT     H225941   2.083   1.912   9.710
 8567WAT      O25942   0.677   6.229   9.868
 8567WAT     H125943   0.584   6.228   9.904
 8567WAT     H225944   0.741   6.201   9.939
 8568WAT      O25945   1.171   6.141   3.931
 8568WAT     H125946   1.233   6.152   3.854
 8568WAT     H225947   1.203   6.195   4.009
 8569WAT      O25948   8.335   5.283   3.257
 8569WAT     H125949   8.412   5.282   3.321
 8569WAT     H225950   8.286   5.369   3.264
 8570WAT      O25951   4.239   1.248   0.175
 8570WAT     H125952   4.297   1.207   0.245
 8570WAT     H225953   4.296   1.295   0.107
 8571WAT      O25954   8.422   2.648   3.894
 8571WAT     H125955   8.468   2.668   3.980
 8571WAT     H225956   8.358   2.572   3.907
 8572WAT      O25957   3.478   2.622   9.486
 8572WAT     H125958   3.411   2.658   9.551
 8572WAT     H225959   3.503   2.693   9.421
 8573WAT      O25960   3.122   3.714   4.487
 8573WAT     H125961   3.089   3.624   4.514
 8573WAT     H225962   3.195   3.704   4.419
 8574WAT      O25963   6.043   0.281   8.606
 8574WAT     H125964   5.989   0.341   8.666
 8574WAT     H225965   6.123   0.247   8.656
 8575WAT      O25966   0.593   7.141   9.122
 8575WAT     H125967   0.661   7.098   9.062
 8575WAT     H225968   0.557   7.073   9.186
 8576WAT      O25969   6.011   4.095   5.768
 8576WAT     H125970   6.040   4.191   5.765
 8576WAT     H225971   5.914   4.090   5.791
 8577WAT      O25972   2.068   8.013   9.731
 8577WAT     H125973   2.030   7.923   9.708
 8577WAT     H225974   2.050   8.033   9.827
 8578WAT      O25975   3.471   7.804   5.840
 8578WAT     H125976   3.483   7.761   5.930
 8578WAT     H225977   3.460   7.733   5.771
 8579WAT      O25978   9.671   8.021   1.569
 8579WAT     H125979   9.665   8.004   1.667
 8579WAT     H225980   9.637   8.113   1.549
 8580WAT      O25981   5.174   0.763   7.509
 8580WAT     H125982   5.077   0.755   7.485
 8580WAT     H225983   5.183   0.816   7.594
 8581WAT      O25984   6.372   5.394   9.449
 8581WAT     H125985   6.360   5.409   9.350
 8581WAT     H225986   6.374   5.482   9.496
 8582WAT      O25987   0.073   9.547   4.041
 8582WAT     H125988   0.086   9.448   4.046
 8582WAT     H225989   0.012   9.577   4.114
 8583WAT      O25990   7.491   5.819   7.338
 8583WAT     H125991   7.512   5.755   7.265
 8583WAT     H225992   7.529   5.909   7.316
 8584WAT      O25993   0.782   8.684   7.201
 8584WAT     H125994   0.781   8.751   7.275
 8584WAT     H225995   0.689   8.667   7.169
 8585WAT      O25996   5.897   9.277   3.917
 8585WAT     H125997   5.978   9.248   3.969
 8585WAT     H225998   5.847   9.347   3.969
 8586WAT      O25999   2.832   1.945   1.238
 8586WAT     H126000   2.745   1.946   1.189
 8586WAT     H226001   2.907   1.954   1.171
 8587WAT      O26002   5.953   8.849   1.097
 8587WAT     H126003   5.883   8.870   1.165
 8587WAT     H226004   5.932   8.761   1.054
 8588WAT      O26005   8.675   3.304   5.104
 8588WAT     H126006   8.657   3.223   5.161
 8588WAT     H226007   8.769   3.301   5.071
 8589WAT      O26008   7.188   0.432   9.481
 8589WAT     H126009   7.178   0.465   9.387
 8589WAT     H226010   7.099   0.403   9.515
 8590WAT      O26011   6.943   5.571   7.759
 8590WAT     H126012   6.871   5.507   7.731
 8590WAT     H226013   6.965   5.631   7.683
 8591WAT      O26014   9.176   2.209   6.430
 8591WAT     H126015   9.207   2.301   6.455
 8591WAT     H226016   9.118   2.173   6.503
 8592WAT      O26017   9.582   1.232   3.684
 8592WAT     H126018   9.539   1.149   3.650
 8592WAT     H226019   9.677   1.212   3.709
 8593WAT      O26020   7.599   2.734   4.630
 8593WAT     H126021   7.635   2.641   4.641
 8593WAT     H226022   7.516   2.731   4.574
 8594WAT      O26023   3.959   6.560   9.177
 8594WAT     H126024   3.984   6.482   9.119
 8594WAT     H226025   3.966   6.534   9.273
 8595WAT      O26026   2.970   8.068   7.292
 8595WAT     H126027   2.965   8.018   7.378
 8595WAT     H226028   2.981   8.004   7.216
 8596WAT      O26029   5.333   3.897   2.427
 8596WAT     H126030   5.293   3.988   2.423
 8596WAT     H226031   5.265   3.829   2.399
 8597WAT      O26032   4.089   1.208   6.232
 8597WAT     H126033   4.073   1.247   6.141
 8597WAT     H226034   4.009   1.155   6.260
 8598WAT      O26035   0.295   8.549   3.208
 8598WAT     H126036   0.204   8.515   3.231
 8598WAT     H226037   0.286   8.623   3.141
 8599WAT      O26038   6.897   8.693   3.113
 8599WAT     H126039   6.810   8.735   3.088
 8599WAT     H226040   6.969   8.762   3.113
 8600WAT      O26041   6.326   3.407   6.893
 8600WAT     H126042   6.378   3.405   6.978
 8600WAT     H226043   6.269   3.325   6.888
 8601WAT      O26044   8.367   5.491   7.564
 8601WAT     H126045   8.362   5.574   7.509
 8601WAT     H226046   8.282   5.439   7.553
 8602WAT      O26047   4.506   7.055   0.374
 8602WAT     H126048   4.455   7.073   0.290
 8602WAT     H226049   4.596   7.099   0.369
 8603WAT      O26050   4.953   7.319   3.609
 8603WAT     H126051   5.007   7.237   3.590
 8603WAT     H226052   4.896   7.304   3.691
 8604WAT      O26053   3.639   9.538   6.345
 8604WAT     H126054   3.712   9.509   6.282
 8604WAT     H226055   3.679   9.557   6.435
 8605WAT      O26056   4.246   3.752   9.588
 8605WAT     H126057   4.158   3.799   9.590
 8605WAT     H226058   4.231   3.653   9.592
 8606WAT      O26059   7.125   4.600   5.288
 8606WAT     H126060   7.199   4.652   5.245
 8606WAT     H226061   7.126   4.506   5.255
 8607WAT      O26062   6.316   2.520   6.669
 8607WAT     H126063   6.302   2.611   6.708
 8607WAT     H226064   6.414   2.500   6.664
 8608WAT      O26065   0.197   4.100   5.927
 8608WAT     H126066   0.171   4.142   6.014
 8608WAT     H226067   0.224   4.171   5.862
 8609WAT      O26068   4.576   2.610   0.153
 8609WAT     H126069   4.546   2.692   0.202
 8609WAT     H226070   4.500   2.546   0.144
 8610WAT      O26071   8.699   8.433   8.326
 8610WAT     H126072   8.623   8.375   8.298
 8610WAT     H226073   8.718   8.501   8.255
 8611WAT      O26074   4.291   7.613   3.673
 8611WAT     H126075   4.216   7.586   3.612
 8611WAT     H226076   4.339   7.691   3.633
 8612WAT      O26077   6.154   3.369   0.420
 8612WAT     H126078   6.062   3.330   0.432
 8612WAT     H226079   6.173   3.378   0.323
 8613WAT      O26080   3.228   2.687   5.704
 8613WAT     H126081   3.136   2.698   5.743
 8613WAT     H226082   3.247   2.766   5.645
 8614WAT      O26083   0.810   3.466   6.794
 8614WAT     H126084   0.739   3.415   6.745
 8614WAT     H226085   0.830   3.551   6.747
 8615WAT      O26086   4.922   6.337   7.837
 8615WAT     H126087   4.956   6.428   7.861
 8615WAT     H226088   4.965   6.308   7.752
 8616WAT      O26089   7.618   5.646   8.938
 8616WAT     H126090   7.696   5.584   8.938
 8616WAT     H226091   7.543   5.605   8.887
 8617WAT      O26092   2.487   6.743   2.275
 8617WAT     H126093   2.480   6.659   2.328
 8617WAT     H226094   2.395   6.779   2.258
 8618WAT      O26095   8.184   1.947   6.234
 8618WAT     H126096   8.278   1.954   6.202
 8618WAT     H226097   8.144   1.862   6.201
 8619WAT      O26098   5.977   3.223   4.162
 8619WAT     H126099   5.991   3.126   4.143
 8619WAT     H226100   6.041   3.277   4.110
 8620WAT      O26101   9.678   9.287   6.514
 8620WAT     H126102   9.671   9.287   6.414
 8620WAT     H226103   9.770   9.316   6.541
 8621WAT      O26104   3.834   1.197   8.833
 8621WAT     H126105   3.748   1.187   8.781
 8621WAT     H226106   3.813   1.224   8.927
 8622WAT      O26107   3.912   0.959   3.152
 8622WAT     H126108   4.006   0.962   3.185
 8622WAT     H226109   3.911   0.971   3.053
 8623WAT      O26110   4.932   7.679   8.187
 8623WAT     H126111   4.937   7.768   8.231
 8623WAT     H226112   4.992   7.677   8.107
 8624WAT      O26113   0.317   7.429   8.794
 8624WAT     H126114   0.347   7.373   8.871
 8624WAT     H226115   0.224   7.463   8.812
 8625WAT      O26116   2.747   8.414   9.535
 8625WAT     H126117   2.717   8.447   9.624
 8625WAT     H226118   2.797   8.328   9.546
 8626WAT      O26119   4.263   1.788   6.007
 8626WAT     H126120   4.210   1.823   6.085
 8626WAT     H226121   4.353   1.832   6.006
 8627WAT      O26122   0.729   5.590   3.670
 8627WAT     H126123   0.697   5.530   3.743
 8627WAT     H226124   0.801   5.544   3.619
 8628WAT      O26125   3.272   2.184   4.779
 8628WAT     H126126   3.202   2.113   4.769
 8628WAT     H226127   3.345   2.150   4.838
 8629WAT      O26128   6.822   7.400   2.639
 8629WAT     H126129   6.723   7.400   2.653
 8629WAT     H226130   6.849   7.485   2.593
 8630WAT      O26131   5.236   9.842   5.211
 8630WAT     H126132   5.312   9.808   5.265
 8630WAT     H226133   5.268   9.911   5.146
 8631WAT      O26134   6.805   8.854   6.799
 8631WAT     H126135   6.879   8.861   6.866
 8631WAT     H226136   6.738   8.926   6.816
 8632WAT      O26137   5.257   4.032   5.568
 8632WAT     H126138   5.235   3.935   5.579
 8632WAT     H226139   5.179   4.087   5.597
 8633WAT      O26140   6.378   0.115   7.042
 8633WAT     H126141   6.376   0.023   7.003
 8633WAT     H226142   6.471   0.136   7.072
 8634WAT      O26143   3.800   7.182   4.550
 8634WAT     H126144   3.874   7.247   4.568
 8634WAT     H226145   3.781   7.180   4.452
 8635WAT      O26146   6.749   3.198   3.851
 8635WAT     H126147   6.672   3.215   3.790
 8635WAT     H226148   6.779   3.104   3.841
 8636WAT      O26149   8.340   2.471   0.034
 8636WAT     H126150   8.314   2.554  -0.015
 8636WAT     H226151   8.415   2.493   0.097
 8637WAT      O26152   2.909   1.013   0.514
 8637WAT     H126153   2.826   1.028   0.567
 8637WAT     H226154   2.907   1.068   0.431
 8638WAT      O26155   0.508   7.015   9.710
 8638WAT     H126156   0.564   6.962   9.646
 8638WAT     H226157   0.430   7.055   9.660
 8639WAT      O26158   7.142   5.901   5.598
 8639WAT     H126159   7.078   5.897   5.675
 8639WAT     H226160   7.226   5.854   5.622
 8640WAT      O26161   7.714   6.190   9.671
 8640WAT     H126162   7.712   6.145   9.761
 8640WAT     H226163   7.774   6.270   9.675
 8641WAT      O26164   7.782   3.764   8.056
 8641WAT     H126165   7.731   3.727   8.133
 8641WAT     H226166   7.822   3.689   8.003
 8642WAT      O26167   3.417   2.985   0.685
 8642WAT     H126168   3.512   2.969   0.711
 8642WAT     H226169   3.411   3.004   0.587
 8643WAT      O26170   2.324   2.184   8.289
 8643WAT     H126171   2.226   2.186   8.309
 8643WAT     H226172   2.338   2.199   8.191
 8644WAT      O26173   8.676   2.644   7.404
 8644WAT     H126174   8.594   2.604   7.447
 8644WAT     H226175   8.751   2.645   7.471
 8645WAT      O26176   6.418   4.326   1.858
 8645WAT     H126177   6.493   4.264   1.836
 8645WAT     H226178   6.331   4.277   1.853
 8646WAT      O26179   2.064   4.046   6.254
 8646WAT     H126180   2.112   3.991   6.185
 8646WAT     H226181   2.092   4.141   6.246
 8647WAT      O26182   2.841   6.051   6.500
 8647WAT     H126183   2.880   5.959   6.506
 8647WAT     H226184   2.845   6.082   6.405
 8648WAT      O26185   2.281   6.589   5.104
 8648WAT     H126186   2.187   6.594   5.069
 8648WAT     H226187   2.312   6.494   5.102
 8649WAT      O26188   3.668   8.269   1.103
 8649WAT     H126189   3.664   8.267   1.203
 8649WAT     H226190   3.718   8.350   1.074
 8650WAT      O26191   2.684   6.330   8.142
 8650WAT     H126192   2.611   6.378   8.093
 8650WAT     H226193   2.653   6.309   8.235
 8651WAT      O26194   6.927   6.176   0.599
 8651WAT     H126195   6.958   6.091   0.641
 8651WAT     H226196   6.950   6.253   0.660
 8652WAT      O26197   8.350   5.126   8.061
 8652WAT     H126198   8.255   5.149   8.039
 8652WAT     H226199   8.411   5.171   7.997
 8653WAT      O26200   8.241   0.340   3.085
 8653WAT     H126201   8.285   0.425   3.114
 8653WAT     H226202   8.312   0.276   3.054
 8654WAT      O26203   8.427   8.486   2.192
 8654WAT     H126204   8.423   8.542   2.274
 8654WAT     H226205   8.498   8.521   2.131
 8655WAT      O26206   1.859   5.790   2.945
 8655WAT     H126207   1.951   5.792   2.985
 8655WAT     H226208   1.809   5.711   2.981
 8656WAT      O26209   1.618   9.068   0.244
 8656WAT     H126210   1.663   9.081   0.155
 8656WAT     H226211   1.611   8.970   0.264
 8657WAT      O26212   4.478   4.282   4.863
 8657WAT     H126213   4.498   4.227   4.782
 8657WAT     H226214   4.381   4.304   4.866
 8658WAT      O26215   7.445   3.778   3.839
 8658WAT     H126216   7.525   3.718   3.830
 8658WAT     H226217   7.364   3.724   3.859
 8659WAT      O26218   4.585   5.974   2.460
 8659WAT     H126219   4.645   6.021   2.525
 8659WAT     H226220   4.502   6.029   2.447
 8660WAT      O26221   9.002   7.764   5.021
 8660WAT     H126222   9.000   7.699   4.944
 8660WAT     H226223   9.088   7.752   5.071
 8661WAT      O26224   0.034   3.088   5.977
 8661WAT     H126225  -0.002   3.004   5.936
 8661WAT     H226226   0.126   3.070   6.012
 8662WAT      O26227   6.705   9.258   8.712
 8662WAT     H126228   6.799   9.286   8.696
 8662WAT     H226229   6.643   9.320   8.663
 8663WAT      O26230   3.103   7.026   3.744
 8663WAT     H126231   3.112   6.969   3.663
 8663WAT     H226232   3.159   7.108   3.733
 8664WAT      O26233   9.706   9.353   7.436
 8664WAT     H126234   9.805   9.348   7.452
 8664WAT     H226235   9.665   9.415   7.503
 8665WAT      O26236   8.414   2.856   4.091
 8665WAT     H126237   8.330   2.897   4.057
 8665WAT     H226238   8.399   2.816   4.181
 8666WAT      O26239   2.815   4.750   8.763
 8666WAT     H126240   2.786   4.823   8.825
 8666WAT     H226241   2.896   4.781   8.712
 8667WAT      O26242   5.844   5.837   3.875
 8667WAT     H126243   5.867   5.760   3.935
 8667WAT     H226244   5.917   5.850   3.808
 8668WAT      O26245   8.303   2.309   4.938
 8668WAT     H126246   8.246   2.282   5.016
 8668WAT     H226247   8.380   2.245   4.930
 8669WAT      O26248   1.960   0.420   9.013
 8669WAT     H126249   1.924   0.350   8.951
 8669WAT     H226250   2.050   0.450   8.980
 8670WAT      O26251   7.629   0.409   1.943
 8670WAT     H126252   7.570   0.396   1.863
 8670WAT     H226253   7.600   0.348   2.016
 8671WAT      O26254   4.029   3.389   5.948
 8671WAT     H126255   4.044   3.487   5.965
 8671WAT     H226256   4.033   3.339   6.034
 8672WAT      O26257   3.126   3.240   1.509
 8672WAT     H126258   3.180   3.307   1.559
 8672WAT     H226259   3.096   3.168   1.572
 8673WAT      O26260   8.609   3.070   3.729
 8673WAT     H126261   8.626   3.160   3.689
 8673WAT     H226262   8.536   3.024   3.678
 8674WAT      O26263   7.802   6.118   5.545
 8674WAT     H126264   7.827   6.073   5.630
 8674WAT     H226265   7.793   6.217   5.561
 8675WAT      O26266   0.183   0.117   9.510
 8675WAT     H126267   0.126   0.177   9.453
 8675WAT     H226268   0.271   0.161   9.526
 8676WAT      O26269   3.819   5.583   8.039
 8676WAT     H126270   3.809   5.538   7.950
 8676WAT     H226271   3.892   5.538   8.091
 8677WAT      O26272   7.985   7.802   5.044
 8677WAT     H126273   7.904   7.848   5.009
 8677WAT     H226274   7.965   7.761   5.133
 8678WAT      O26275   3.435   3.946   2.976
 8678WAT     H126276   3.518   3.918   3.024
 8678WAT     H226277   3.444   4.042   2.947
 8679WAT      O26278   2.926   4.510   9.235
 8679WAT     H126279   2.963   4.543   9.322
 8679WAT     H226280   2.839   4.555   9.216
 8680WAT      O26281   7.022   7.779   9.677
 8680WAT     H126282   7.049   7.778   9.773
 8680WAT     H226283   6.926   7.806   9.669
 8681WAT      O26284   4.392   2.211   5.568
 8681WAT     H126285   4.436   2.294   5.534
 8681WAT     H226286   4.304   2.235   5.609
 8682WAT      O26287   6.083   1.653   1.626
 8682WAT     H126288   6.112   1.699   1.542
 8682WAT     H226289   5.989   1.680   1.648
 8683WAT      O26290   3.909   0.425   3.149
 8683WAT     H126291   3.834   0.450   3.088
 8683WAT     H226292   3.968   0.358   3.104
 8684WAT      O26293   1.397   2.199   1.236
 8684WAT     H126294   1.442   2.253   1.307
 8684WAT     H226295   1.416   2.238   1.146
 8685WAT      O26296   8.873   8.381   0.164
 8685WAT     H126297   8.933   8.449   0.121
 8685WAT     H226298   8.928   8.308   0.204
 8686WAT      O26299   1.095   3.225   3.393
 8686WAT     H126300   1.085   3.296   3.463
 8686WAT     H226301   1.178   3.241   3.340
 8687WAT      O26302   8.659   3.221   6.134
 8687WAT     H126303   8.753   3.235   6.105
 8687WAT     H226304   8.610   3.309   6.131
 8688WAT      O26305   3.857   7.810   2.271
 8688WAT     H126306   3.780   7.748   2.282
 8688WAT     H226307   3.902   7.793   2.183
 8689WAT      O26308   0.073   2.156   7.621
 8689WAT     H126309   0.021   2.094   7.562
 8689WAT     H226310   0.049   2.140   7.716
 8690WAT      O26311   0.712   5.254   6.808
 8690WAT     H126312   0.713   5.193   6.887
 8690WAT     H226313   0.713   5.200   6.724
 8691WAT      O26314   6.606   2.715   2.898
 8691WAT     H126315   6.556   2.645   2.847
 8691WAT     H226316   6.553   2.799   2.900
 8692WAT      O26317   0.499   4.364   6.688
 8692WAT     H126318   0.579   4.312   6.659
 8692WAT     H226319   0.528   4.444   6.741
 8693WAT      O26320   8.876   6.472   8.869
 8693WAT     H126321   8.890   6.422   8.955
 8693WAT     H226322   8.854   6.407   8.796
 8694WAT      O26323   9.608   1.764   4.068
 8694WAT     H126324   9.525   1.807   4.032
 8694WAT     H226325   9.683   1.778   4.004
 8695WAT      O26326   2.226   6.228   9.124
 8695WAT     H126327   2.205   6.312   9.075
 8695WAT     H226328   2.141   6.181   9.149
 8696WAT      O26329   6.707   2.030   5.538
 8696WAT     H126330   6.731   1.941   5.577
 8696WAT     H226331   6.750   2.041   5.449
 8697WAT      O26332   6.877   4.525   3.918
 8697WAT     H126333   6.900   4.431   3.893
 8697WAT     H226334   6.813   4.524   3.994
 8698WAT      O26335   1.554   0.261   8.505
 8698WAT     H126336   1.542   0.292   8.599
 8698WAT     H226337   1.468   0.272   8.455
 8699WAT      O26338   4.072   5.009   6.999
 8699WAT     H126339   4.124   5.093   6.986
 8699WAT     H226340   4.079   4.953   6.916
 8700WAT      O26341   4.711   5.908   7.501
 8700WAT     H126342   4.633   5.869   7.451
 8700WAT     H226343   4.677   5.964   7.576
 8701WAT      O26344   0.104   1.136   7.141
 8701WAT     H126345   0.133   1.155   7.235
 8701WAT     H226346   0.063   1.045   7.136
 8702WAT      O26347   4.665   6.479   0.665
 8702WAT     H126348   4.687   6.394   0.714
 8702WAT     H226349   4.623   6.544   0.728
 8703WAT      O26350   0.887   1.670   0.256
 8703WAT     H126351   0.872   1.623   0.344
 8703WAT     H226352   0.927   1.760   0.273
 8704WAT      O26353   8.745   0.278   8.217
 8704WAT     H126354   8.830   0.305   8.172
 8704WAT     H226355   8.684   0.235   8.151
 8705WAT      O26356   5.597   7.456   3.924
 8705WAT     H126357   5.542   7.535   3.951
 8705WAT     H226358   5.693   7.473   3.948
 8706WAT      O26359   5.785   2.390   5.082
 8706WAT     H126360   5.802   2.340   4.996
 8706WAT     H226361   5.703   2.353   5.125
 8707WAT      O26362   0.763   1.197   6.378
 8707WAT     H126363   0.803   1.253   6.450
 8707WAT     H226364   0.822   1.117   6.361
 8708WAT      O26365   8.952   7.994   2.639
 8708WAT     H126366   8.942   8.022   2.734
 8708WAT     H226367   8.862   7.992   2.595
 8709WAT      O26368   2.352   1.896   9.289
 8709WAT     H126369   2.418   1.964   9.256
 8709WAT     H226370   2.386   1.856   9.374
 8710WAT      O26371   4.673   2.633   5.946
 8710WAT     H126372   4.756   2.686   5.926
 8710WAT     H226373   4.595   2.695   5.954
 8711WAT      O26374   5.201   1.818   0.133
 8711WAT     H126375   5.107   1.820   0.168
 8711WAT     H226376   5.221   1.905   0.087
 8712WAT      O26377   1.707   3.783   0.230
 8712WAT     H126378   1.757   3.745   0.152
 8712WAT     H226379   1.665   3.709   0.281
 8713WAT      O26380   5.776   8.985   9.347
 8713WAT     H126381   5.696   9.046   9.346
 8713WAT     H226382   5.844   9.018   9.282
 8714WAT      O26383   9.637   8.359   7.128
 8714WAT     H126384   9.726   8.400   7.106
 8714WAT     H226385   9.650   8.273   7.177
 8715WAT      O26386   5.959   7.195   4.069
 8715WAT     H126387   5.907   7.119   4.108
 8715WAT     H226388   6.053   7.167   4.054
 8716WAT      O26389   4.325   4.010   8.968
 8716WAT     H126390   4.317   4.106   8.939
 8716WAT     H226391   4.422   3.984   8.968
 8717WAT      O26392   6.109   9.272   4.856
 8717WAT     H126393   6.020   9.286   4.812
 8717WAT     H226394   6.130   9.174   4.858
 8718WAT      O26395   3.344   0.950   4.600
 8718WAT     H126396   3.443   0.934   4.599
 8718WAT     H226397   3.312   0.970   4.508
 8719WAT      O26398   7.060   4.134   0.368
 8719WAT     H126399   7.110   4.099   0.289
 8719WAT     H226400   7.084   4.079   0.449
 8720WAT      O26401   8.914   7.923   5.408
 8720WAT     H126402   8.825   7.958   5.380
 8720WAT     H226403   8.974   8.000   5.431
 8721WAT      O26404   1.419   5.890   8.970
 8721WAT     H126405   1.347   5.872   8.903
 8721WAT     H226406   1.426   5.989   8.986
 8722WAT      O26407   1.302   2.371   6.477
 8722WAT     H126408   1.322   2.469   6.470
 8722WAT     H226409   1.374   2.319   6.432
 8723WAT      O26410   2.187   0.393   5.898
 8723WAT     H126411   2.172   0.472   5.957
 8723WAT     H226412   2.099   0.354   5.872
 8724WAT      O26413   7.519   7.785   5.632
 8724WAT     H126414   7.507   7.808   5.729
 8724WAT     H226415   7.597   7.723   5.622
 8725WAT      O26416   7.007   3.955   1.127
 8725WAT     H126417   7.089   3.943   1.069
 8725WAT     H226418   6.945   3.878   1.113
 8726WAT      O26419   6.935   3.922   4.397
 8726WAT     H126420   6.855   3.980   4.379
 8726WAT     H226421   6.904   3.832   4.426
 8727WAT      O26422   2.070   6.775   7.242
 8727WAT     H126423   2.170   6.772   7.253
 8727WAT     H226424   2.028   6.700   7.294
 8728WAT      O26425   9.696   3.425   5.708
 8728WAT     H126426   9.759   3.348   5.720
 8728WAT     H226427   9.748   3.510   5.707
 8729WAT      O26428   4.443   7.131   2.894
 8729WAT     H126429   4.441   7.061   2.966
 8729WAT     H226430   4.387   7.209   2.922
 8730WAT      O26431   9.634   8.412   9.036
 8730WAT     H126432   9.690   8.363   8.969
 8730WAT     H226433   9.607   8.348   9.108
 8731WAT      O26434   7.514   1.777   1.825
 8731WAT     H126435   7.475   1.685   1.819
 8731WAT     H226436   7.546   1.805   1.734
 8732WAT      O26437   7.342   3.432   0.135
 8732WAT     H126438   7.270   3.473   0.078
 8732WAT     H226439   7.326   3.334   0.143
 8733WAT      O26440   1.043   7.501   3.604
 8733WAT     H126441   1.097   7.577   3.568
 8733WAT     H226442   0.994   7.531   3.686
 8734WAT      O26443   7.719   8.257   3.423
 8734WAT     H126444   7.786   8.330   3.410
 8734WAT     H226445   7.750   8.195   3.495
 8735WAT      O26446   3.493   2.532   8.137
 8735WAT     H126447   3.444   2.546   8.051
 8735WAT     H226448   3.447   2.461   8.191
 8736WAT      O26449   6.175   1.629   7.210
 8736WAT     H126450   6.127   1.562   7.267
 8736WAT     H226451   6.108   1.685   7.161
 8737WAT      O26452   2.915   3.241   4.054
 8737WAT     H126453   2.835   3.181   4.061
 8737WAT     H226454   2.917   3.303   4.133
 8738WAT      O26455   3.051   1.704   3.014
 8738WAT     H126456   2.995   1.683   2.934
 8738WAT     H226457   3.080   1.619   3.058
 8739WAT      O26458   3.017   3.464   6.709
 8739WAT     H126459   3.053   3.485   6.618
 8739WAT     H226460   3.069   3.388   6.749
 8740WAT      O26461   1.208   7.655   5.855
 8740WAT     H126462   1.232   7.741   5.900
 8740WAT     H226463   1.287   7.622   5.803
 8741WAT      O26464   4.263   1.665   8.203
 8741WAT     H126465   4.336   1.613   8.246
 8741WAT     H226466   4.180   1.608   8.198
 8742WAT      O26467   2.387   9.770   0.865
 8742WAT     H126468   2.479   9.732   0.858
 8742WAT     H226469   2.330   9.733   0.791
 8743WAT      O26470   2.679   8.113   9.247
 8743WAT     H126471   2.679   8.056   9.165
 8743WAT     H226472   2.599   8.173   9.246
 8744WAT      O26473   4.655   5.455   6.940
 8744WAT     H126474   4.574   5.479   6.887
 8744WAT     H226475   4.669   5.523   7.012
 8745WAT      O26476   5.438   7.328   1.333
 8745WAT     H126477   5.491   7.271   1.269
 8745WAT     H226478   5.351   7.353   1.290
 8746WAT      O26479   0.918   2.716   3.388
 8746WAT     H126480   0.972   2.797   3.409
 8746WAT     H226481   0.835   2.743   3.338
 8747WAT      O26482   1.455   0.118   3.448
 8747WAT     H126483   1.472   0.050   3.520
 8747WAT     H226484   1.478   0.079   3.359
 8748WAT      O26485   9.344   6.485   2.464
 8748WAT     H126486   9.271   6.504   2.399
 8748WAT     H226487   9.306   6.437   2.543
 8749WAT      O26488   8.402   5.816   5.816
 8749WAT     H126489   8.493   5.854   5.798
 8749WAT     H226490   8.400   5.720   5.787
 8750WAT      O26491   5.277   0.680   6.184
 8750WAT     H126492   5.313   0.594   6.149
 8750WAT     H226493   5.225   0.726   6.111
 8751WAT      O26494   6.307   5.862   7.821
 8751WAT     H126495   6.257   5.789   7.868
 8751WAT     H226496   6.405   5.845   7.828
 8752WAT      O26497   0.085   6.270   8.324
 8752WAT     H126498   0.165   6.271   8.384
 8752WAT     H226499   0.112   6.294   8.231
 8753WAT      O26500   1.492   9.793   0.540
 8753WAT     H126501   1.422   9.864   0.538
 8753WAT     H226502   1.576   9.830   0.579
 8754WAT      O26503   6.495   2.242   5.457
 8754WAT     H126504   6.563   2.168   5.463
 8754WAT     H226505   6.536   2.321   5.413
 8755WAT      O26506   7.643   7.356   3.680
 8755WAT     H126507   7.736   7.365   3.715
 8755WAT     H226508   7.603   7.447   3.669
 8756WAT      O26509   5.648   1.183   0.959
 8756WAT     H126510   5.740   1.200   0.924
 8756WAT     H226511   5.651   1.106   1.023
 8757WAT      O26512   7.532   7.681   8.331
 8757WAT     H126513   7.530   7.626   8.248
 8757WAT     H226514   7.546   7.777   8.307
 8758WAT      O26515   9.155   6.353   7.227
 8758WAT     H126516   9.145   6.433   7.286
 8758WAT     H226517   9.071   6.299   7.229
 8759WAT      O26518   6.469   2.158   9.442
 8759WAT     H126519   6.379   2.177   9.404
 8759WAT     H226520   6.469   2.065   9.481
 8760WAT      O26521   7.451   3.061   1.349
 8760WAT     H126522   7.439   3.078   1.251
 8760WAT     H226523   7.401   2.978   1.375
 8761WAT      O26524   4.340   6.432   4.472
 8761WAT     H126525   4.259   6.406   4.525
 8761WAT     H226526   4.384   6.511   4.515
 8762WAT      O26527   2.473   4.665   6.927
 8762WAT     H126528   2.398   4.600   6.915
 8762WAT     H226529   2.515   4.652   7.017
 8763WAT      O26530   3.536   3.658   6.988
 8763WAT     H126531   3.571   3.708   6.909
 8763WAT     H226532   3.565   3.562   6.982
 8764WAT      O26533   1.265   7.135   9.574
 8764WAT     H126534   1.343   7.193   9.596
 8764WAT     H226535   1.186   7.163   9.630
 8765WAT      O26536   3.762   2.282   5.618
 8765WAT     H126537   3.756   2.346   5.694
 8765WAT     H226538   3.682   2.293   5.558
 8766WAT      O26539   3.560   5.743   9.364
 8766WAT     H126540   3.602   5.652   9.365
 8766WAT     H226541   3.594   5.795   9.287
 8767WAT      O26542   3.370   5.155   7.597
 8767WAT     H126543   3.393   5.195   7.686
 8767WAT     H226544   3.292   5.205   7.558
 8768WAT      O26545   0.568   2.502   1.667
 8768WAT     H126546   0.596   2.519   1.573
 8768WAT     H226547   0.644   2.465   1.719
 8769WAT      O26548   9.187   1.305   1.482
 8769WAT     H126549   9.235   1.316   1.569
 8769WAT     H226550   9.114   1.238   1.493
 8770WAT      O26551   1.135   6.471   2.265
 8770WAT     H126552   1.074   6.495   2.340
 8770WAT     H226553   1.091   6.495   2.178
 8771WAT      O26554   3.031   3.984   4.496
 8771WAT     H126555   3.058   3.890   4.516
 8771WAT     H226556   3.032   4.037   4.581
 8772WAT      O26557   9.876   0.679   2.637
 8772WAT     H126558   9.967   0.717   2.654
 8772WAT     H226559   9.841   0.715   2.551
 8773WAT      O26560   6.997   0.444   2.612
 8773WAT     H126561   7.019   0.385   2.534
 8773WAT     H226562   7.058   0.524   2.611
 8774WAT      O26563   5.502   2.172   6.191
 8774WAT     H126564   5.407   2.200   6.177
 8774WAT     H226565   5.557   2.201   6.112
 8775WAT      O26566   3.033   4.502   6.521
 8775WAT     H126567   3.026   4.569   6.447
 8775WAT     H226568   2.942   4.465   6.540
 8776WAT      O26569   8.599   1.560   7.543
 8776WAT     H126570   8.500   1.552   7.531
 8776WAT     H226571   8.622   1.655   7.565
 8777WAT      O26572   3.132   2.716   6.331
 8777WAT     H126573   3.087   2.734   6.243
 8777WAT     H226574   3.070   2.665   6.390
 8778WAT      O26575   6.030   9.316   2.649
 8778WAT     H126576   5.993   9.226   2.673
 8778WAT     H226577   6.102   9.340   2.714
 8779WAT      O26578   9.819   2.408   0.122
 8779WAT     H126579   9.773   2.350   0.190
 8779WAT     H226580   9.904   2.364   0.093
 8780WAT      O26581   8.968   6.783   3.132
 8780WAT     H126582   9.048   6.821   3.086
 8780WAT     H226583   8.961   6.821   3.224
 8781WAT      O26584   1.822   5.613   1.444
 8781WAT     H126585   1.891   5.680   1.471
 8781WAT     H226586   1.798   5.626   1.348
 8782WAT      O26587   1.116   6.907   0.402
 8782WAT     H126588   1.152   6.827   0.354
 8782WAT     H226589   1.016   6.904   0.403
 8783WAT      O26590   6.711   0.516   2.633
 8783WAT     H126591   6.803   0.481   2.649
 8783WAT     H226592   6.661   0.453   2.574
 8784WAT      O26593   2.527   6.373   5.460
 8784WAT     H126594   2.613   6.416   5.435
 8784WAT     H226595   2.539   6.318   5.543
 8785WAT      O26596   2.745   2.102   7.308
 8785WAT     H126597   2.700   2.191   7.310
 8785WAT     H226598   2.779   2.080   7.400
 8786WAT      O26599   3.599   3.385   7.214
 8786WAT     H126600   3.576   3.315   7.282
 8786WAT     H226601   3.695   3.412   7.226
 8787WAT      O26602   9.809   5.870   0.426
 8787WAT     H126603   9.788   5.776   0.451
 8787WAT     H226604   9.873   5.909   0.493
 8788WAT      O26605   7.612   4.653   5.659
 8788WAT     H126606   7.571   4.708   5.587
 8788WAT     H226607   7.690   4.602   5.621
 8789WAT      O26608   4.476   2.678   6.317
 8789WAT     H126609   4.410   2.628   6.262
 8789WAT     H226610   4.564   2.683   6.269
 8790WAT      O26611   5.042   1.651   9.833
 8790WAT     H126612   4.999   1.614   9.915
 8790WAT     H226613   5.116   1.713   9.858
 8791WAT      O26614   7.372   7.459   2.942
 8791WAT     H126615   7.335   7.376   2.983
 8791WAT     H226616   7.415   7.515   3.013
 8792WAT      O26617   2.361   6.179   6.918
 8792WAT     H126618   2.386   6.273   6.940
 8792WAT     H226619   2.263   6.167   6.928
 8793WAT      O26620   4.449   2.724   2.649
 8793WAT     H126621   4.502   2.804   2.674
 8793WAT     H226622   4.370   2.752   2.593
 8794WAT      O26623   3.793   5.991   7.142
 8794WAT     H126624   3.866   5.943   7.191
 8794WAT     H226625   3.704   5.953   7.169
 8795WAT      O26626   3.474   5.025   0.215
 8795WAT     H126627   3.375   5.015   0.208
 8795WAT     H226628   3.519   4.943   0.180
 8796WAT      O26629   8.319   8.274   2.962
 8796WAT     H126630   8.237   8.328   2.945
 8796WAT     H226631   8.366   8.311   3.042
 8797WAT      O26632   1.850   9.792   5.794
 8797WAT     H126633   1.950   9.799   5.794
 8797WAT     H226634   1.812   9.860   5.857
 8798WAT      O26635   3.076   5.798   6.276
 8798WAT     H126636   3.036   5.857   6.207
 8798WAT     H226637   3.141   5.734   6.233
 8799WAT      O26638   3.124   1.080   9.496
 8799WAT     H126639   3.204   1.112   9.444
 8799WAT     H226640   3.132   1.111   9.591
 8800WAT      O26641   0.918   4.671   0.368
 8800WAT     H126642   0.845   4.606   0.389
 8800WAT     H226643   0.984   4.674   0.443
 8801WAT      O26644   3.676   2.820   1.349
 8801WAT     H126645   3.592   2.843   1.300
 8801WAT     H226646   3.751   2.813   1.283
 8802WAT      O26647   6.350   0.655   9.506
 8802WAT     H126648   6.310   0.580   9.453
 8802WAT     H226649   6.438   0.680   9.467
 8803WAT      O26650   4.978   3.499   2.239
 8803WAT     H126651   5.015   3.412   2.207
 8803WAT     H226652   4.903   3.481   2.303
 8804WAT      O26653   5.692   1.223   8.152
 8804WAT     H126654   5.790   1.204   8.160
 8804WAT     H226655   5.671   1.310   8.197
 8805WAT      O26656   9.757   9.186   3.708
 8805WAT     H126657   9.688   9.143   3.765
 8805WAT     H226658   9.807   9.255   3.761
 8806WAT      O26659   6.927   3.213   5.831
 8806WAT     H126660   6.956   3.140   5.893
 8806WAT     H226661   6.853   3.266   5.875
 8807WAT      O26662   8.551   5.562   5.370
 8807WAT     H126663   8.560   5.648   5.420
 8807WAT     H226664   8.639   5.540   5.327
 8808WAT      O26665   7.302   9.591   3.830
 8808WAT     H126666   7.246   9.518   3.791
 8808WAT     H226667   7.372   9.551   3.890
 8809WAT      O26668   1.066   6.122   7.082
 8809WAT     H126669   0.970   6.134   7.058
 8809WAT     H226670   1.106   6.050   7.025
 8810WAT      O26671   4.080   4.376   7.442
 8810WAT     H126672   4.088   4.465   7.487
 8810WAT     H226673   4.044   4.309   7.507
 8811WAT      O26674   4.606   3.818   1.512
 8811WAT     H126675   4.597   3.815   1.412
 8811WAT     H226676   4.691   3.867   1.536
 8812WAT      O26677   3.557   4.534   7.777
 8812WAT     H126678   3.547   4.551   7.679
 8812WAT     H226679   3.501   4.600   7.828
 8813WAT      O26680   1.883   3.596   5.533
 8813WAT     H126681   1.862   3.585   5.435
 8813WAT     H226682   1.881   3.692   5.557
 8814WAT      O26683   7.441   5.392   6.390
 8814WAT     H126684   7.367   5.335   6.427
 8814WAT     H226685   7.528   5.344   6.400
 8815WAT      O26686   4.861   0.176   0.805
 8815WAT     H126687   4.859   0.271   0.833
 8815WAT     H226688   4.830   0.169   0.710
 8816WAT      O26689   2.312   2.223   8.614
 8816WAT     H126690   2.338   2.255   8.523
 8816WAT     H226691   2.371   2.147   8.641
 8817WAT      O26692   8.557   5.271   2.479
 8817WAT     H126693   8.592   5.251   2.570
 8817WAT     H226694   8.541   5.370   2.470
 8818WAT      O26695   1.013   7.000   7.505
 8818WAT     H126696   0.970   7.014   7.416
 8818WAT     H226697   0.954   6.942   7.561
 8819WAT      O26698   9.599   6.600   2.055
 8819WAT     H126699   9.540   6.656   2.113
 8819WAT     H226700   9.599   6.505   2.088
 8820WAT      O26701   1.848   4.590   5.020
 8820WAT     H126702   1.771   4.551   5.071
 8820WAT     H226703   1.830   4.687   5.002
 8821WAT      O26704   5.654   9.031   5.502
 8821WAT     H126705   5.729   9.005   5.562
 8821WAT     H226706   5.579   8.965   5.513
 8822WAT      O26707   0.699   2.935   1.883
 8822WAT     H126708   0.706   2.842   1.920
 8822WAT     H226709   0.682   2.999   1.957
 8823WAT      O26710   6.904   8.362   5.209
 8823WAT     H126711   6.906   8.357   5.309
 8823WAT     H226712   6.996   8.379   5.175
 8824WAT      O26713   5.936   0.143   8.416
 8824WAT     H126714   5.943   0.052   8.458
 8824WAT     H226715   5.972   0.212   8.478
 8825WAT      O26716   5.929   7.192   1.317
 8825WAT     H126717   5.888   7.136   1.245
 8825WAT     H226718   5.978   7.269   1.275
 8826WAT      O26719   6.920   0.990   9.448
 8826WAT     H126720   6.994   1.057   9.449
 8826WAT     H226721   6.886   0.979   9.355
 8827WAT      O26722   4.225   9.352   7.718
 8827WAT     H126723   4.271   9.437   7.744
 8827WAT     H226724   4.126   9.367   7.715
 8828WAT      O26725   5.814   5.171   5.196
 8828WAT     H126726   5.847   5.261   5.224
 8828WAT     H226727   5.878   5.101   5.227
 8829WAT      O26728   7.374   3.048   8.634
 8829WAT     H126729   7.337   2.977   8.574
 8829WAT     H226730   7.324   3.134   8.619
 8830WAT      O26731   8.057   7.944   6.793
 8830WAT     H126732   8.110   8.020   6.830
 8830WAT     H226733   8.016   7.892   6.869
 8831WAT      O26734   3.469   0.357   2.673
 8831WAT     H126735   3.506   0.404   2.593
 8831WAT     H226736   3.408   0.283   2.644
 8832WAT      O26737   1.142   1.721   2.140
 8832WAT     H126738   1.228   1.695   2.096
 8832WAT     H226739   1.121   1.816   2.118
 8833WAT      O26740   1.625   0.580   7.008
 8833WAT     H126741   1.689   0.555   6.936
 8833WAT     H226742   1.533   0.549   6.983
 8834WAT      O26743   4.609   5.949   4.526
 8834WAT     H126744   4.539   6.015   4.499
 8834WAT     H226745   4.663   5.924   4.446
 8835WAT      O26746   1.063   5.729   6.096
 8835WAT     H126747   0.973   5.685   6.087
 8835WAT     H226748   1.077   5.791   6.019
 8836WAT      O26749   8.520   9.168   0.372
 8836WAT     H126750   8.591   9.121   0.424
 8836WAT     H226751   8.457   9.100   0.334
 8837WAT      O26752   7.790   8.364   7.673
 8837WAT     H126753   7.753   8.294   7.612
 8837WAT     H226754   7.794   8.452   7.625
 8838WAT      O26755   5.047   1.665   0.651
 8838WAT     H126756   4.948   1.671   0.665
 8838WAT     H226757   5.094   1.693   0.734
 8839WAT      O26758   2.981   5.297   0.831
 8839WAT     H126759   2.946   5.216   0.880
 8839WAT     H226760   3.003   5.271   0.737
 8840WAT      O26761   4.091   9.406   8.244
 8840WAT     H126762   4.003   9.399   8.292
 8840WAT     H226763   4.118   9.315   8.211
 8841WAT      O26764   9.265   7.105   7.293
 8841WAT     H126765   9.328   7.181   7.311
 8841WAT     H226766   9.316   7.028   7.253
 8842WAT      O26767   8.915   5.614   6.720
 8842WAT     H126768   8.826   5.578   6.693
 8842WAT     H226769   8.911   5.713   6.729
 8843WAT      O26770   4.271   9.802   5.776
 8843WAT     H126771   4.343   9.765   5.717
 8843WAT     H226772   4.190   9.745   5.771
 8844WAT      O26773   8.292   9.310   7.599
 8844WAT     H126774   8.391   9.318   7.607
 8844WAT     H226775   8.252   9.401   7.588
 8845WAT      O26776   9.307   5.751   4.450
 8845WAT     H126777   9.321   5.690   4.528
 8845WAT     H226778   9.230   5.812   4.469
 8846WAT      O26779   5.003   7.091   5.814
 8846WAT     H126780   4.914   7.049   5.799
 8846WAT     H226781   5.021   7.097   5.912
 8847WAT      O26782   8.537   9.001   3.322
 8847WAT     H126783   8.555   9.097   3.305
 8847WAT     H226784   8.456   8.992   3.381
 8848WAT      O26785   8.507   7.442   5.329
 8848WAT     H126786   8.513   7.393   5.416
 8848WAT     H226787   8.427   7.501   5.330
 8849WAT      O26788   3.304   2.294   6.348
 8849WAT     H126789   3.283   2.391   6.339
 8849WAT     H226790   3.341   2.260   6.262
 8850WAT      O26791   3.212   9.380   3.924
 8850WAT     H126792   3.157   9.444   3.870
 8850WAT     H226793   3.301   9.367   3.879
 8851WAT      O26794   5.564   0.449   2.151
 8851WAT     H126795   5.504   0.463   2.073
 8851WAT     H226796   5.512   0.412   2.228
 8852WAT      O26797   2.828   5.642   9.072
 8852WAT     H126798   2.788   5.680   8.989
 8852WAT     H226799   2.783   5.556   9.095
 8853WAT      O26800   6.919   3.343   4.689
 8853WAT     H126801   6.947   3.337   4.785
 8853WAT     H226802   6.981   3.406   4.640
 8854WAT      O26803   3.652   9.531   8.423
 8854WAT     H126804   3.686   9.506   8.332
 8854WAT     H226805   3.684   9.622   8.447
 8855WAT      O26806   5.829   5.566   4.919
 8855WAT     H126807   5.753   5.620   4.885
 8855WAT     H226808   5.810   5.535   5.012
 8856WAT      O26809   8.546   3.186   3.126
 8856WAT     H126810   8.637   3.172   3.166
 8856WAT     H226811   8.529   3.284   3.117
 8857WAT      O26812   3.509   0.544   0.397
 8857WAT     H126813   3.475   0.609   0.465
 8857WAT     H226814   3.522   0.454   0.439
 8858WAT      O26815   7.379   1.316   8.821
 8858WAT     H126816   7.288   1.298   8.858
 8858WAT     H226817   7.439   1.349   8.895
 8859WAT      O26818   5.292   7.903   8.840
 8859WAT     H126819   5.326   7.957   8.917
 8859WAT     H226820   5.199   7.931   8.818
 8860WAT      O26821   4.535   2.118   1.219
 8860WAT     H126822   4.590   2.169   1.153
 8860WAT     H226823   4.439   2.121   1.192
 8861WAT      O26824   4.254   9.603   6.602
 8861WAT     H126825   4.295   9.693   6.617
 8861WAT     H226826   4.315   9.547   6.547
 8862WAT      O26827   0.220   2.465   9.670
 8862WAT     H126828   0.124   2.481   9.648
 8862WAT     H226829   0.246   2.372   9.642
 8863WAT      O26830   4.968   6.549   0.768
 8863WAT     H126831   4.891   6.611   0.759
 8863WAT     H226832   4.996   6.517   0.678
 8864WAT      O26833   8.912   9.009   9.472
 8864WAT     H126834   8.967   9.085   9.506
 8864WAT     H226835   8.971   8.930   9.457
 8865WAT      O26836   8.242   2.857   4.642
 8865WAT     H126837   8.158   2.823   4.598
 8865WAT     H226838   8.302   2.779   4.663
 8866WAT      O26839   4.822   9.494   6.324
 8866WAT     H126840   4.798   9.459   6.233
 8866WAT     H226841   4.797   9.590   6.330
 8867WAT      O26842   3.755   6.958   0.748
 8867WAT     H126843   3.733   7.056   0.746
 8867WAT     H226844   3.743   6.923   0.840
 8868WAT      O26845   0.045   6.965   0.204
 8868WAT     H126846   0.052   6.890   0.138
 8868WAT     H226847  -0.003   6.932   0.285
 8869WAT      O26848   5.700   2.032   9.005
 8869WAT     H126849   5.716   2.044   9.103
 8869WAT     H226850   5.780   1.988   8.963
 8870WAT      O26851   2.792   1.350   0.659
 8870WAT     H126852   2.743   1.437   0.671
 8870WAT     H226853   2.814   1.312   0.749
 8871WAT      O26854   5.750   8.888   8.575
 8871WAT     H126855   5.744   8.793   8.544
 8871WAT     H226856   5.659   8.926   8.588
 8872WAT      O26857   3.280   6.960   6.835
 8872WAT     H126858   3.319   6.869   6.825
 8872WAT     H226859   3.329   7.010   6.906
 8873WAT      O26860   5.550   2.651   2.883
 8873WAT     H126861   5.620   2.590   2.845
 8873WAT     H226862   5.579   2.746   2.871
 8874WAT      O26863   2.204   7.971   2.150
 8874WAT     H126864   2.222   8.060   2.191
 8874WAT     H226865   2.168   7.909   2.220
 8875WAT      O26866   2.938   3.344   2.738
 8875WAT     H126867   2.985   3.269   2.692
 8875WAT     H226868   2.839   3.336   2.725
 8876WAT      O26869   5.165   3.410   5.567
 8876WAT     H126870   5.107   3.371   5.640
 8876WAT     H226871   5.178   3.507   5.583
 8877WAT      O26872   6.403   9.085   2.926
 8877WAT     H126873   6.389   9.121   2.833
 8877WAT     H226874   6.499   9.060   2.937
 8878WAT      O26875   8.759   6.533   6.161
 8878WAT     H126876   8.672   6.582   6.157
 8878WAT     H226877   8.757   6.468   6.237
 8879WAT      O26878   8.535   6.376   5.920
 8879WAT     H126879   8.607   6.395   5.852
 8879WAT     H226880   8.512   6.461   5.968
 8880WAT      O26881   2.501   6.521   0.343
 8880WAT     H126882   2.562   6.583   0.394
 8880WAT     H226883   2.427   6.574   0.302
 8881WAT      O26884   1.095   0.228   3.917
 8881WAT     H126885   1.178   0.182   3.885
 8881WAT     H226886   1.041   0.256   3.838
 8882WAT      O26887   7.882   9.356   3.329
 8882WAT     H126888   7.967   9.313   3.299
 8882WAT     H226889   7.878   9.449   3.294
 8883WAT      O26890   6.311   4.428   8.940
 8883WAT     H126891   6.238   4.388   8.996
 8883WAT     H226892   6.280   4.437   8.846
 8884WAT      O26893   5.132   7.515   3.657
 8884WAT     H126894   5.095   7.607   3.671
 8884WAT     H226895   5.057   7.451   3.641
 8885WAT      O26896   3.108   3.176   5.740
 8885WAT     H126897   3.141   3.167   5.833
 8885WAT     H226898   3.115   3.272   5.711
 8886WAT      O26899   4.338   7.071   5.543
 8886WAT     H126900   4.276   7.036   5.614
 8886WAT     H226901   4.419   7.109   5.586
 8887WAT      O26902   0.530   4.881   9.221
 8887WAT     H126903   0.535   4.975   9.186
 8887WAT     H226904   0.527   4.883   9.321
 8888WAT      O26905   0.399   4.761   1.527
 8888WAT     H126906   0.358   4.826   1.463
 8888WAT     H226907   0.490   4.793   1.554
 8889WAT      O26908   8.321   1.876   3.341
 8889WAT     H126909   8.331   1.891   3.242
 8889WAT     H226910   8.394   1.924   3.389
 8890WAT      O26911   0.820   8.290   6.266
 8890WAT     H126912   0.829   8.382   6.228
 8890WAT     H226913   0.889   8.231   6.226
 8891WAT      O26914   7.976   3.434   8.949
 8891WAT     H126915   8.075   3.424   8.944
 8891WAT     H226916   7.934   3.348   8.977
 8892WAT      O26917   0.655   5.647   0.733
 8892WAT     H126918   0.646   5.745   0.718
 8892WAT     H226919   0.676   5.629   0.829
 8893WAT      O26920   3.059   3.904   7.152
 8893WAT     H126921   3.042   3.808   7.171
 8893WAT     H226922   3.157   3.919   7.142
 8894WAT      O26923   1.586   6.431   3.645
 8894WAT     H126924   1.651   6.377   3.592
 8894WAT     H226925   1.625   6.521   3.663
 8895WAT      O26926   8.883   4.755   7.218
 8895WAT     H126927   8.831   4.670   7.218
 8895WAT     H226928   8.862   4.807   7.301
 8896WAT      O26929   7.597   6.574   5.729
 8896WAT     H126930   7.570   6.488   5.771
 8896WAT     H226931   7.546   6.587   5.644
 8897WAT      O26932   5.193   1.244   6.007
 8897WAT     H126933   5.278   1.216   6.050
 8897WAT     H226934   5.202   1.240   5.908
 8898WAT      O26935   1.701   4.911   2.225
 8898WAT     H126936   1.734   5.003   2.205
 8898WAT     H226937   1.604   4.915   2.252
 8899WAT      O26938   0.748   6.898   0.890
 8899WAT     H126939   0.676   6.967   0.900
 8899WAT     H226940   0.739   6.853   0.801
 8900WAT      O26941   7.910   3.978   5.869
 8900WAT     H126942   7.880   4.029   5.949
 8900WAT     H226943   7.956   4.039   5.804
 8901WAT      O26944   3.569   2.574   1.402
 8901WAT     H126945   3.632   2.650   1.417
 8901WAT     H226946   3.557   2.523   1.487
 8902WAT      O26947   1.387   1.039   6.371
 8902WAT     H126948   1.391   1.138   6.378
 8902WAT     H226949   1.436   1.010   6.288
 8903WAT      O26950   1.065   2.504   2.526
 8903WAT     H126951   1.111   2.563   2.591
 8903WAT     H226952   0.991   2.455   2.572
 8904WAT      O26953   7.643   5.003   6.518
 8904WAT     H126954   7.559   4.963   6.483
 8904WAT     H226955   7.633   5.024   6.615
 8905WAT      O26956   5.121   3.505   3.951
 8905WAT     H126957   5.070   3.470   4.029
 8905WAT     H226958   5.152   3.598   3.970
 8906WAT      O26959   3.986   8.602   5.576
 8906WAT     H126960   3.936   8.686   5.555
 8906WAT     H226961   3.930   8.543   5.634
 8907WAT      O26962   5.411   9.381   1.705
 8907WAT     H126963   5.447   9.460   1.755
 8907WAT     H226964   5.487   9.329   1.666
 8908WAT      O26965   8.583   6.187   3.746
 8908WAT     H126966   8.676   6.212   3.719
 8908WAT     H226967   8.540   6.264   3.794
 8909WAT      O26968   7.627   6.536   2.746
 8909WAT     H126969   7.558   6.464   2.744
 8909WAT     H226970   7.677   6.532   2.832
 8910WAT      O26971   8.760   8.181   7.963
 8910WAT     H126972   8.667   8.167   7.928
 8910WAT     H226973   8.770   8.136   8.051
 8911WAT      O26974   9.338   0.202   1.335
 8911WAT     H126975   9.324   0.106   1.360
 8911WAT     H226976   9.311   0.261   1.411
 8912WAT      O26977   2.634   4.363   0.612
 8912WAT     H126978   2.637   4.445   0.554
 8912WAT     H226979   2.727   4.327   0.624
 8913WAT      O26980   6.851   4.540   9.507
 8913WAT     H126981   6.780   4.560   9.575
 8913WAT     H226982   6.810   4.537   9.416
 8914WAT      O26983   2.287   3.652   2.839
 8914WAT     H126984   2.298   3.575   2.776
 8914WAT     H226985   2.252   3.619   2.927
 8915WAT      O26986   3.014   0.651   1.708
 8915WAT     H126987   3.035   0.578   1.643
 8915WAT     H226988   3.052   0.629   1.798
 8916WAT      O26989   2.135   8.979   2.754
 8916WAT     H126990   2.087   9.014   2.834
 8916WAT     H226991   2.101   8.887   2.732
 8917WAT      O26992   9.715   0.922   3.682
 8917WAT     H126993   9.693   0.976   3.600
 8917WAT     H226994   9.808   0.941   3.711
 8918WAT      O26995   7.934   0.120   1.832
 8918WAT     H126996   7.909   0.170   1.749
 8918WAT     H226997   8.032   0.105   1.834
 8919WAT      O26998   6.466   7.687   8.773
 8919WAT     H126999   6.368   7.686   8.793
 8919WAT     H227000   6.496   7.781   8.759
 8920WAT      O27001   9.674   5.850   5.487
 8920WAT     H127002   9.649   5.769   5.540
 8920WAT     H227003   9.695   5.824   5.393
 8921WAT      O27004   5.264   7.168   4.628
 8921WAT     H127005   5.232   7.126   4.714
 8921WAT     H227006   5.363   7.179   4.631
 8922WAT      O27007   1.498   5.551   1.164
 8922WAT     H127008   1.577   5.489   1.170
 8922WAT     H227009   1.518   5.634   1.217
 8923WAT      O27010   1.230   9.023   2.785
 8923WAT     H127011   1.220   9.024   2.884
 8923WAT     H227012   1.317   8.979   2.760
 8924WAT      O27013   3.296   0.162   2.592
 8924WAT     H127014   3.312   0.121   2.503
 8924WAT     H227015   3.211   0.128   2.631
 8925WAT      O27016   1.529   2.680   2.201
 8925WAT     H127017   1.439   2.713   2.175
 8925WAT     H227018   1.553   2.600   2.146
 8926WAT      O27019   6.436   1.784   5.469
 8926WAT     H127020   6.398   1.699   5.432
 8926WAT     H227021   6.372   1.825   5.533
 8927WAT      O27022   3.630   4.695   4.075
 8927WAT     H127023   3.641   4.626   4.146
 8927WAT     H227024   3.532   4.715   4.062
 8928WAT      O27025   1.865   6.118   9.864
 8928WAT     H127026   1.778   6.161   9.888
 8928WAT     H227027   1.940   6.165   9.912
 8929WAT      O27028   0.153   4.125   9.716
 8929WAT     H127029   0.173   4.062   9.792
 8929WAT     H227030   0.164   4.219   9.747
 8930WAT      O27031   6.279   3.109   4.926
 8930WAT     H127032   6.262   3.204   4.898
 8930WAT     H227033   6.193   3.063   4.943
 8931WAT      O27034   2.360   9.525   1.326
 8931WAT     H127035   2.377   9.522   1.424
 8931WAT     H227036   2.297   9.599   1.305
 8932WAT      O27037   4.263   7.033   3.743
 8932WAT     H127038   4.348   6.983   3.756
 8932WAT     H227039   4.202   6.981   3.683
 8933WAT      O27040   6.716   7.477   5.839
 8933WAT     H127041   6.748   7.567   5.866
 8933WAT     H227042   6.709   7.418   5.920
 8934WAT      O27043   4.530   2.939   2.187
 8934WAT     H127044   4.524   2.894   2.277
 8934WAT     H227045   4.566   2.874   2.120
 8935WAT      O27046   2.372   2.195   7.481
 8935WAT     H127047   2.359   2.258   7.404
 8935WAT     H227048   2.329   2.107   7.460
 8936WAT      O27049   2.292   8.360   4.078
 8936WAT     H127050   2.237   8.356   3.995
 8936WAT     H227051   2.354   8.282   4.081
 8937WAT      O27052   8.237   5.460   2.744
 8937WAT     H127053   8.282   5.512   2.817
 8937WAT     H227054   8.163   5.404   2.783
 8938WAT      O27055   3.124   6.443   7.977
 8938WAT     H127056   3.120   6.483   8.068
 8938WAT     H227057   3.150   6.514   7.911
 8939WAT      O27058   8.332   3.463   8.193
 8939WAT     H127059   8.331   3.367   8.222
 8939WAT     H227060   8.249   3.508   8.224
 8940WAT      O27061   0.230   4.198   6.215
 8940WAT     H127062   0.324   4.182   6.244
 8940WAT     H227063   0.196   4.282   6.257
 8941WAT      O27064   4.283   3.718   3.875
 8941WAT     H127065   4.346   3.762   3.940
 8941WAT     H227066   4.311   3.624   3.860
 8942WAT      O27067   8.585   9.262   2.831
 8942WAT     H127068   8.577   9.347   2.779
 8942WAT     H227069   8.648   9.275   2.907
 8943WAT      O27070   5.897   9.617   4.450
 8943WAT     H127071   5.922   9.687   4.516
 8943WAT     H227072   5.798   9.604   4.450
 8944WAT      O27073   9.351   1.420   8.572
 8944WAT     H127074   9.327   1.451   8.480
 8944WAT     H227075   9.393   1.495   8.624
 8945WAT      O27076   2.546   8.088   6.138
 8945WAT     H127077   2.560   8.021   6.210
 8945WAT     H227078   2.535   8.179   6.179
 8946WAT      O27079   3.448   1.571   6.601
 8946WAT     H127080   3.495   1.546   6.686
 8946WAT     H227081   3.504   1.637   6.551
 8947WAT      O27082   8.559   4.646   7.395
 8947WAT     H127083   8.606   4.618   7.479
 8947WAT     H227084   8.612   4.616   7.316
 8948WAT      O27085   6.512   4.297   7.926
 8948WAT     H127086   6.601   4.329   7.893
 8948WAT     H227087   6.464   4.372   7.970
 8949WAT      O27088   5.095   7.673   2.185
 8949WAT     H127089   5.189   7.706   2.178
 8949WAT     H227090   5.064   7.638   2.097
 8950WAT      O27091   5.044   5.690   5.822
 8950WAT     H127092   4.972   5.737   5.874
 8950WAT     H227093   5.124   5.678   5.881
 8951WAT      O27094   4.132   0.963   9.355
 8951WAT     H127095   4.138   0.999   9.261
 8951WAT     H227096   4.218   0.981   9.403
 8952WAT      O27097   3.000   8.283   6.742
 8952WAT     H127098   3.043   8.374   6.741
 8952WAT     H227099   2.922   8.283   6.679
 8953WAT      O27100   7.385   4.092   7.639
 8953WAT     H127101   7.359   4.092   7.542
 8953WAT     H227102   7.485   4.089   7.646
 8954WAT      O27103   1.278   4.903   6.385
 8954WAT     H127104   1.192   4.892   6.336
 8954WAT     H227105   1.266   4.972   6.457
 8955WAT      O27106   8.673   6.286   8.685
 8955WAT     H127107   8.765   6.251   8.700
 8955WAT     H227108   8.672   6.345   8.605
 8956WAT      O27109   5.323   5.297   0.210
 8956WAT     H127110   5.416   5.325   0.187
 8956WAT     H227111   5.262   5.319   0.134
 8957WAT      O27112   1.198   7.963   5.228
 8957WAT     H127113   1.212   7.887   5.164
 8957WAT     H227114   1.102   7.968   5.254
 8958WAT      O27115   4.495   9.127   1.168
 8958WAT     H127116   4.586   9.119   1.210
 8958WAT     H227117   4.492   9.210   1.111
 8959WAT      O27118   2.750   9.135   3.122
 8959WAT     H127119   2.808   9.094   3.192
 8959WAT     H227120   2.669   9.174   3.165
 8960WAT      O27121   7.894   7.489   7.818
 8960WAT     H127122   7.923   7.412   7.875
 8960WAT     H227123   7.975   7.531   7.776
 8961WAT      O27124   4.281   6.415   2.373
 8961WAT     H127125   4.190   6.376   2.392
 8961WAT     H227126   4.345   6.342   2.351
 8962WAT      O27127   3.674   5.447   6.967
 8962WAT     H127128   3.608   5.416   6.898
 8962WAT     H227129   3.627   5.456   7.055
 8963WAT      O27130   2.722   0.921   6.195
 8963WAT     H127131   2.788   0.863   6.147
 8963WAT     H227132   2.728   1.014   6.161
 8964WAT      O27133   0.684   6.597   7.724
 8964WAT     H127134   0.728   6.686   7.730
 8964WAT     H227135   0.678   6.568   7.629
 8965WAT      O27136   7.175   3.762   9.427
 8965WAT     H127137   7.262   3.803   9.402
 8965WAT     H227138   7.109   3.775   9.353
 8966WAT      O27139   7.666   4.224   3.858
 8966WAT     H127140   7.705   4.155   3.920
 8966WAT     H227141   7.703   4.314   3.880
 8967WAT      O27142   2.343   1.060   9.158
 8967WAT     H127143   2.264   1.085   9.103
 8967WAT     H227144   2.377   1.140   9.207
 8968WAT      O27145   8.898   5.327   5.824
 8968WAT     H127146   8.951   5.291   5.747
 8968WAT     H227147   8.859   5.251   5.876
 8969WAT      O27148   8.224   0.315   0.069
 8969WAT     H127149   8.271   0.403   0.071
 8969WAT     H227150   8.273   0.249   0.126
 8970WAT      O27151   4.869   8.583   2.486
 8970WAT     H127152   4.956   8.629   2.466
 8970WAT     H227153   4.800   8.652   2.510
 8971WAT      O27154   7.913   1.257   2.798
 8971WAT     H127155   7.886   1.195   2.871
 8971WAT     H227156   8.004   1.232   2.764
 8972WAT      O27157   3.679   6.925   9.252
 8972WAT     H127158   3.621   6.908   9.172
 8972WAT     H227159   3.728   7.011   9.240
 8973WAT      O27160   2.540   9.437   0.417
 8973WAT     H127161   2.543   9.459   0.320
 8973WAT     H227162   2.609   9.368   0.438
 8974WAT      O27163   2.938   5.304   2.931
 8974WAT     H127164   3.016   5.293   2.868
 8974WAT     H227165   2.972   5.314   3.024
 8975WAT      O27166   1.273   1.360   0.345
 8975WAT     H127167   1.230   1.450   0.355
 8975WAT     H227168   1.358   1.370   0.293
 8976WAT      O27169   1.286   9.188   7.131
 8976WAT     H127170   1.238   9.234   7.056
 8976WAT     H227171   1.384   9.183   7.111
 8977WAT      O27172   9.333   0.696   9.347
 8977WAT     H127173   9.253   0.718   9.402
 8977WAT     H227174   9.410   0.674   9.407
 8978WAT      O27175   6.254   9.489   0.451
 8978WAT     H127176   6.160   9.502   0.420
 8978WAT     H227177   6.305   9.575   0.440
 8979WAT      O27178   0.581   5.754   8.272
 8979WAT     H127179   0.485   5.779   8.266
 8979WAT     H227180   0.604   5.694   8.195
 8980WAT      O27181   5.134   2.094   5.991
 8980WAT     H127182   5.110   2.152   6.069
 8980WAT     H227183   5.214   2.131   5.945
 8981WAT      O27184   2.959   8.184   6.250
 8981WAT     H127185   2.891   8.237   6.199
 8981WAT     H227186   2.913   8.126   6.317
 8982WAT      O27187   4.595   6.074   2.138
 8982WAT     H127188   4.582   5.984   2.179
 8982WAT     H227189   4.543   6.079   2.053
 8983WAT      O27190   4.709   8.213   9.370
 8983WAT     H127191   4.806   8.190   9.371
 8983WAT     H227192   4.698   8.309   9.343
 8984WAT      O27193   4.580   8.455   2.316
 8984WAT     H127194   4.646   8.453   2.391
 8984WAT     H227195   4.528   8.370   2.313
 8985WAT      O27196   9.661   9.769   6.307
 8985WAT     H127197   9.700   9.805   6.222
 8985WAT     H227198   9.564   9.749   6.292
 8986WAT      O27199   0.476   2.173   9.871
 8986WAT     H127200   0.459   2.240   9.943
 8986WAT     H227201   0.533   2.215   9.800
 8987WAT      O27202   7.924   0.613   2.633
 8987WAT     H127203   8.005   0.592   2.688
 8987WAT     H227204   7.901   0.709   2.643
 8988WAT      O27205   1.059   0.455   3.152
 8988WAT     H127206   1.150   0.454   3.192
 8988WAT     H227207   1.029   0.361   3.133
 8989WAT      O27208   5.039   4.130   5.680
 8989WAT     H127209   4.953   4.079   5.681
 8989WAT     H227210   5.053   4.173   5.770
 8990WAT      O27211   2.148   6.791   7.544
 8990WAT     H127212   2.085   6.862   7.574
 8990WAT     H227213   2.098   6.716   7.500
 8991WAT      O27214   5.314   2.024   8.767
 8991WAT     H127215   5.249   2.058   8.699
 8991WAT     H227216   5.390   2.089   8.776
 8992WAT      O27217   5.070   4.386   7.227
 8992WAT     H127218   5.008   4.330   7.281
 8992WAT     H227219   5.133   4.327   7.176
 8993WAT      O27220   6.323   7.248   6.375
 8993WAT     H127221   6.371   7.328   6.411
 8993WAT     H227222   6.315   7.180   6.447
 8994WAT      O27223   7.960   0.176   4.033
 8994WAT     H127224   7.921   0.263   4.062
 8994WAT     H227225   8.059   0.179   4.041
 8995WAT      O27226   9.249   4.601   6.656
 8995WAT     H127227   9.291   4.665   6.591
 8995WAT     H227228   9.309   4.522   6.668
 8996WAT      O27229   0.464   8.193   1.330
 8996WAT     H127230   0.405   8.112   1.330
 8996WAT     H227231   0.537   8.181   1.263
 8997WAT      O27232   6.595   0.068   7.734
 8997WAT     H127233   6.549   0.007   7.670
 8997WAT     H227234   6.533   0.142   7.760
 8998WAT      O27235   7.342   0.498   4.804
 8998WAT     H127236   7.271   0.566   4.823
 8998WAT     H227237   7.303   0.421   4.755
 8999WAT      O27238   9.867   8.504   6.984
 8999WAT     H127239   9.952   8.450   6.984
 8999WAT     H227240   9.866   8.564   6.904
 9000WAT      O27241   7.904   1.558   1.397
 9000WAT     H127242   7.844   1.480   1.411
 9000WAT     H227243   7.976   1.534   1.332
 9001WAT      O27244   2.082   4.491   8.513
 9001WAT     H127245   2.103   4.588   8.524
 9001WAT     H227246   2.074   4.449   8.603
 9002WAT      O27247   8.869   7.151   5.704
 9002WAT     H127248   8.818   7.147   5.617
 9002WAT     H227249   8.812   7.115   5.777
 9003WAT      O27250   0.054   5.896   7.634
 9003WAT     H127251  -0.001   5.898   7.717
 9003WAT     H227252  -0.003   5.924   7.556
 9004WAT      O27253   2.469   3.194   4.669
 9004WAT     H127254   2.447   3.283   4.629
 9004WAT     H227255   2.443   3.122   4.606
 9005WAT      O27256   1.970   7.418   9.623
 9005WAT     H127257   2.033   7.495   9.615
 9005WAT     H227258   1.876   7.450   9.614
 9006WAT      O27259   7.166   6.556   3.940
 9006WAT     H127260   7.235   6.503   3.890
 9006WAT     H227261   7.104   6.494   3.987
 9007WAT      O27262   3.529   5.728   7.051
 9007WAT     H127263   3.608   5.715   7.112
 9007WAT     H227264   3.448   5.748   7.106
 9008WAT      O27265   4.510   3.978   3.757
 9008WAT     H127266   4.426   3.972   3.703
 9008WAT     H227267   4.569   4.049   3.719
 9009WAT      O27268   6.370   0.144   4.486
 9009WAT     H127269   6.330   0.052   4.483
 9009WAT     H227270   6.348   0.186   4.574
 9010WAT      O27271   0.382   6.035   8.127
 9010WAT     H127272   0.299   5.978   8.130
 9010WAT     H227273   0.428   6.030   8.216
 9011WAT      O27274   5.884   6.024   0.469
 9011WAT     H127275   5.852   6.115   0.495
 9011WAT     H227276   5.969   6.032   0.418
 9012WAT      O27277   8.245   3.328   5.317
 9012WAT     H127278   8.217   3.407   5.371
 9012WAT     H227279   8.211   3.337   5.223
 9013WAT      O27280   0.091   1.358   3.764
 9013WAT     H127281   0.072   1.282   3.702
 9013WAT     H227282   0.037   1.348   3.847
 9014WAT      O27283   6.360   8.059   0.050
 9014WAT     H127284   6.380   8.100  -0.039
 9014WAT     H227285   6.360   7.960   0.042
 9015WAT      O27286   5.354   1.113   7.950
 9015WAT     H127287   5.261   1.077   7.959
 9015WAT     H227288   5.417   1.054   8.000
 9016WAT      O27289   2.711   9.711   5.546
 9016WAT     H127290   2.614   9.736   5.535
 9016WAT     H227291   2.766   9.793   5.558
 9017WAT      O27292   9.077   5.101   7.775
 9017WAT     H127293   9.139   5.178   7.761
 9017WAT     H227294   9.124   5.015   7.754
 9018WAT      O27295   1.575   4.649   6.455
 9018WAT     H127296   1.639   4.577   6.480
 9018WAT     H227297   1.622   4.737   6.457
 9019WAT      O27298   3.606   4.868   8.446
 9019WAT     H127299   3.516   4.906   8.424
 9019WAT     H227300   3.664   4.939   8.486
 9020WAT      O27301   0.028   1.755   7.491
 9020WAT     H127302   0.128   1.761   7.490
 9020WAT     H227303   0.001   1.658   7.488
 9021WAT      O27304   0.121   2.521   5.290
 9021WAT     H127305   0.092   2.444   5.346
 9021WAT     H227306   0.050   2.542   5.222
 9022WAT      O27307   9.313   4.218   4.483
 9022WAT     H127308   9.229   4.166   4.502
 9022WAT     H227309   9.360   4.176   4.405
 9023WAT      O27310   2.152   7.544   4.180
 9023WAT     H127311   2.202   7.515   4.098
 9023WAT     H227312   2.090   7.619   4.156
 9024WAT      O27313   8.988   3.206   1.740
 9024WAT     H127314   8.891   3.192   1.717
 9024WAT     H227315   9.023   3.126   1.788
 9025WAT      O27316   6.277   0.453   1.218
 9025WAT     H127317   6.351   0.407   1.267
 9025WAT     H227318   6.303   0.547   1.199
 9026WAT      O27319   9.274   3.128   4.439
 9026WAT     H127320   9.337   3.054   4.417
 9026WAT     H227321   9.320   3.196   4.496
 9027WAT      O27322   7.819   4.946   8.557
 9027WAT     H127323   7.908   4.950   8.511
 9027WAT     H227324   7.812   5.021   8.622
 9028WAT      O27325   6.081   3.368   9.660
 9028WAT     H127326   6.020   3.425   9.716
 9028WAT     H227327   6.031   3.289   9.626
 9029WAT      O27328   6.788   5.423   8.166
 9029WAT     H127329   6.737   5.481   8.103
 9029WAT     H227330   6.789   5.329   8.132
 9030WAT      O27331   6.634   0.466   0.254
 9030WAT     H127332   6.627   0.544   0.192
 9030WAT     H227333   6.628   0.498   0.349
 9031WAT      O27334   7.778   3.007   7.213
 9031WAT     H127335   7.756   2.910   7.224
 9031WAT     H227336   7.739   3.041   7.127
 9032WAT      O27337   5.543   7.431   2.255
 9032WAT     H127338   5.523   7.405   2.350
 9032WAT     H227339   5.630   7.390   2.227
 9033WAT      O27340   5.564   6.101   5.531
 9033WAT     H127341   5.501   6.178   5.527
 9033WAT     H227342   5.614   6.103   5.618
 9034WAT      O27343   3.130   2.203   3.358
 9034WAT     H127344   3.051   2.198   3.296
 9034WAT     H227345   3.132   2.292   3.403
 9035WAT      O27346   9.175   4.491   1.257
 9035WAT     H127347   9.171   4.541   1.171
 9035WAT     H227348   9.124   4.541   1.328
 9036WAT      O27349   5.925   1.968   7.936
 9036WAT     H127350   5.937   1.882   7.984
 9036WAT     H227351   5.997   1.978   7.867
 9037WAT      O27352   3.123   8.639   1.709
 9037WAT     H127353   3.143   8.722   1.761
 9037WAT     H227354   3.190   8.568   1.732
 9038WAT      O27355   0.378   4.191   3.034
 9038WAT     H127356   0.353   4.112   3.090
 9038WAT     H227357   0.311   4.205   2.962
 9039WAT      O27358   8.595   4.579   0.920
 9039WAT     H127359   8.637   4.536   0.840
 9039WAT     H227360   8.499   4.553   0.925
 9040WAT      O27361   5.752   0.955   8.976
 9040WAT     H127362   5.832   0.915   8.931
 9040WAT     H227363   5.771   0.968   9.073
 9041WAT      O27364   6.388   0.813   2.544
 9041WAT     H127365   6.291   0.801   2.523
 9041WAT     H227366   6.417   0.746   2.612
 9042WAT      O27367   7.905   2.185   5.984
 9042WAT     H127368   7.834   2.169   6.053
 9042WAT     H227369   7.995   2.182   6.028
 9043WAT      O27370   3.765   7.451   3.322
 9043WAT     H127371   3.831   7.378   3.337
 9043WAT     H227372   3.716   7.434   3.237
 9044WAT      O27373   6.623   4.461   7.434
 9044WAT     H127374   6.685   4.437   7.360
 9044WAT     H227375   6.532   4.427   7.413
 9045WAT      O27376   0.322   0.897   7.315
 9045WAT     H127377   0.421   0.908   7.331
 9045WAT     H227378   0.307   0.863   7.223
 9046WAT      O27379   5.841   2.657   9.656
 9046WAT     H127380   5.854   2.609   9.569
 9046WAT     H227381   5.744   2.671   9.672
 9047WAT      O27382   0.324   4.588   4.101
 9047WAT     H127383   0.286   4.541   4.021
 9047WAT     H227384   0.367   4.673   4.072
 9048WAT      O27385   8.011   6.639   4.274
 9048WAT     H127386   8.028   6.714   4.338
 9048WAT     H227387   8.097   6.595   4.249
 9049WAT      O27388   1.794   1.082   6.248
 9049WAT     H127389   1.837   1.069   6.159
 9049WAT     H227390   1.842   1.153   6.299
 9050WAT      O27391   4.908   2.153   0.879
 9050WAT     H127392   4.905   2.073   0.819
 9050WAT     H227393   4.936   2.233   0.827
 9051WAT      O27394   0.147   8.356   2.831
 9051WAT     H127395   0.060   8.363   2.879
 9051WAT     H227396   0.182   8.447   2.812
 9052WAT      O27397   3.749   1.376   3.450
 9052WAT     H127398   3.842   1.413   3.443
 9052WAT     H227399   3.718   1.383   3.545
 9053WAT      O27400   4.087   7.276   5.628
 9053WAT     H127401   4.095   7.177   5.636
 9053WAT     H227402   4.139   7.320   5.700
 9054WAT      O27403   9.127   8.401   2.075
 9054WAT     H127404   9.113   8.484   2.130
 9054WAT     H227405   9.189   8.339   2.124
 9055WAT      O27406   6.567   3.774   6.119
 9055WAT     H127407   6.586   3.720   6.037
 9055WAT     H227408   6.630   3.852   6.123
 9056WAT      O27409   0.641   9.197   8.733
 9056WAT     H127410   0.590   9.112   8.720
 9056WAT     H227411   0.602   9.269   8.676
 9057WAT      O27412   6.706   1.259   6.098
 9057WAT     H127413   6.804   1.245   6.091
 9057WAT     H227414   6.686   1.354   6.122
 9058WAT      O27415   3.484   1.640   7.219
 9058WAT     H127416   3.571   1.599   7.193
 9058WAT     H227417   3.497   1.737   7.240
 9059WAT      O27418   1.276   5.452   5.917
 9059WAT     H127419   1.224   5.388   5.861
 9059WAT     H227420   1.365   5.470   5.874
 9060WAT      O27421   5.832   6.913   7.168
 9060WAT     H127422   5.823   6.963   7.254
 9060WAT     H227423   5.921   6.933   7.127
 9061WAT      O27424   6.205   7.995   3.196
 9061WAT     H127425   6.189   7.971   3.100
 9061WAT     H227426   6.282   8.058   3.202
 9062WAT      O27427   2.589   6.447   5.059
 9062WAT     H127428   2.656   6.381   5.024
 9062WAT     H227429   2.503   6.400   5.077
 9063WAT      O27430   3.580   6.832   0.351
 9063WAT     H127431   3.496   6.875   0.319
 9063WAT     H227432   3.572   6.811   0.448
 9064WAT      O27433   0.307   9.388   6.938
 9064WAT     H127434   0.309   9.392   7.038
 9064WAT     H227435   0.400   9.372   6.904
 9065WAT      O27436   7.526   7.819   7.150
 9065WAT     H127437   7.515   7.793   7.246
 9065WAT     H227438   7.444   7.866   7.118
 9066WAT      O27439   0.964   5.772   9.058
 9066WAT     H127440   0.885   5.744   9.112
 9066WAT     H227441   0.938   5.781   8.962
 9067WAT      O27442   7.372   2.136   1.625
 9067WAT     H127443   7.363   2.214   1.563
 9067WAT     H227444   7.452   2.150   1.684
 9068WAT      O27445   1.488   0.918   2.475
 9068WAT     H127446   1.429   0.997   2.456
 9068WAT     H227447   1.537   0.933   2.561
 9069WAT      O27448   7.342   7.861   3.150
 9069WAT     H127449   7.313   7.794   3.082
 9069WAT     H227450   7.440   7.879   3.139
 9070WAT      O27451   1.329   2.809   8.870
 9070WAT     H127452   1.335   2.909   8.875
 9070WAT     H227453   1.338   2.780   8.775
 9071WAT      O27454   6.906   5.420   9.844
 9071WAT     H127455   6.913   5.519   9.850
 9071WAT     H227456   6.997   5.380   9.849
 9072WAT      O27457   7.340   2.365   1.436
 9072WAT     H127458   7.432   2.402   1.445
 9072WAT     H227459   7.273   2.432   1.468
 9073WAT      O27460   5.359   0.522   7.760
 9073WAT     H127461   5.332   0.596   7.821
 9073WAT     H227462   5.310   0.530   7.673
 9074WAT      O27463   9.664   5.733   5.145
 9074WAT     H127464   9.572   5.760   5.170
 9074WAT     H227465   9.695   5.657   5.203
 9075WAT      O27466   1.222   3.159   0.590
 9075WAT     H127467   1.151   3.127   0.652
 9075WAT     H227468   1.181   3.210   0.515
 9076WAT      O27469   3.134   8.045   6.546
 9076WAT     H127470   3.136   8.122   6.481
 9076WAT     H227471   3.045   8.043   6.592
 9077WAT      O27472   9.329   3.136   8.419
 9077WAT     H127473   9.373   3.150   8.330
 9077WAT     H227474   9.351   3.045   8.453
 9078WAT      O27475   4.694   3.844   6.800
 9078WAT     H127476   4.747   3.928   6.813
 9078WAT     H227477   4.701   3.814   6.705
 9079WAT      O27478   0.634   4.285   1.065
 9079WAT     H127479   0.585   4.221   1.005
 9079WAT     H227480   0.582   4.298   1.149
 9080WAT      O27481   9.175   5.551   6.165
 9080WAT     H127482   9.260   5.602   6.156
 9080WAT     H227483   9.143   5.556   6.260
 9081WAT      O27484   8.441   7.611   0.998
 9081WAT     H127485   8.431   7.653   1.088
 9081WAT     H227486   8.537   7.597   0.978
 9082WAT      O27487   1.403   4.277   8.447
 9082WAT     H127488   1.343   4.341   8.496
 9082WAT     H227489   1.440   4.322   8.366
 9083WAT      O27490   6.846   7.059   1.313
 9083WAT     H127491   6.756   7.082   1.275
 9083WAT     H227492   6.894   7.144   1.336
 9084WAT      O27493   4.777   4.247   8.639
 9084WAT     H127494   4.757   4.338   8.604
 9084WAT     H227495   4.858   4.251   8.697
 9085WAT      O27496   3.711   9.507   5.844
 9085WAT     H127497   3.675   9.500   5.751
 9085WAT     H227498   3.789   9.444   5.854
 9086WAT      O27499   7.912   1.830   4.361
 9086WAT     H127500   7.948   1.842   4.454
 9086WAT     H227501   7.841   1.898   4.344
 9087WAT      O27502   3.695   7.150   2.163
 9087WAT     H127503   3.746   7.209   2.226
 9087WAT     H227504   3.758   7.082   2.124
 9088WAT      O27505   0.904   7.067   4.905
 9088WAT     H127506   0.810   7.041   4.927
 9088WAT     H227507   0.905   7.153   4.855
 9089WAT      O27508   8.574   0.964   1.878
 9089WAT     H127509   8.579   0.971   1.779
 9089WAT     H227510   8.611   1.047   1.919
 9090WAT      O27511   9.553   2.801   8.773
 9090WAT     H127512   9.474   2.862   8.777
 9090WAT     H227513   9.628   2.847   8.726
 9091WAT      O27514   1.984   2.051   8.059
 9091WAT     H127515   2.017   2.004   7.978
 9091WAT     H227516   2.052   2.118   8.089
 9092WAT      O27517   0.896   3.934   7.880
 9092WAT     H127518   0.936   3.890   7.960
 9092WAT     H227519   0.942   3.902   7.797
 9093WAT      O27520   7.821   9.190   0.924
 9093WAT     H127521   7.920   9.181   0.929
 9093WAT     H227522   7.787   9.238   1.005
 9094WAT      O27523   7.304   3.452   3.165
 9094WAT     H127524   7.326   3.483   3.258
 9094WAT     H227525   7.285   3.531   3.107
 9095WAT      O27526   6.989   5.807   5.832
 9095WAT     H127527   6.904   5.832   5.877
 9095WAT     H227528   7.055   5.775   5.900
 9096WAT      O27529   1.800   5.842   8.737
 9096WAT     H127530   1.881   5.880   8.693
 9096WAT     H227531   1.719   5.861   8.681
 9097WAT      O27532   2.342   4.707   6.333
 9097WAT     H127533   2.322   4.682   6.427
 9097WAT     H227534   2.436   4.741   6.326
 9098WAT      O27535   5.033   4.357   9.735
 9098WAT     H127536   5.068   4.265   9.752
 9098WAT     H227537   4.938   4.363   9.767
 9099WAT      O27538   3.978   5.858   7.291
 9099WAT     H127539   4.049   5.927   7.279
 9099WAT     H227540   3.999   5.802   7.371
 9100WAT      O27541   7.386   4.131   1.570
 9100WAT     H127542   7.296   4.174   1.581
 9100WAT     H227543   7.391   4.088   1.480
 9101WAT      O27544   0.538   8.766   2.411
 9101WAT     H127545   0.472   8.814   2.469
 9101WAT     H227546   0.491   8.727   2.332
 9102WAT      O27547   4.635   5.462   1.033
 9102WAT     H127548   4.662   5.477   1.128
 9102WAT     H227549   4.620   5.365   1.017
 9103WAT      O27550   1.434   6.427   7.291
 9103WAT     H127551   1.502   6.450   7.220
 9103WAT     H227552   1.372   6.504   7.303
 9104WAT      O27553   6.532   0.853   9.137
 9104WAT     H127554   6.515   0.757   9.161
 9104WAT     H227555   6.519   0.865   9.039
 9105WAT      O27556   1.423   8.816   9.707
 9105WAT     H127557   1.355   8.870   9.758
 9105WAT     H227558   1.509   8.814   9.759
 9106WAT      O27559   5.069   2.097   0.317
 9106WAT     H127560   5.107   2.088   0.225
 9106WAT     H227561   5.069   2.194   0.344
 9107WAT      O27562   3.663   7.644   2.323
 9107WAT     H127563   3.669   7.546   2.341
 9107WAT     H227564   3.569   7.675   2.338
 9108WAT      O27565   9.829   4.562   2.992
 9108WAT     H127566   9.771   4.604   3.062
 9108WAT     H227567   9.921   4.601   2.997
 9109WAT      O27568   0.244   6.019   2.881
 9109WAT     H127569   0.169   6.035   2.946
 9109WAT     H227570   0.295   5.938   2.909
 9110WAT      O27571   2.156   6.778   8.644
 9110WAT     H127572   2.246   6.796   8.602
 9110WAT     H227573   2.165   6.779   8.743
 9111WAT      O27574   2.819   5.198   8.199
 9111WAT     H127575   2.869   5.249   8.130
 9111WAT     H227576   2.753   5.259   8.244
 9112WAT      O27577   6.462   4.171   6.673
 9112WAT     H127578   6.480   4.269   6.670
 9112WAT     H227579   6.476   4.131   6.582
 9113WAT      O27580   2.086   2.986   9.651
 9113WAT     H127581   2.182   3.013   9.649
 9113WAT     H227582   2.029   3.067   9.670
 9114WAT      O27583   8.489   4.446   1.267
 9114WAT     H127584   8.538   4.519   1.219
 9114WAT     H227585   8.550   4.403   1.334
 9115WAT      O27586   7.627   4.931   7.519
 9115WAT     H127587   7.555   4.867   7.546
 9115WAT     H227588   7.709   4.880   7.496
 9116WAT      O27589   6.417   4.407   6.944
 9116WAT     H127590   6.349   4.412   6.871
 9116WAT     H227591   6.395   4.330   7.005
 9117WAT      O27592   0.480   4.767   5.656
 9117WAT     H127593   0.385   4.760   5.626
 9117WAT     H227594   0.532   4.691   5.618
 9118WAT      O27595   8.194   4.902   9.234
 9118WAT     H127596   8.212   4.803   9.235
 9118WAT     H227597   8.128   4.924   9.306
 9119WAT      O27598   1.624   3.982   7.331
 9119WAT     H127599   1.535   4.021   7.308
 9119WAT     H227600   1.688   4.000   7.257
 9120WAT      O27601   4.874   9.056   4.789
 9120WAT     H127602   4.786   9.102   4.777
 9120WAT     H227603   4.863   8.978   4.851
 9121WAT      O27604   8.701   1.610   1.717
 9121WAT     H127605   8.714   1.704   1.685
 9121WAT     H227606   8.623   1.607   1.780
 9122WAT      O27607   2.871   6.603   7.552
 9122WAT     H127608   2.919   6.661   7.618
 9122WAT     H227609   2.784   6.574   7.592
 9123WAT      O27610   2.436   1.997   8.694
 9123WAT     H127611   2.528   1.985   8.656
 9123WAT     H227612   2.378   1.920   8.668
 9124WAT      O27613   2.661   1.967   0.963
 9124WAT     H127614   2.716   1.894   0.922
 9124WAT     H227615   2.681   2.053   0.916
 9125WAT      O27616   2.303   2.539   8.743
 9125WAT     H127617   2.376   2.508   8.682
 9125WAT     H227618   2.221   2.484   8.728
 9126WAT      O27619   0.451   4.814   3.994
 9126WAT     H127620   0.501   4.833   4.078
 9126WAT     H227621   0.497   4.742   3.943
 9127WAT      O27622   5.361   1.934   5.349
 9127WAT     H127623   5.352   1.864   5.419
 9127WAT     H227624   5.408   2.014   5.388
 9128WAT      O27625   1.096   9.276   2.807
 9128WAT     H127626   1.028   9.273   2.880
 9128WAT     H227627   1.132   9.184   2.792
 9129WAT      O27628   9.714   1.753   5.391
 9129WAT     H127629   9.801   1.800   5.407
 9129WAT     H227630   9.727   1.682   5.321
 9130WAT      O27631   9.839   6.867   0.440
 9130WAT     H127632   9.766   6.799   0.440
 9130WAT     H227633   9.825   6.931   0.515
 9131WAT      O27634   0.687   5.362   4.465
 9131WAT     H127635   0.649   5.386   4.376
 9131WAT     H227636   0.647   5.277   4.497
 9132WAT      O27637   7.409   3.042   5.490
 9132WAT     H127638   7.478   3.105   5.526
 9132WAT     H227639   7.327   3.094   5.466
 9133WAT      O27640   9.359   1.326   1.276
 9133WAT     H127641   9.280   1.309   1.334
 9133WAT     H227642   9.442   1.291   1.320
 9134WAT      O27643   5.440   1.141   6.086
 9134WAT     H127644   5.480   1.214   6.141
 9134WAT     H227645   5.433   1.058   6.141
 9135WAT      O27646   8.241   7.022   6.883
 9135WAT     H127647   8.325   7.062   6.920
 9135WAT     H227648   8.211   7.075   6.804
 9136WAT      O27649   1.830   3.549   5.282
 9136WAT     H127650   1.732   3.564   5.269
 9136WAT     H227651   1.879   3.579   5.200
 9137WAT      O27652   4.323   9.291   3.934
 9137WAT     H127653   4.402   9.231   3.952
 9137WAT     H227654   4.332   9.374   3.989
 9138WAT      O27655   4.859   4.179   6.706
 9138WAT     H127656   4.953   4.212   6.704
 9138WAT     H227657   4.815   4.211   6.790
 9139WAT      O27658   3.749   9.106   3.435
 9139WAT     H127659   3.761   9.034   3.503
 9139WAT     H227660   3.824   9.103   3.370
 9140WAT      O27661   7.212   1.670   1.646
 9140WAT     H127662   7.241   1.742   1.583
 9140WAT     H227663   7.291   1.633   1.694
 9141WAT      O27664   4.756   0.509   8.022
 9141WAT     H127665   4.752   0.498   7.923
 9141WAT     H227666   4.699   0.586   8.050
 9142WAT      O27667   8.083   5.695   4.509
 9142WAT     H127668   8.038   5.765   4.453
 9142WAT     H227669   8.109   5.618   4.450
 9143WAT      O27670   7.099   0.915   3.394
 9143WAT     H127671   7.173   0.848   3.390
 9143WAT     H227672   7.096   0.955   3.485
 9144WAT      O27673   2.789   9.743   5.001
 9144WAT     H127674   2.812   9.646   5.002
 9144WAT     H227675   2.814   9.784   5.089
 9145WAT      O27676   6.162   8.951   0.911
 9145WAT     H127677   6.102   8.890   0.962
 9145WAT     H227678   6.116   8.984   0.829
 9146WAT      O27679   2.127   3.256   3.943
 9146WAT     H127680   2.162   3.342   3.906
 9146WAT     H227681   2.118   3.189   3.869
 9147WAT      O27682   8.838   0.671   9.464
 9147WAT     H127683   8.821   0.687   9.367
 9147WAT     H227684   8.810   0.578   9.488
 9148WAT      O27685   9.832   0.482   4.005
 9148WAT     H127686   9.832   0.408   3.937
 9148WAT     H227687   9.908   0.468   4.069
 9149WAT      O27688   5.850   4.177   2.106
 9149WAT     H127689   5.935   4.137   2.140
 9149WAT     H227690   5.773   4.135   2.154
 9150WAT      O27691   2.764   7.614   8.871
 9150WAT     H127692   2.784   7.688   8.807
 9150WAT     H227693   2.842   7.602   8.933
 9151WAT      O27694   3.764   3.034   9.663
 9151WAT     H127695   3.860   3.033   9.636
 9151WAT     H227696   3.743   2.952   9.716
 9152WAT      O27697   7.283   6.056   5.407
 9152WAT     H127698   7.230   6.011   5.479
 9152WAT     H227699   7.221   6.108   5.348
 9153WAT      O27700   3.801   9.439   6.968
 9153WAT     H127701   3.759   9.415   6.880
 9153WAT     H227702   3.738   9.497   7.019
 9154WAT      O27703   3.832   2.519   3.414
 9154WAT     H127704   3.807   2.522   3.511
 9154WAT     H227705   3.872   2.430   3.393
 9155WAT      O27706   7.182   7.235   2.958
 9155WAT     H127707   7.205   7.216   3.053
 9155WAT     H227708   7.136   7.323   2.952
 9156WAT      O27709   0.086   2.475   3.180
 9156WAT     H127710  -0.008   2.462   3.149
 9156WAT     H227711   0.086   2.494   3.279
 9157WAT      O27712   0.868   6.487   8.051
 9157WAT     H127713   0.803   6.552   8.089
 9157WAT     H227714   0.897   6.423   8.122
 9158WAT      O27715   3.576   7.968   7.585
 9158WAT     H127716   3.612   7.898   7.524
 9158WAT     H227717   3.491   7.935   7.627
 9159WAT      O27718   6.079   3.014   2.510
 9159WAT     H127719   6.027   2.933   2.536
 9159WAT     H227720   6.018   3.093   2.505
 9160WAT      O27721   8.892   2.245   8.903
 9160WAT     H127722   8.925   2.206   8.989
 9160WAT     H227723   8.818   2.189   8.867
 9161WAT      O27724   5.227   2.286   8.058
 9161WAT     H127725   5.201   2.208   8.115
 9161WAT     H227726   5.185   2.278   7.968
 9162WAT      O27727   8.298   5.069   6.761
 9162WAT     H127728   8.289   5.019   6.675
 9162WAT     H227729   8.379   5.127   6.757
 9163WAT      O27730   7.080   9.322   7.480
 9163WAT     H127731   7.178   9.334   7.462
 9163WAT     H227732   7.031   9.321   7.393
 9164WAT      O27733   0.562   1.970   8.025
 9164WAT     H127734   0.519   2.017   7.948
 9164WAT     H227735   0.542   1.872   8.020
 9165WAT      O27736   0.427   3.407   3.723
 9165WAT     H127737   0.380   3.359   3.649
 9165WAT     H227738   0.363   3.422   3.799
 9166WAT      O27739   9.290   4.918   9.575
 9166WAT     H127740   9.347   4.882   9.649
 9166WAT     H227741   9.200   4.943   9.612
 9167WAT      O27742   1.938   9.470   6.359
 9167WAT     H127743   1.859   9.435   6.408
 9167WAT     H227744   1.909   9.536   6.290
 9168WAT      O27745   5.120   8.314   3.364
 9168WAT     H127746   5.203   8.286   3.316
 9168WAT     H227747   5.077   8.390   3.315
 9169WAT      O27748   3.020   1.866   5.013
 9169WAT     H127749   2.984   1.869   5.106
 9169WAT     H227750   3.029   1.770   4.984
 9170WAT      O27751   2.556   5.743   2.699
 9170WAT     H127752   2.572   5.826   2.753
 9170WAT     H227753   2.502   5.678   2.752
 9171WAT      O27754   7.286   7.667   1.628
 9171WAT     H127755   7.330   7.626   1.709
 9171WAT     H227756   7.192   7.636   1.622
 9172WAT      O27757   0.714   0.632   5.541
 9172WAT     H127758   0.697   0.710   5.602
 9172WAT     H227759   0.675   0.550   5.582
 9173WAT      O27760   3.770   0.635   3.331
 9173WAT     H127761   3.746   0.583   3.249
 9173WAT     H227762   3.739   0.730   3.321
 9174WAT      O27763   6.057   6.173   0.878
 9174WAT     H127764   6.097   6.128   0.958
 9174WAT     H227765   6.016   6.105   0.818
 9175WAT      O27766   5.310   1.283   9.459
 9175WAT     H127767   5.257   1.243   9.534
 9175WAT     H227768   5.250   1.340   9.403
 9176WAT      O27769   4.751   6.793   0.054
 9176WAT     H127770   4.768   6.828   0.146
 9176WAT     H227771   4.776   6.697   0.049
 9177WAT      O27772   5.510   0.726   6.941
 9177WAT     H127773   5.590   0.759   6.893
 9177WAT     H227774   5.479   0.796   7.006
 9178WAT      O27775   5.170   0.300   7.816
 9178WAT     H127776   5.148   0.315   7.912
 9178WAT     H227777   5.231   0.373   7.783
 9179WAT      O27778   7.623   9.262   3.944
 9179WAT     H127779   7.595   9.190   3.881
 9179WAT     H227780   7.708   9.235   3.989
 9180WAT      O27781   4.297   4.573   8.909
 9180WAT     H127782   4.256   4.646   8.964
 9180WAT     H227783   4.392   4.596   8.889
 9181WAT      O27784   2.062   5.150   6.117
 9181WAT     H127785   2.025   5.086   6.050
 9181WAT     H227786   2.136   5.203   6.076
 9182WAT      O27787   2.863   8.962   1.649
 9182WAT     H127788   2.784   9.000   1.601
 9182WAT     H227789   2.943   8.965   1.589
 9183WAT      O27790   7.751   0.804   7.129
 9183WAT     H127791   7.726   0.869   7.058
 9183WAT     H227792   7.724   0.841   7.218
 9184WAT      O27793   2.182   5.702   9.312
 9184WAT     H127794   2.148   5.764   9.383
 9184WAT     H227795   2.115   5.629   9.297
 9185WAT      O27796   6.479   5.499   8.384
 9185WAT     H127797   6.502   5.567   8.454
 9185WAT     H227798   6.510   5.409   8.413
 9186WAT      O27799   6.148   7.762   8.097
 9186WAT     H127800   6.229   7.741   8.151
 9186WAT     H227801   6.130   7.860   8.101
 9187WAT      O27802   0.646   6.314   7.173
 9187WAT     H127803   0.624   6.394   7.118
 9187WAT     H227804   0.734   6.329   7.219
 9188WAT      O27805   7.618   4.954   4.913
 9188WAT     H127806   7.572   4.866   4.897
 9188WAT     H227807   7.569   5.026   4.864
 9189WAT      O27808   2.611   8.872   2.319
 9189WAT     H127809   2.671   8.941   2.279
 9189WAT     H227810   2.662   8.787   2.331
 9190WAT      O27811   5.666   6.362   4.171
 9190WAT     H127812   5.616   6.407   4.098
 9190WAT     H227813   5.644   6.406   4.258
 9191WAT      O27814   4.584   4.286   1.369
 9191WAT     H127815   4.658   4.329   1.422
 9191WAT     H227816   4.496   4.322   1.400
 9192WAT      O27817   1.315   4.601   7.812
 9192WAT     H127818   1.303   4.514   7.859
 9192WAT     H227819   1.236   4.617   7.752
 9193WAT      O27820   4.407   5.022   8.652
 9193WAT     H127821   4.321   5.051   8.693
 9193WAT     H227822   4.390   4.946   8.589
 9194WAT      O27823   7.088   9.249   4.281
 9194WAT     H127824   7.171   9.287   4.240
 9194WAT     H227825   7.011   9.311   4.264
 9195WAT      O27826   5.590   5.165   6.221
 9195WAT     H127827   5.663   5.233   6.228
 9195WAT     H227828   5.627   5.074   6.242
 9196WAT      O27829   3.832   9.330   9.577
 9196WAT     H127830   3.847   9.242   9.621
 9196WAT     H227831   3.858   9.323   9.480
 9197WAT      O27832   3.716   2.411   7.973
 9197WAT     H127833   3.680   2.350   7.902
 9197WAT     H227834   3.641   2.442   8.032
 9198WAT      O27835   6.264   2.333   4.644
 9198WAT     H127836   6.191   2.377   4.591
 9198WAT     H227837   6.229   2.250   4.686
 9199WAT      O27838   1.190   6.040   9.841
 9199WAT     H127839   1.272   6.080   9.799
 9199WAT     H227840   1.134   5.997   9.770
 9200WAT      O27841   5.759   8.104   9.065
 9200WAT     H127842   5.660   8.114   9.057
 9200WAT     H227843   5.782   8.060   9.152
 9201WAT      O27844   4.745   7.754   1.201
 9201WAT     H127845   4.755   7.816   1.279
 9201WAT     H227846   4.668   7.692   1.217
 9202WAT      O27847   5.387   9.141   2.773
 9202WAT     H127848   5.376   9.217   2.838
 9202WAT     H227849   5.387   9.176   2.680
 9203WAT      O27850   3.145   0.250   9.745
 9203WAT     H127851   3.136   0.327   9.808
 9203WAT     H227852   3.127   0.165   9.794
 9204WAT      O27853   0.262   4.432   1.101
 9204WAT     H127854   0.336   4.390   1.154
 9204WAT     H227855   0.291   4.523   1.070
 9205WAT      O27856   7.919   4.928   6.676
 9205WAT     H127857   7.974   4.849   6.650
 9205WAT     H227858   7.874   4.966   6.594
 9206WAT      O27859   9.733   2.640   0.190
 9206WAT     H127860   9.788   2.681   0.263
 9206WAT     H227861   9.762   2.546   0.175
 9207WAT      O27862   6.248   3.388   3.593
 9207WAT     H127863   6.251   3.289   3.577
 9207WAT     H227864   6.340   3.423   3.606
 9208WAT      O27865   9.779   2.755   4.469
 9208WAT     H127866   9.858   2.761   4.407
 9208WAT     H227867   9.771   2.841   4.520
 9209WAT      O27868   0.606   3.508   9.270
 9209WAT     H127869   0.600   3.475   9.364
 9209WAT     H227870   0.542   3.456   9.213
 9210WAT      O27871   9.372   7.646   5.693
 9210WAT     H127872   9.329   7.561   5.663
 9210WAT     H227873   9.471   7.639   5.679
 9211WAT      O27874   9.694   0.560   5.758
 9211WAT     H127875   9.684   0.492   5.685
 9211WAT     H227876   9.789   0.562   5.789
 9212WAT      O27877   4.876   9.205   5.070
 9212WAT     H127878   4.880   9.106   5.075
 9212WAT     H227879   4.844   9.233   4.979
 9213WAT      O27880   5.268   0.625   3.741
 9213WAT     H127881   5.330   0.641   3.818
 9213WAT     H227882   5.316   0.644   3.655
 9214WAT      O27883   1.366   0.112   9.448
 9214WAT     H127884   1.434   0.043   9.424
 9214WAT     H227885   1.333   0.157   9.366
 9215WAT      O27886   0.314   3.967   5.629
 9215WAT     H127887   0.248   3.921   5.688
 9215WAT     H227888   0.392   3.906   5.612
 9216WAT      O27889   5.613   7.000   9.704
 9216WAT     H127890   5.546   7.035   9.638
 9216WAT     H227891   5.574   6.921   9.752
 9217WAT      O27892   8.610   5.557   3.180
 9217WAT     H127893   8.637   5.468   3.143
 9217WAT     H227894   8.678   5.588   3.246
 9218WAT      O27895   6.804   5.498   0.458
 9218WAT     H127896   6.864   5.543   0.392
 9218WAT     H227897   6.859   5.440   0.518
 9219WAT      O27898   3.874   2.433   0.744
 9219WAT     H127899   3.901   2.505   0.808
 9219WAT     H227900   3.813   2.369   0.790
 9220WAT      O27901   4.135   9.776   4.005
 9220WAT     H127902   4.109   9.768   3.909
 9220WAT     H227903   4.073   9.720   4.061
 9221WAT      O27904   3.370   0.291   0.957
 9221WAT     H127905   3.446   0.337   1.002
 9221WAT     H227906   3.304   0.359   0.925
 9222WAT      O27907   1.363   6.490   6.909
 9222WAT     H127908   1.373   6.446   6.820
 9222WAT     H227909   1.299   6.566   6.902
 9223WAT      O27910   4.132   6.863   6.815
 9223WAT     H127911   4.113   6.859   6.913
 9223WAT     H227912   4.087   6.943   6.775
 9224WAT      O27913   5.933   1.646   5.680
 9224WAT     H127914   6.016   1.610   5.721
 9224WAT     H227915   5.956   1.715   5.611
 9225WAT      O27916   2.638   6.563   8.468
 9225WAT     H127917   2.703   6.632   8.439
 9225WAT     H227918   2.638   6.556   8.568
 9226WAT      O27919   9.256   7.848   3.242
 9226WAT     H127920   9.338   7.791   3.233
 9226WAT     H227921   9.278   7.929   3.297
 9227WAT      O27922   2.222   3.812   0.833
 9227WAT     H127923   2.252   3.787   0.741
 9227WAT     H227924   2.300   3.845   0.886
 9228WAT      O27925   0.725   7.830   5.132
 9228WAT     H127926   0.811   7.778   5.141
 9228WAT     H227927   0.746   7.928   5.128
 9229WAT      O27928   9.289   6.295   6.997
 9229WAT     H127929   9.329   6.382   6.969
 9229WAT     H227930   9.263   6.300   7.094
 9230WAT      O27931   6.210   5.710   0.469
 9230WAT     H127932   6.111   5.707   0.454
 9230WAT     H227933   6.253   5.756   0.391
 9231WAT      O27934   6.152   3.542   8.074
 9231WAT     H127935   6.220   3.507   8.138
 9231WAT     H227936   6.100   3.616   8.117
 9232WAT      O27937   2.836   2.833   1.429
 9232WAT     H127938   2.906   2.776   1.385
 9232WAT     H227939   2.864   2.854   1.523
 9233WAT      O27940   6.457   6.516   6.297
 9233WAT     H127941   6.430   6.561   6.212
 9233WAT     H227942   6.555   6.528   6.311
 9234WAT      O27943   4.663   6.547   5.662
 9234WAT     H127944   4.748   6.565   5.612
 9234WAT     H227945   4.684   6.528   5.758
 9235WAT      O27946   4.375   7.359   7.324
 9235WAT     H127947   4.407   7.400   7.409
 9235WAT     H227948   4.285   7.394   7.302
 9236WAT      O27949   2.012   1.692   1.787
 9236WAT     H127950   1.996   1.760   1.716
 9236WAT     H227951   1.997   1.733   1.877
 9237WAT      O27952   0.798   8.264   4.609
 9237WAT     H127953   0.783   8.165   4.610
 9237WAT     H227954   0.863   8.289   4.681
 9238WAT      O27955   2.993   1.639   0.778
 9238WAT     H127956   3.060   1.695   0.828
 9238WAT     H227957   3.026   1.622   0.686
 9239WAT      O27958   6.426   4.518   1.681
 9239WAT     H127959   6.424   4.444   1.748
 9239WAT     H227960   6.461   4.601   1.723
 9240WAT      O27961   7.824   0.108   3.417
 9240WAT     H127962   7.881   0.065   3.348
 9240WAT     H227963   7.808   0.044   3.492
 9241WAT      O27964   3.326   5.445   3.113
 9241WAT     H127965   3.288   5.472   3.201
 9241WAT     H227966   3.263   5.470   3.040
 9242WAT      O27967   6.484   4.410   3.985
 9242WAT     H127968   6.504   4.411   3.887
 9242WAT     H227969   6.390   4.440   4.000
 9243WAT      O27970   0.811   9.094   7.790
 9243WAT     H127971   0.884   9.041   7.748
 9243WAT     H227972   0.739   9.110   7.723
 9244WAT      O27973   8.081   5.184   4.988
 9244WAT     H127974   7.983   5.163   4.983
 9244WAT     H227975   8.130   5.124   4.924
 9245WAT      O27976   6.858   5.153   4.914
 9245WAT     H127977   6.933   5.117   4.860
 9245WAT     H227978   6.894   5.198   4.996
 9246WAT      O27979   0.606   3.724   4.346
 9246WAT     H127980   0.550   3.696   4.267
 9246WAT     H227981   0.621   3.645   4.405
 9247WAT      O27982   1.161   5.459   2.426
 9247WAT     H127983   1.152   5.478   2.524
 9247WAT     H227984   1.153   5.544   2.375
 9248WAT      O27985   1.497   8.021   7.635
 9248WAT     H127986   1.552   8.101   7.611
 9248WAT     H227987   1.488   7.962   7.554
 9249WAT      O27988   5.346   6.761   5.684
 9249WAT     H127989   5.387   6.670   5.692
 9249WAT     H227990   5.339   6.786   5.588
 9250WAT      O27991   6.187   8.299   6.543
 9250WAT     H127992   6.202   8.364   6.469
 9250WAT     H227993   6.275   8.258   6.569
 9251WAT      O27994   6.366   1.267   1.856
 9251WAT     H127995   6.404   1.355   1.829
 9251WAT     H227996   6.310   1.230   1.782
 9252WAT      O27997   6.583   3.541   3.343
 9252WAT     H127998   6.668   3.559   3.293
 9252WAT     H227999   6.504   3.562   3.285
 9253WAT      O28000   7.613   1.587   7.297
 9253WAT     H128001   7.556   1.616   7.373
 9253WAT     H228002   7.704   1.562   7.331
 9254WAT      O28003   3.344   4.331   6.240
 9254WAT     H128004   3.398   4.399   6.190
 9254WAT     H228005   3.369   4.333   6.337
 9255WAT      O28006   9.547   4.236   3.417
 9255WAT     H128007   9.484   4.255   3.341
 9255WAT     H228008   9.584   4.144   3.407
 9256WAT      O28009   3.436   4.041   6.824
 9256WAT     H128010   3.383   4.098   6.885
 9256WAT     H228011   3.394   3.950   6.818
 9257WAT      O28012   8.395   6.750   1.980
 9257WAT     H128013   8.494   6.752   1.994
 9257WAT     H228014   8.366   6.656   1.962
 9258WAT      O28015   0.014   8.132   5.396
 9258WAT     H128016  -0.047   8.169   5.467
 9258WAT     H228017   0.045   8.041   5.423
 9259WAT      O28018   7.066   5.942   0.980
 9259WAT     H128019   7.120   5.858   0.981
 9259WAT     H228020   7.086   5.993   0.897
 9260WAT      O28021   1.898   3.726   3.567
 9260WAT     H128022   1.935   3.735   3.474
 9260WAT     H228023   1.845   3.809   3.589
 9261WAT      O28024   2.438   9.466   7.712
 9261WAT     H128025   2.430   9.367   7.706
 9261WAT     H228026   2.426   9.495   7.807
 9262WAT      O28027   2.268   6.523   6.541
 9262WAT     H128028   2.216   6.607   6.526
 9262WAT     H228029   2.353   6.546   6.589
 9263WAT      O28030   7.171   6.316   7.803
 9263WAT     H128031   7.250   6.334   7.745
 9263WAT     H228032   7.103   6.389   7.791
 9264WAT      O28033   8.574   3.601   4.710
 9264WAT     H128034   8.616   3.539   4.644
 9264WAT     H228035   8.638   3.616   4.786
 9265WAT      O28036   7.992   9.808   1.408
 9265WAT     H128037   7.967   9.895   1.365
 9265WAT     H228038   7.920   9.779   1.471
 9266WAT      O28039   5.114   9.109   7.537
 9266WAT     H128040   5.028   9.089   7.585
 9266WAT     H228041   5.093   9.152   7.449
 9267WAT      O28042   4.262   8.190   7.635
 9267WAT     H128043   4.290   8.209   7.541
 9267WAT     H228044   4.280   8.094   7.657
 9268WAT      O28045   2.555   1.335   3.272
 9268WAT     H128046   2.521   1.410   3.215
 9268WAT     H228047   2.600   1.373   3.353
 9269WAT      O28048   2.582   2.899   2.181
 9269WAT     H128049   2.645   2.914   2.258
 9269WAT     H228050   2.493   2.937   2.202
 9270WAT      O28051   9.479   4.920   7.759
 9270WAT     H128052   9.479   4.986   7.684
 9270WAT     H228053   9.528   4.837   7.730
 9271WAT      O28054   8.005   1.938   8.819
 9271WAT     H128055   8.000   1.863   8.753
 9271WAT     H228056   8.074   1.918   8.889
 9272WAT      O28057   1.324   2.145   7.343
 9272WAT     H128058   1.372   2.062   7.370
 9272WAT     H228059   1.296   2.139   7.247
 9273WAT      O28060   0.088   6.122   6.918
 9273WAT     H128061  -0.006   6.118   6.952
 9273WAT     H228062   0.151   6.105   6.993
 9274WAT      O28063   0.576   1.337   1.167
 9274WAT     H128064   0.525   1.369   1.247
 9274WAT     H228065   0.559   1.399   1.090
 9275WAT      O28066   5.091   0.727   3.547
 9275WAT     H128067   5.086   0.823   3.521
 9275WAT     H228068   5.145   0.717   3.630
 9276WAT      O28069   8.263   3.826   1.528
 9276WAT     H128070   8.289   3.733   1.555
 9276WAT     H228071   8.316   3.892   1.581
 9277WAT      O28072   6.676   8.658   0.322
 9277WAT     H128073   6.672   8.654   0.222
 9277WAT     H228074   6.593   8.618   0.360
 9278WAT      O28075   1.708   2.062   1.254
 9278WAT     H128076   1.708   2.161   1.269
 9278WAT     H228077   1.725   2.043   1.158
 9279WAT      O28078   9.356   3.498   3.776
 9279WAT     H128079   9.421   3.572   3.793
 9279WAT     H228080   9.393   3.412   3.811
 9280WAT      O28081   6.205   3.235   7.707
 9280WAT     H128082   6.240   3.317   7.752
 9280WAT     H228083   6.233   3.154   7.760
 9281WAT      O28084   2.470   6.069   1.435
 9281WAT     H128085   2.376   6.069   1.401
 9281WAT     H228086   2.524   6.001   1.386
 9282WAT      O28087   0.016   6.097   3.042
 9282WAT     H128088  -0.080   6.088   3.018
 9282WAT     H228089   0.052   6.183   3.004
 9283WAT      O28090   9.065   5.211   6.556
 9283WAT     H128091   9.146   5.172   6.600
 9283WAT     H228092   9.059   5.309   6.578
 9284WAT      O28093   5.573   7.780   4.875
 9284WAT     H128094   5.593   7.688   4.910
 9284WAT     H228095   5.626   7.847   4.926
 9285WAT      O28096   5.336   8.900   9.817
 9285WAT     H128097   5.251   8.951   9.831
 9285WAT     H228098   5.326   8.808   9.855
 9286WAT      O28099   2.021   7.519   2.229
 9286WAT     H128100   1.928   7.551   2.210
 9286WAT     H228101   2.045   7.447   2.165
 9287WAT      O28102   4.307   5.384   7.545
 9287WAT     H128103   4.349   5.349   7.461
 9287WAT     H228104   4.309   5.314   7.615
 9288WAT      O28105   5.207   6.398   3.674
 9288WAT     H128106   5.266   6.321   3.652
 9288WAT     H228107   5.189   6.451   3.591
 9289WAT      O28108   8.922   5.143   7.321
 9289WAT     H128109   9.019   5.154   7.299
 9289WAT     H228110   8.891   5.221   7.376
 9290WAT      O28111   9.885   8.884   9.111
 9290WAT     H128112   9.896   8.981   9.089
 9290WAT     H228113   9.864   8.874   9.209
 9291WAT      O28114   9.691   5.420   6.846
 9291WAT     H128115   9.775   5.469   6.866
 9291WAT     H228116   9.652   5.454   6.760
 9292WAT      O28117   6.822   8.393   4.411
 9292WAT     H128118   6.906   8.419   4.459
 9292WAT     H228119   6.845   8.348   4.325
 9293WAT      O28120   7.751   0.375   9.794
 9293WAT     H128121   7.674   0.438   9.807
 9293WAT     H228122   7.741   0.329   9.706
 9294WAT      O28123   9.856   1.787   2.283
 9294WAT     H128124   9.882   1.691   2.285
 9294WAT     H228125   9.938   1.844   2.270
 9295WAT      O28126   3.617   7.508   8.407
 9295WAT     H128127   3.572   7.576   8.349
 9295WAT     H228128   3.709   7.541   8.430
 9296WAT      O28129   5.196   1.383   3.449
 9296WAT     H128130   5.188   1.472   3.406
 9296WAT     H228131   5.290   1.349   3.438
 9297WAT      O28132   5.364   6.122   9.266
 9297WAT     H128133   5.344   6.132   9.364
 9297WAT     H228134   5.290   6.165   9.213
 9298WAT      O28135   6.775   2.570   6.825
 9298WAT     H128136   6.750   2.665   6.810
 9298WAT     H228137   6.723   2.534   6.903
 9299WAT      O28138   1.738   1.071   3.709
 9299WAT     H128139   1.736   0.978   3.744
 9299WAT     H228140   1.676   1.079   3.631
 9300WAT      O28141   8.403   1.391   3.589
 9300WAT     H128142   8.329   1.357   3.531
 9300WAT     H228143   8.432   1.481   3.558
 9301WAT      O28144   3.083   4.176   4.308
 9301WAT     H128145   3.041   4.100   4.358
 9301WAT     H228146   3.062   4.262   4.355
 9302WAT      O28147   7.144   2.264   7.196
 9302WAT     H128148   7.112   2.327   7.125
 9302WAT     H228149   7.069   2.205   7.224
 9303WAT      O28150   7.045   9.097   7.221
 9303WAT     H128151   7.113   9.024   7.215
 9303WAT     H228152   7.092   9.185   7.231
 9304WAT      O28153   4.880   9.497   8.746
 9304WAT     H128154   4.782   9.516   8.752
 9304WAT     H228155   4.900   9.449   8.660
 9305WAT      O28156   4.451   5.218   8.986
 9305WAT     H128157   4.506   5.150   8.937
 9305WAT     H228158   4.422   5.289   8.922
 9306WAT      O28159   4.028   4.623   6.539
 9306WAT     H128160   4.112   4.607   6.592
 9306WAT     H228161   3.967   4.545   6.550
 9307WAT      O28162   6.161   4.426   6.816
 9307WAT     H128163   6.141   4.351   6.752
 9307WAT     H228164   6.159   4.390   6.910
 9308WAT      O28165   2.448   5.583   5.470
 9308WAT     H128166   2.497   5.538   5.545
 9308WAT     H228167   2.395   5.515   5.420
 9309WAT      O28168   4.519   0.150   3.696
 9309WAT     H128169   4.546   0.061   3.732
 9309WAT     H228170   4.439   0.139   3.636
 9310WAT      O28171   5.281   2.727   3.406
 9310WAT     H128172   5.270   2.796   3.479
 9310WAT     H228173   5.377   2.721   3.380
 9311WAT      O28174   9.248   8.386   4.621
 9311WAT     H128175   9.261   8.326   4.700
 9311WAT     H228176   9.279   8.478   4.644
 9312WAT      O28177   8.184   0.660   4.769
 9312WAT     H128178   8.252   0.632   4.701
 9312WAT     H228179   8.163   0.757   4.758
 9313WAT      O28180   5.726   7.972   6.034
 9313WAT     H128181   5.764   8.026   6.110
 9313WAT     H228182   5.736   7.874   6.055
 9314WAT      O28183   1.122   2.526   0.756
 9314WAT     H128184   1.132   2.444   0.700
 9314WAT     H228185   1.039   2.518   0.812
 9315WAT      O28186   8.566   1.373   8.593
 9315WAT     H128187   8.550   1.315   8.514
 9315WAT     H228188   8.665   1.384   8.608
 9316WAT      O28189   4.243   4.404   3.376
 9316WAT     H128190   4.256   4.445   3.466
 9316WAT     H228191   4.254   4.474   3.306
 9317WAT      O28192   7.124   7.221   0.540
 9317WAT     H128193   7.067   7.184   0.467
 9317WAT     H228194   7.083   7.200   0.629
 9318WAT      O28195   0.912   1.851   9.439
 9318WAT     H128196   0.890   1.825   9.533
 9318WAT     H228197   0.997   1.903   9.438
 9319WAT      O28198   5.772   6.593   9.088
 9319WAT     H128199   5.749   6.565   8.995
 9319WAT     H228200   5.819   6.682   9.084
 9320WAT      O28201   0.592   7.371   1.929
 9320WAT     H128202   0.627   7.355   1.836
 9320WAT     H228203   0.642   7.313   1.993
 9321WAT      O28204   6.461   0.978   2.744
 9321WAT     H128205   6.439   0.919   2.666
 9321WAT     H228206   6.457   1.073   2.716
 9322WAT      O28207   8.534   6.666   5.010
 9322WAT     H128208   8.523   6.765   5.021
 9322WAT     H228209   8.484   6.636   4.928
 9323WAT      O28210   2.609   0.133   3.899
 9323WAT     H128211   2.591   0.226   3.930
 9323WAT     H228212   2.701   0.128   3.861
 9324WAT      O28213   7.585   8.671   8.389
 9324WAT     H128214   7.558   8.598   8.327
 9324WAT     H228215   7.612   8.632   8.477
 9325WAT      O28216   6.059   2.467   2.285
 9325WAT     H128217   6.154   2.450   2.312
 9325WAT     H228218   6.050   2.561   2.252
 9326WAT      O28219   0.874   9.417   8.307
 9326WAT     H128220   0.907   9.323   8.313
 9326WAT     H228221   0.868   9.457   8.398
 9327WAT      O28222   2.034   9.459   5.133
 9327WAT     H128223   2.064   9.486   5.225
 9327WAT     H228224   2.019   9.361   5.130
 9328WAT      O28225   6.857   8.732   4.090
 9328WAT     H128226   6.839   8.764   3.998
 9328WAT     H228227   6.782   8.672   4.120
 9329WAT      O28228   4.484   9.450   4.633
 9329WAT     H128229   4.533   9.364   4.627
 9329WAT     H228230   4.430   9.463   4.550
 9330WAT      O28231   4.379   0.402   2.984
 9330WAT     H128232   4.407   0.497   2.974
 9330WAT     H228233   4.292   0.388   2.936
 9331WAT      O28234   0.760   8.776   2.570
 9331WAT     H128235   0.806   8.690   2.549
 9331WAT     H228236   0.678   8.784   2.514
 9332WAT      O28237   9.281   9.560   8.208
 9332WAT     H128238   9.191   9.516   8.202
 9332WAT     H228239   9.282   9.642   8.151
 9333WAT      O28240   8.770   7.335   0.004
 9333WAT     H128241   8.804   7.242   0.021
 9333WAT     H228242   8.728   7.371   0.087
 9334WAT      O28243   7.587   3.716   1.814
 9334WAT     H128244   7.595   3.709   1.714
 9334WAT     H228245   7.636   3.797   1.846
 9335WAT      O28246   3.220   1.475   9.375
 9335WAT     H128247   3.310   1.518   9.367
 9335WAT     H228248   3.218   1.392   9.319
 9336WAT      O28249   8.490   3.645   1.114
 9336WAT     H128250   8.554   3.607   1.048
 9336WAT     H228251   8.408   3.677   1.066
 9337WAT      O28252   0.791   3.897   1.422
 9337WAT     H128253   0.851   3.971   1.389
 9337WAT     H228254   0.703   3.903   1.376
 9338WAT      O28255   8.739   5.304   1.515
 9338WAT     H128256   8.729   5.402   1.532
 9338WAT     H228257   8.818   5.288   1.456
 9339WAT      O28258   9.733   6.926   2.678
 9339WAT     H128259   9.797   6.854   2.651
 9339WAT     H228260   9.745   6.948   2.774
 9340WAT      O28261   0.819   4.109   5.238
 9340WAT     H128262   0.827   4.181   5.169
 9340WAT     H228263   0.788   4.148   5.324
 9341WAT      O28264   0.312   5.932   7.870
 9341WAT     H128265   0.265   6.013   7.836
 9341WAT     H228266   0.365   5.955   7.951
 9342WAT      O28267   3.486   3.633   6.133
 9342WAT     H128268   3.460   3.665   6.042
 9342WAT     H228269   3.552   3.696   6.173
 9343WAT      O28270   2.436   9.532   4.035
 9343WAT     H128271   2.515   9.475   4.060
 9343WAT     H228272   2.456   9.628   4.056
 9344WAT      O28273   6.268   0.255   0.309
 9344WAT     H128274   6.202   0.181   0.304
 9344WAT     H228275   6.318   0.262   0.223
 9345WAT      O28276   7.471   0.181   1.325
 9345WAT     H128277   7.421   0.137   1.251
 9345WAT     H228278   7.478   0.279   1.307
 9346WAT      O28279   5.189   4.604   8.159
 9346WAT     H128280   5.234   4.520   8.189
 9346WAT     H228281   5.250   4.654   8.098
 9347WAT      O28282   5.713   7.091   6.989
 9347WAT     H128283   5.726   7.031   7.068
 9347WAT     H228284   5.660   7.043   6.919
 9348WAT      O28285   1.531   7.951   5.122
 9348WAT     H128286   1.488   8.019   5.180
 9348WAT     H228287   1.478   7.866   5.125
 9349WAT      O28288   1.364   1.120   5.800
 9349WAT     H128289   1.449   1.068   5.811
 9349WAT     H228290   1.290   1.058   5.773
 9350WAT      O28291   0.116   0.293   2.676
 9350WAT     H128292   0.061   0.327   2.600
 9350WAT     H228293   0.205   0.262   2.643
 9351WAT      O28294   2.068   8.113   1.072
 9351WAT     H128295   2.127   8.082   0.998
 9351WAT     H228296   1.980   8.066   1.066
 9352WAT      O28297   8.244   9.134   4.940
 9352WAT     H128298   8.330   9.097   4.974
 9352WAT     H228299   8.201   9.189   5.012
 9353WAT      O28300   9.428   2.431   0.985
 9353WAT     H128301   9.449   2.504   1.049
 9353WAT     H228302   9.503   2.365   0.983
 9354WAT      O28303   1.209   4.972   3.028
 9354WAT     H128304   1.163   5.035   2.965
 9354WAT     H228305   1.288   5.017   3.069
 9355WAT      O28306   7.527   9.514   6.209
 9355WAT     H128307   7.561   9.598   6.164
 9355WAT     H228308   7.600   9.445   6.208
 9356WAT      O28309   7.502   0.554   5.752
 9356WAT     H128310   7.412   0.596   5.748
 9356WAT     H228311   7.502   0.469   5.699
 9357WAT      O28312   0.850   9.313   3.734
 9357WAT     H128313   0.888   9.381   3.797
 9357WAT     H228314   0.862   9.222   3.773
 9358WAT      O28315   1.152   8.533   7.405
 9358WAT     H128316   1.124   8.622   7.368
 9358WAT     H228317   1.071   8.477   7.422
 9359WAT      O28318   3.404   3.292   1.101
 9359WAT     H128319   3.371   3.256   1.187
 9359WAT     H228320   3.375   3.387   1.091
 9360WAT      O28321   2.784   5.591   7.146
 9360WAT     H128322   2.773   5.609   7.243
 9360WAT     H228323   2.791   5.677   7.096
 9361WAT      O28324   1.840   3.208   7.114
 9361WAT     H128325   1.774   3.137   7.138
 9361WAT     H228326   1.817   3.246   7.025
 9362WAT      O28327   1.312   8.292   2.407
 9362WAT     H128328   1.228   8.329   2.368
 9362WAT     H228329   1.390   8.349   2.378
 9363WAT      O28330   7.200   8.159   9.764
 9363WAT     H128331   7.230   8.246   9.804
 9363WAT     H228332   7.196   8.168   9.664
 9364WAT      O28333   8.355   4.679   6.226
 9364WAT     H128334   8.387   4.609   6.163
 9364WAT     H228335   8.418   4.757   6.224
 9365WAT      O28336   0.683   3.787   9.825
 9365WAT     H128337   0.633   3.794   9.911
 9365WAT     H228338   0.731   3.873   9.807
 9366WAT      O28339   0.932   9.644   0.596
 9366WAT     H128340   0.856   9.708   0.608
 9366WAT     H228341   0.894   9.553   0.578
 9367WAT      O28342   2.973   1.275   1.840
 9367WAT     H128343   3.064   1.312   1.824
 9367WAT     H228344   2.910   1.350   1.862
 9368WAT      O28345   5.410   8.850   6.968
 9368WAT     H128346   5.376   8.759   6.990
 9368WAT     H228347   5.454   8.849   6.878
 9369WAT      O28348   6.357   9.219   8.124
 9369WAT     H128349   6.343   9.125   8.155
 9369WAT     H228350   6.270   9.267   8.124
 9370WAT      O28351   7.990   1.769   4.114
 9370WAT     H128352   8.002   1.802   4.208
 9370WAT     H228353   8.000   1.670   4.111
 9371WAT      O28354   1.148   2.774   0.622
 9371WAT     H128355   1.127   2.697   0.682
 9371WAT     H228356   1.126   2.859   0.668
 9372WAT      O28357   2.156   8.099   6.948
 9372WAT     H128358   2.067   8.055   6.953
 9372WAT     H228359   2.213   8.051   6.881
 9373WAT      O28360   4.499   7.713   8.430
 9373WAT     H128361   4.568   7.713   8.358
 9373WAT     H228362   4.421   7.769   8.402
 9374WAT      O28363   6.207   3.159   8.056
 9374WAT     H128364   6.236   3.120   7.969
 9374WAT     H228365   6.287   3.193   8.105
 9375WAT      O28366   7.211   1.692   5.986
 9375WAT     H128367   7.244   1.777   6.028
 9375WAT     H228368   7.285   1.651   5.933
 9376WAT      O28369   4.035   2.241   6.881
 9376WAT     H128370   4.076   2.316   6.932
 9376WAT     H228371   3.953   2.273   6.834
 9377WAT      O28372   2.490   8.086   3.228
 9377WAT     H128373   2.436   8.170   3.227
 9377WAT     H228374   2.564   8.093   3.161
 9378WAT      O28375   0.825   6.380   7.799
 9378WAT     H128376   0.856   6.398   7.893
 9378WAT     H228377   0.765   6.455   7.770
 9379WAT      O28378   4.031   9.218   5.063
 9379WAT     H128379   4.112   9.179   5.019
 9379WAT     H228380   4.059   9.282   5.135
 9380WAT      O28381   1.545   7.557   8.905
 9380WAT     H128382   1.452   7.521   8.901
 9380WAT     H228383   1.602   7.499   8.962
 9381WAT      O28384   8.853   1.915   5.904
 9381WAT     H128385   8.855   1.978   5.982
 9381WAT     H228386   8.946   1.892   5.877
 9382WAT      O28387   7.375   0.624   0.840
 9382WAT     H128388   7.284   0.645   0.875
 9382WAT     H228389   7.398   0.529   0.863
 9383WAT      O28390   5.012   6.345   5.983
 9383WAT     H128391   5.054   6.266   5.939
 9383WAT     H228392   5.043   6.352   6.077
 9384WAT      O28393   8.994   7.232   0.634
 9384WAT     H128394   9.059   7.297   0.674
 9384WAT     H228395   8.989   7.151   0.693
 9385WAT      O28396   3.830   2.043   2.011
 9385WAT     H128397   3.826   2.041   2.111
 9385WAT     H228398   3.824   2.137   1.979
 9386WAT      O28399   6.391   8.535   3.766
 9386WAT     H128400   6.459   8.461   3.764
 9386WAT     H228401   6.299   8.496   3.769
 9387WAT      O28402   5.904   7.147   9.368
 9387WAT     H128403   5.893   7.176   9.463
 9387WAT     H228404   5.818   7.162   9.318
 9388WAT      O28405   7.533   9.454   9.217
 9388WAT     H128406   7.531   9.470   9.316
 9388WAT     H228407   7.621   9.415   9.192
 9389WAT      O28408   6.551   0.852   5.800
 9389WAT     H128409   6.590   0.866   5.891
 9389WAT     H228410   6.464   0.900   5.793
 9390WAT      O28411   1.291   3.255   5.427
 9390WAT     H128412   1.213   3.308   5.393
 9390WAT     H228413   1.369   3.267   5.366
 9391WAT      O28414   8.773   3.231   3.263
 9391WAT     H128415   8.735   3.149   3.305
 9391WAT     H228416   8.872   3.220   3.251
 9392WAT      O28417   4.275   7.604   5.842
 9392WAT     H128418   4.270   7.504   5.850
 9392WAT     H228419   4.182   7.642   5.847
 9393WAT      O28420   0.448   0.839   9.858
 9393WAT     H128421   0.522   0.897   9.823
 9393WAT     H228422   0.430   0.765   9.793
 9394WAT      O28423   3.813   2.633   9.296
 9394WAT     H128424   3.832   2.581   9.379
 9394WAT     H228425   3.735   2.592   9.249
 9395WAT      O28426   7.109   1.337   8.940
 9395WAT     H128427   7.039   1.381   8.883
 9395WAT     H228428   7.091   1.358   9.036
 9396WAT      O28429   3.963   8.991   9.420
 9396WAT     H128430   4.026   8.979   9.344
 9396WAT     H228431   3.876   8.946   9.398
 9397WAT      O28432   5.462   1.111   4.380
 9397WAT     H128433   5.414   1.100   4.293
 9397WAT     H228434   5.542   1.170   4.366
 9398WAT      O28435   8.826   2.908   7.464
 9398WAT     H128436   8.767   2.982   7.498
 9398WAT     H228437   8.769   2.834   7.428
 9399WAT      O28438   7.969   0.298   4.829
 9399WAT     H128439   7.895   0.366   4.829
 9399WAT     H228440   8.056   0.344   4.847
 9400WAT      O28441   0.552   3.241   7.758
 9400WAT     H128442   0.541   3.340   7.773
 9400WAT     H228443   0.502   3.214   7.676
 9401WAT      O28444   5.809   1.082   1.242
 9401WAT     H128445   5.753   1.021   1.186
 9401WAT     H228446   5.773   1.176   1.236
 9402WAT      O28447   7.081   7.801   5.763
 9402WAT     H128448   7.180   7.787   5.763
 9402WAT     H228449   7.062   7.899   5.762
 9403WAT      O28450   3.564   7.270   5.945
 9403WAT     H128451   3.482   7.212   5.947
 9403WAT     H228452   3.637   7.223   5.896
 9404WAT      O28453   5.792   9.414   6.504
 9404WAT     H128454   5.795   9.451   6.411
 9404WAT     H228455   5.746   9.479   6.565
 9405WAT      O28456   7.429   4.819   6.873
 9405WAT     H128457   7.460   4.793   6.965
 9405WAT     H228458   7.506   4.859   6.823
 9406WAT      O28459   6.751   5.144   7.807
 9406WAT     H128460   6.841   5.104   7.790
 9406WAT     H228461   6.683   5.099   7.748
 9407WAT      O28462   6.165   3.848   2.447
 9407WAT     H128463   6.095   3.792   2.404
 9407WAT     H228464   6.187   3.809   2.537
 9408WAT      O28465   4.338   2.363   8.522
 9408WAT     H128466   4.377   2.454   8.541
 9408WAT     H228467   4.273   2.339   8.594
 9409WAT      O28468   3.492   6.075   2.082
 9409WAT     H128469   3.413   6.035   2.128
 9409WAT     H228470   3.563   6.095   2.150
 9410WAT      O28471   3.379   4.863   1.475
 9410WAT     H128472   3.465   4.814   1.458
 9410WAT     H228473   3.384   4.954   1.436
 9411WAT      O28474   6.137   5.984   6.728
 9411WAT     H128475   6.231   5.974   6.759
 9411WAT     H228476   6.134   5.985   6.628
 9412WAT      O28477   0.251   7.522   5.707
 9412WAT     H128478   0.215   7.432   5.680
 9412WAT     H228479   0.350   7.523   5.696
 9413WAT      O28480   9.452   7.036   8.716
 9413WAT     H128481   9.356   7.064   8.720
 9413WAT     H228482   9.461   6.943   8.749
 9414WAT      O28483   8.667   9.745   6.315
 9414WAT     H128484   8.703   9.765   6.406
 9414WAT     H228485   8.698   9.816   6.251
 9415WAT      O28486   6.519   6.001   2.150
 9415WAT     H128487   6.505   5.906   2.122
 9415WAT     H228488   6.430   6.044   2.166
 9416WAT      O28489   2.129   6.909   9.780
 9416WAT     H128490   2.162   7.004   9.784
 9416WAT     H228491   2.080   6.887   9.864
 9417WAT      O28492   1.236   8.979   3.518
 9417WAT     H128493   1.230   8.883   3.492
 9417WAT     H228494   1.206   9.037   3.442
 9418WAT      O28495   8.119   5.911   9.060
 9418WAT     H128496   8.124   5.945   9.154
 9418WAT     H228497   8.063   5.828   9.058
 9419WAT      O28498   4.437   8.341   4.078
 9419WAT     H128499   4.473   8.396   4.003
 9419WAT     H228500   4.440   8.394   4.163
 9420WAT      O28501   6.237   2.755   3.218
 9420WAT     H128502   6.311   2.769   3.152
 9420WAT     H228503   6.272   2.708   3.299
 9421WAT      O28504   2.596   9.725   3.385
 9421WAT     H128505   2.596   9.625   3.388
 9421WAT     H228506   2.517   9.760   3.436
 9422WAT      O28507   7.414   1.661   7.084
 9422WAT     H128508   7.342   1.636   7.149
 9422WAT     H228509   7.503   1.628   7.118
 9423WAT      O28510   9.018   1.539   9.581
 9423WAT     H128511   9.068   1.496   9.506
 9423WAT     H228512   8.933   1.490   9.598
 9424WAT      O28513   2.553   1.878   0.484
 9424WAT     H128514   2.613   1.802   0.459
 9424WAT     H228515   2.494   1.849   0.560
 9425WAT      O28516   0.846   0.783   8.787
 9425WAT     H128517   0.921   0.763   8.849
 9425WAT     H228518   0.872   0.856   8.724
 9426WAT      O28519   0.014   4.512   7.271
 9426WAT     H128520  -0.018   4.543   7.182
 9426WAT     H228521   0.111   4.491   7.266
 9427WAT      O28522   6.605   0.502   3.719
 9427WAT     H128523   6.683   0.487   3.658
 9427WAT     H228524   6.571   0.414   3.752
 9428WAT      O28525   4.080   7.746   3.293
 9428WAT     H128526   4.108   7.829   3.342
 9428WAT     H228527   4.155   7.680   3.294
 9429WAT      O28528   1.908   3.497   1.298
 9429WAT     H128529   1.811   3.475   1.293
 9429WAT     H228530   1.923   3.564   1.371
 9430WAT      O28531   8.256   7.736   7.188
 9430WAT     H128532   8.181   7.784   7.142
 9430WAT     H228533   8.264   7.644   7.151
 9431WAT      O28534   7.459   6.037   8.352
 9431WAT     H128535   7.463   5.987   8.266
 9431WAT     H228536   7.511   5.988   8.422
 9432WAT      O28537   1.980   1.048   7.362
 9432WAT     H128538   2.045   1.034   7.438
 9432WAT     H228539   2.028   1.038   7.275
 9433WAT      O28540   6.217   7.174   0.161
 9433WAT     H128541   6.176   7.099   0.213
 9433WAT     H228542   6.195   7.163   0.064
 9434WAT      O28543   2.306   5.748   1.373
 9434WAT     H128544   2.300   5.831   1.319
 9434WAT     H228545   2.244   5.679   1.335
 9435WAT      O28546   2.714   3.526   9.726
 9435WAT     H128547   2.634   3.541   9.669
 9435WAT     H228548   2.693   3.457   9.795
 9436WAT      O28549   5.804   3.314   1.589
 9436WAT     H128550   5.808   3.330   1.687
 9436WAT     H228551   5.896   3.300   1.553
 9437WAT      O28552   3.897   8.034   0.536
 9437WAT     H128553   3.913   8.096   0.613
 9437WAT     H228554   3.904   8.087   0.450
 9438WAT      O28555   5.261   3.586   6.667
 9438WAT     H128556   5.326   3.573   6.742
 9438WAT     H228557   5.290   3.533   6.587
 9439WAT      O28558   9.765   3.926   8.193
 9439WAT     H128559   9.710   4.000   8.230
 9439WAT     H228560   9.798   3.867   8.267
 9440WAT      O28561   3.628   0.916   4.625
 9440WAT     H128562   3.664   0.986   4.687
 9440WAT     H228563   3.613   0.831   4.676
 9441WAT      O28564   4.408   4.739   1.364
 9441WAT     H128565   4.350   4.817   1.341
 9441WAT     H228566   4.376   4.658   1.315
 9442WAT      O28567   8.428   4.290   0.029
 9442WAT     H128568   8.491   4.300  -0.048
 9442WAT     H228569   8.473   4.322   0.113
 9443WAT      O28570   6.085   1.777   9.231
 9443WAT     H128571   6.123   1.822   9.150
 9443WAT     H228572   6.030   1.698   9.203
 9444WAT      O28573   6.941   3.468   0.071
 9444WAT     H128574   7.018   3.519   0.034
 9444WAT     H228575   6.857   3.495   0.025
 9445WAT      O28576   9.367   6.458   0.073
 9445WAT     H128577   9.383   6.464   0.171
 9445WAT     H228578   9.412   6.535   0.027
 9446WAT      O28579   6.636   7.697   2.441
 9446WAT     H128580   6.616   7.765   2.371
 9446WAT     H228581   6.579   7.616   2.425
 9447WAT      O28582   2.122   1.170   0.237
 9447WAT     H128583   2.220   1.182   0.256
 9447WAT     H228584   2.109   1.156   0.139
 9448WAT      O28585   6.773   0.571   9.484
 9448WAT     H128586   6.704   0.562   9.412
 9448WAT     H228587   6.858   0.608   9.445
 9449WAT      O28588   9.385   3.944   6.094
 9449WAT     H128589   9.299   3.940   6.143
 9449WAT     H228590   9.449   4.005   6.142
 9450WAT      O28591   8.666   7.158   6.128
 9450WAT     H128592   8.765   7.143   6.125
 9450WAT     H228593   8.646   7.244   6.174
 9451WAT      O28594   9.413   1.145   0.029
 9451WAT     H128595   9.472   1.089  -0.028
 9451WAT     H228596   9.339   1.182  -0.026
 9452WAT      O28597   1.442   9.768   1.160
 9452WAT     H128598   1.524   9.798   1.111
 9452WAT     H228599   1.379   9.724   1.097
 9453WAT      O28600   5.099   2.005   4.344
 9453WAT     H128601   5.088   1.906   4.349
 9453WAT     H228602   5.021   2.049   4.389
 9454WAT      O28603   4.062   3.750   0.725
 9454WAT     H128604   4.123   3.825   0.749
 9454WAT     H228605   4.027   3.763   0.632
 9455WAT      O28606   1.508   1.366   0.214
 9455WAT     H128607   1.563   1.450   0.214
 9455WAT     H228608   1.555   1.296   0.159
 9456WAT      O28609   4.353   9.487   3.638
 9456WAT     H128610   4.343   9.577   3.681
 9456WAT     H228611   4.444   9.450   3.658
 9457WAT      O28612   9.063   3.731   2.924
 9457WAT     H128613   9.146   3.689   2.961
 9457WAT     H228614   9.087   3.789   2.846
 9458WAT      O28615   7.414   6.290   4.686
 9458WAT     H128616   7.334   6.349   4.688
 9458WAT     H228617   7.453   6.284   4.778
 9459WAT      O28618   5.789   5.201   8.352
 9459WAT     H128619   5.835   5.204   8.441
 9459WAT     H228620   5.780   5.293   8.316
 9460WAT      O28621   8.950   8.673   1.340
 9460WAT     H128622   8.908   8.719   1.419
 9460WAT     H228623   9.024   8.730   1.304
 9461WAT      O28624   1.281   8.685   9.533
 9461WAT     H128625   1.284   8.587   9.555
 9461WAT     H228626   1.328   8.737   9.604
 9462WAT      O28627   6.290   3.080   7.175
 9462WAT     H128628   6.200   3.104   7.138
 9462WAT     H228629   6.308   3.136   7.256
 9463WAT      O28630   6.094   5.582   1.282
 9463WAT     H128631   6.113   5.531   1.198
 9463WAT     H228632   6.039   5.526   1.344
 9464WAT      O28633   5.549   6.253   5.084
 9464WAT     H128634   5.633   6.246   5.137
 9464WAT     H228635   5.498   6.334   5.112
 9465WAT      O28636   8.103   9.595   1.237
 9465WAT     H128637   8.192   9.550   1.235
 9465WAT     H228638   8.102   9.664   1.310
 9466WAT      O28639   1.749   3.907   9.456
 9466WAT     H128640   1.732   3.934   9.551
 9466WAT     H228641   1.775   3.811   9.453
 9467WAT      O28642   4.365   2.982   7.603
 9467WAT     H128643   4.418   3.004   7.685
 9467WAT     H228644   4.404   2.901   7.559
 9468WAT      O28645   5.084   3.540   1.770
 9468WAT     H128646   5.047   3.484   1.845
 9468WAT     H228647   5.177   3.569   1.793
 9469WAT      O28648   8.304   2.904   7.904
 9469WAT     H128649   8.224   2.858   7.867
 9469WAT     H228650   8.280   2.951   7.989
 9470WAT      O28651   7.541   9.725   7.183
 9470WAT     H128652   7.547   9.809   7.236
 9470WAT     H228653   7.448   9.715   7.146
 9471WAT      O28654   6.599   3.231   2.571
 9471WAT     H128655   6.606   3.330   2.569
 9471WAT     H228656   6.676   3.193   2.622
 9472WAT      O28657   9.812   8.440   5.391
 9472WAT     H128658   9.718   8.470   5.406
 9472WAT     H228659   9.812   8.351   5.345
 9473WAT      O28660   0.339   7.548   1.759
 9473WAT     H128661   0.268   7.487   1.792
 9473WAT     H228662   0.346   7.542   1.660
 9474WAT      O28663   8.499   8.114   9.184
 9474WAT     H128664   8.528   8.057   9.107
 9474WAT     H228665   8.438   8.186   9.152
 9475WAT      O28666   9.785   2.339   8.457
 9475WAT     H128667   9.719   2.283   8.507
 9475WAT     H228668   9.809   2.419   8.512
 9476WAT      O28669   2.810   1.265   4.960
 9476WAT     H128670   2.840   1.288   5.052
 9476WAT     H228671   2.745   1.333   4.928
 9477WAT      O28672   4.092   1.006   7.540
 9477WAT     H128673   4.006   1.054   7.559
 9477WAT     H228674   4.083   0.955   7.455
 9478WAT      O28675   3.776   7.799   2.931
 9478WAT     H128676   3.682   7.818   2.959
 9478WAT     H228677   3.792   7.838   2.840
 9479WAT      O28678   1.618   1.826   4.965
 9479WAT     H128679   1.688   1.764   5.000
 9479WAT     H228680   1.602   1.899   5.030
 9480WAT      O28681   6.537   3.340   1.112
 9480WAT     H128682   6.492   3.361   1.199
 9480WAT     H228683   6.471   3.297   1.050
 9481WAT      O28684   1.279   9.031   5.298
 9481WAT     H128685   1.211   9.055   5.367
 9481WAT     H228686   1.333   9.111   5.274
 9482WAT      O28687   5.013   7.638   9.169
 9482WAT     H128688   5.108   7.655   9.195
 9482WAT     H228689   4.955   7.648   9.250
 9483WAT      O28690   5.607   5.578   5.587
 9483WAT     H128691   5.589   5.662   5.536
 9483WAT     H228692   5.680   5.527   5.541
 9484WAT      O28693   1.506   2.404   1.616
 9484WAT     H128694   1.417   2.414   1.572
 9484WAT     H228695   1.511   2.464   1.696
 9485WAT      O28696   4.261   0.299   1.691
 9485WAT     H128697   4.348   0.345   1.675
 9485WAT     H228698   4.271   0.202   1.672
 9486WAT      O28699   8.765   3.781   2.954
 9486WAT     H128700   8.765   3.860   2.892
 9486WAT     H228701   8.856   3.739   2.955
 9487WAT      O28702   6.262   3.903   3.365
 9487WAT     H128703   6.348   3.907   3.415
 9487WAT     H228704   6.223   3.995   3.357
 9488WAT      O28705   0.761   9.561   7.538
 9488WAT     H128706   0.775   9.491   7.468
 9488WAT     H228707   0.767   9.519   7.629
 9489WAT      O28708   8.628   3.104   5.287
 9489WAT     H128709   8.721   3.095   5.324
 9489WAT     H228710   8.576   3.022   5.309
 9490WAT      O28711   5.705   6.136   2.454
 9490WAT     H128712   5.707   6.205   2.526
 9490WAT     H228713   5.696   6.181   2.365
 9491WAT      O28714   4.378   2.405   0.163
 9491WAT     H128715   4.413   2.362   0.246
 9491WAT     H228716   4.290   2.448   0.182
 9492WAT      O28717   8.913   3.275   6.818
 9492WAT     H128718   8.936   3.357   6.764
 9492WAT     H228719   8.959   3.196   6.779
 9493WAT      O28720   7.266   8.552   8.692
 9493WAT     H128721   7.184   8.582   8.742
 9493WAT     H228722   7.327   8.504   8.754
 9494WAT      O28723   3.560   7.114   1.823
 9494WAT     H128724   3.595   7.105   1.730
 9494WAT     H228725   3.588   7.035   1.877
 9495WAT      O28726   7.907   6.338   7.926
 9495WAT     H128727   7.932   6.259   7.871
 9495WAT     H228728   7.924   6.318   8.022
 9496WAT      O28729   6.163   0.289   7.960
 9496WAT     H128730   6.248   0.316   8.006
 9496WAT     H228731   6.120   0.215   8.011
 9497WAT      O28732   9.702   9.251   0.418
 9497WAT     H128733   9.802   9.244   0.413
 9497WAT     H228734   9.677   9.327   0.477
 9498WAT      O28735   1.544   2.911   0.006
 9498WAT     H128736   1.580   2.819  -0.010
 9498WAT     H228737   1.613   2.978  -0.020
 9499WAT      O28738   2.094   1.944   9.154
 9499WAT     H128739   2.027   1.986   9.215
 9499WAT     H228740   2.162   1.895   9.208
 9500WAT      O28741   8.151   5.144   3.148
 9500WAT     H128742   8.172   5.047   3.156
 9500WAT     H228743   8.218   5.197   3.202
 9501WAT      O28744   4.935   6.995   1.622
 9501WAT     H128745   5.012   7.008   1.559
 9501WAT     H228746   4.945   6.908   1.670
 9502WAT      O28747   8.334   1.549   7.493
 9502WAT     H128748   8.280   1.570   7.574
 9502WAT     H228749   8.328   1.451   7.472
 9503WAT      O28750   3.958   1.236   5.545
 9503WAT     H128751   3.955   1.148   5.593
 9503WAT     H228752   4.029   1.233   5.475
 9504WAT      O28753   4.588   8.043   1.503
 9504WAT     H128754   4.499   7.998   1.514
 9504WAT     H228755   4.599   8.112   1.575
 9505WAT      O28756   3.411   5.644   1.183
 9505WAT     H128757   3.462   5.564   1.214
 9505WAT     H228758   3.337   5.663   1.247
 9506WAT      O28759   8.875   0.956   6.360
 9506WAT     H128760   8.789   0.938   6.311
 9506WAT     H228761   8.885   0.889   6.433
 9507WAT      O28762   8.268   6.543   3.689
 9507WAT     H128763   8.259   6.536   3.590
 9507WAT     H228764   8.201   6.483   3.733
 9508WAT      O28765   5.301   1.059   3.328
 9508WAT     H128766   5.229   1.057   3.397
 9508WAT     H228767   5.316   0.967   3.292
 9509WAT      O28768   6.006   4.410   3.079
 9509WAT     H128769   6.009   4.311   3.095
 9509WAT     H228770   6.003   4.427   2.980
 9510WAT      O28771   7.151   7.123   1.840
 9510WAT     H128772   7.124   7.132   1.744
 9510WAT     H228773   7.243   7.084   1.846
 9511WAT      O28774   1.761   5.980   4.657
 9511WAT     H128775   1.757   5.991   4.558
 9511WAT     H228776   1.824   6.049   4.695
 9512WAT      O28777   3.215   4.369   3.546
 9512WAT     H128778   3.133   4.319   3.520
 9512WAT     H228779   3.267   4.316   3.613
 9513WAT      O28780   9.018   2.857   0.502
 9513WAT     H128781   9.060   2.772   0.469
 9513WAT     H228782   9.066   2.887   0.585
 9514WAT      O28783   6.694   3.041   7.591
 9514WAT     H128784   6.741   3.070   7.508
 9514WAT     H228785   6.684   2.942   7.592
 9515WAT      O28786   6.594   3.960   5.591
 9515WAT     H128787   6.646   3.994   5.670
 9515WAT     H228788   6.512   3.912   5.623
 9516WAT      O28789   4.774   1.738   6.563
 9516WAT     H128790   4.695   1.717   6.504
 9516WAT     H228791   4.849   1.676   6.541
 9517WAT      O28792   9.874   1.103   0.003
 9517WAT     H128793   9.802   1.127   0.068
 9517WAT     H228794   9.883   1.004  -0.001
 9518WAT      O28795   4.736   8.943   0.339
 9518WAT     H128796   4.788   9.003   0.400
 9518WAT     H228797   4.688   8.998   0.270
 9519WAT      O28798   1.821   6.375   9.056
 9519WAT     H128799   1.853   6.288   9.018
 9519WAT     H228800   1.838   6.376   9.154
 9520WAT      O28801   5.480   2.658   0.585
 9520WAT     H128802   5.521   2.659   0.676
 9520WAT     H228803   5.383   2.679   0.591
 9521WAT      O28804   7.121   9.379   2.434
 9521WAT     H128805   7.151   9.469   2.403
 9521WAT     H228806   7.089   9.325   2.356
 9522WAT      O28807   9.806   2.084   2.906
 9522WAT     H128808   9.774   2.167   2.860
 9522WAT     H228809   9.850   2.024   2.839
 9523WAT      O28810   2.717   9.489   8.036
 9523WAT     H128811   2.759   9.573   8.069
 9523WAT     H228812   2.623   9.482   8.070
 9524WAT      O28813   3.283   3.641   3.978
 9524WAT     H128814   3.259   3.609   3.887
 9524WAT     H228815   3.382   3.653   3.985
 9525WAT      O28816   0.950   5.569   7.100
 9525WAT     H128817   1.048   5.552   7.109
 9525WAT     H228818   0.916   5.610   7.184
 9526WAT      O28819   3.665   0.895   3.244
 9526WAT     H128820   3.759   0.913   3.217
 9526WAT     H228821   3.631   0.972   3.299
 9527WAT      O28822   0.274   3.556   5.415
 9527WAT     H128823   0.219   3.506   5.482
 9527WAT     H228824   0.372   3.544   5.436
 9528WAT      O28825   8.452   6.584   6.047
 9528WAT     H128826   8.470   6.608   6.142
 9528WAT     H228827   8.441   6.668   5.993
 9529WAT      O28828   4.825   7.242   2.963
 9529WAT     H128829   4.753   7.243   3.033
 9529WAT     H228830   4.886   7.165   2.979
 9530WAT      O28831   1.166   4.592   2.186
 9530WAT     H128832   1.117   4.530   2.125
 9530WAT     H228833   1.104   4.624   2.257
 9531WAT      O28834   4.669   4.440   2.402
 9531WAT     H128835   4.579   4.460   2.364
 9531WAT     H228836   4.663   4.432   2.501
 9532WAT      O28837   9.755   8.010   5.191
 9532WAT     H128838   9.776   8.013   5.093
 9532WAT     H228839   9.827   8.056   5.242
 9533WAT      O28840   1.792   2.213   3.204
 9533WAT     H128841   1.876   2.179   3.246
 9533WAT     H228842   1.713   2.187   3.260
 9534WAT      O28843   1.136   7.331   1.675
 9534WAT     H128844   1.062   7.356   1.738
 9534WAT     H228845   1.176   7.413   1.635
 9535WAT      O28846   8.032   4.158   1.226
 9535WAT     H128847   8.086   4.088   1.179
 9535WAT     H228848   8.089   4.238   1.241
 9536WAT      O28849   4.592   3.665   7.606
 9536WAT     H128850   4.609   3.567   7.611
 9536WAT     H228851   4.652   3.706   7.538
 9537WAT      O28852   8.797   1.758   6.207
 9537WAT     H128853   8.808   1.831   6.139
 9537WAT     H228854   8.700   1.745   6.226
 9538WAT      O28855   2.670   8.185   3.034
 9538WAT     H128856   2.655   8.190   2.936
 9538WAT     H228857   2.699   8.274   3.068
 9539WAT      O28858   0.287   3.821   1.533
 9539WAT     H128859   0.207   3.855   1.583
 9539WAT     H228860   0.334   3.752   1.588
 9540WAT      O28861   9.409   8.478   7.901
 9540WAT     H128862   9.477   8.438   7.840
 9540WAT     H228863   9.413   8.433   7.990
 9541WAT      O28864   2.387   9.414   1.938
 9541WAT     H128865   2.368   9.512   1.929
 9541WAT     H228866   2.309   9.368   1.979
 9542WAT      O28867   4.932   7.245   9.277
 9542WAT     H128868   4.928   7.147   9.261
 9542WAT     H228869   4.930   7.293   9.189
 9543WAT      O28870   4.481   1.807   9.846
 9543WAT     H128871   4.564   1.792   9.900
 9543WAT     H228872   4.421   1.869   9.895
 9544WAT      O28873   5.011   1.329   2.633
 9544WAT     H128874   4.943   1.368   2.696
 9544WAT     H228875   5.029   1.393   2.559
 9545WAT      O28876   1.009   8.083   7.559
 9545WAT     H128877   1.098   8.042   7.580
 9545WAT     H228878   0.961   8.025   7.493
 9546WAT      O28879   9.019   5.524   2.702
 9546WAT     H128880   8.966   5.474   2.634
 9546WAT     H228881   8.980   5.508   2.793
 9547WAT      O28882   9.745   3.566   4.717
 9547WAT     H128883   9.709   3.594   4.805
 9547WAT     H228884   9.831   3.516   4.730
 9548WAT      O28885   2.145   5.037   5.076
 9548WAT     H128886   2.220   5.096   5.046
 9548WAT     H228887   2.118   4.976   5.001
 9549WAT      O28888   1.145   0.493   2.581
 9549WAT     H128889   1.205   0.432   2.528
 9549WAT     H228890   1.174   0.494   2.677
 9550WAT      O28891   9.599   8.409   0.199
 9550WAT     H128892   9.610   8.376   0.293
 9550WAT     H228893   9.677   8.378   0.144
 9551WAT      O28894   1.706   0.365   6.541
 9551WAT     H128895   1.663   0.286   6.586
 9551WAT     H228896   1.675   0.371   6.446
 9552WAT      O28897   0.119   1.329   9.013
 9552WAT     H128898   0.062   1.392   8.959
 9552WAT     H228899   0.213   1.331   8.979
 9553WAT      O28900   3.730   5.640   8.458
 9553WAT     H128901   3.801   5.701   8.423
 9553WAT     H228902   3.726   5.558   8.401
 9554WAT      O28903   9.831   3.237   3.870
 9554WAT     H128904   9.851   3.160   3.808
 9554WAT     H228905   9.756   3.212   3.931
 9555WAT      O28906   3.751   8.617   6.633
 9555WAT     H128907   3.731   8.525   6.602
 9555WAT     H228908   3.850   8.627   6.648
 9556WAT      O28909   3.774   2.408   3.771
 9556WAT     H128910   3.725   2.366   3.847
 9556WAT     H228911   3.736   2.499   3.753
 9557WAT      O28912   0.255   8.363   7.730
 9557WAT     H128913   0.162   8.358   7.693
 9557WAT     H228914   0.298   8.448   7.702
 9558WAT      O28915   1.647   3.340   2.645
 9558WAT     H128916   1.621   3.368   2.737
 9558WAT     H228917   1.702   3.412   2.602
 9559WAT      O28918   8.535   0.807   6.852
 9559WAT     H128919   8.552   0.901   6.824
 9559WAT     H228920   8.532   0.748   6.772
 9560WAT      O28921   6.959   8.333   9.059
 9560WAT     H128922   7.057   8.335   9.038
 9560WAT     H228923   6.922   8.243   9.039
 9561WAT      O28924   2.213   1.497   8.469
 9561WAT     H128925   2.121   1.525   8.497
 9561WAT     H228926   2.220   1.501   8.369
 9562WAT      O28927   5.641   4.575   8.639
 9562WAT     H128928   5.688   4.658   8.610
 9562WAT     H228929   5.694   4.529   8.711
 9563WAT      O28930   2.453   3.697   7.197
 9563WAT     H128931   2.532   3.737   7.243
 9563WAT     H228932   2.373   3.756   7.211
 9564WAT      O28933   2.337   6.900   0.384
 9564WAT     H128934   2.264   6.912   0.451
 9564WAT     H228935   2.310   6.830   0.317
 9565WAT      O28936   0.404   6.461   3.454
 9565WAT     H128937   0.420   6.554   3.489
 9565WAT     H228938   0.486   6.406   3.465
 9566WAT      O28939   4.604   1.563   2.715
 9566WAT     H128940   4.695   1.589   2.682
 9566WAT     H228941   4.588   1.604   2.804
 9567WAT      O28942   7.480   8.267   8.622
 9567WAT     H128943   7.393   8.291   8.666
 9567WAT     H228944   7.545   8.235   8.691
 9568WAT      O28945   6.025   1.423   5.024
 9568WAT     H128946   6.083   1.374   4.959
 9568WAT     H228947   5.938   1.377   5.034
 9569WAT      O28948   0.375   8.645   2.230
 9569WAT     H128949   0.339   8.587   2.158
 9569WAT     H228950   0.300   8.685   2.283
 9570WAT      O28951   8.281   4.258   0.891
 9570WAT     H128952   8.185   4.249   0.865
 9570WAT     H228953   8.319   4.169   0.914
 9571WAT      O28954   7.343   8.216   7.239
 9571WAT     H128955   7.304   8.127   7.215
 9571WAT     H228956   7.405   8.246   7.167
 9572WAT      O28957   1.546   8.962   6.109
 9572WAT     H128958   1.588   9.005   6.029
 9572WAT     H228959   1.595   8.990   6.191
 9573WAT      O28960   2.401   6.497   8.317
 9573WAT     H128961   2.415   6.405   8.353
 9573WAT     H228962   2.484   6.551   8.331
 9574WAT      O28963   1.000   9.437   9.142
 9574WAT     H128964   0.912   9.453   9.187
 9574WAT     H228965   1.072   9.432   9.211
 9575WAT      O28966   2.021   5.226   5.463
 9575WAT     H128967   2.076   5.175   5.528
 9575WAT     H228968   1.995   5.167   5.387
 9576WAT      O28969   5.820   8.732   9.404
 9576WAT     H128970   5.820   8.832   9.397
 9576WAT     H228971   5.816   8.692   9.313
 9577WAT      O28972   6.660   4.527   1.039
 9577WAT     H128973   6.663   4.432   1.071
 9577WAT     H228974   6.652   4.528   0.939
 9578WAT      O28975   8.525   8.967   3.767
 9578WAT     H128976   8.552   9.063   3.759
 9578WAT     H228977   8.607   8.909   3.770
 9579WAT      O28978   0.983   4.007   9.422
 9579WAT     H128979   1.073   4.022   9.382
 9579WAT     H228980   0.993   3.969   9.515
 9580WAT      O28981   4.689   3.472   4.897
 9580WAT     H128982   4.640   3.385   4.898
 9580WAT     H228983   4.624   3.547   4.907
 9581WAT      O28984   7.889   2.646   7.052
 9581WAT     H128985   7.858   2.683   6.965
 9581WAT     H228986   7.817   2.656   7.121
 9582WAT      O28987   5.572   8.009   8.039
 9582WAT     H128988   5.643   8.061   7.991
 9582WAT     H228989   5.521   8.071   8.099
 9583WAT      O28990   7.501   4.798   5.422
 9583WAT     H128991   7.445   4.878   5.402
 9583WAT     H228992   7.598   4.822   5.413
 9584WAT      O28993   1.154   0.139   6.299
 9584WAT     H128994   1.237   0.183   6.333
 9584WAT     H228995   1.138   0.054   6.349
 9585WAT      O28996   4.794   7.423   3.860
 9585WAT     H128997   4.893   7.419   3.871
 9585WAT     H228998   4.764   7.519   3.855
 9586WAT      O28999   7.031   1.466   6.993
 9586WAT     H129000   7.045   1.565   6.994
 9586WAT     H229001   6.982   1.441   6.909
 9587WAT      O29002   4.793   0.939   7.951
 9587WAT     H129003   4.742   0.900   8.028
 9587WAT     H229004   4.778   0.883   7.870
 9588WAT      O29005   8.702   6.590   3.667
 9588WAT     H129006   8.782   6.621   3.717
 9588WAT     H229007   8.627   6.656   3.680
 9589WAT      O29008   3.833   0.813   9.088
 9589WAT     H129009   3.804   0.718   9.080
 9589WAT     H229010   3.868   0.845   9.000
 9590WAT      O29011   7.855   6.251   1.954
 9590WAT     H129012   7.825   6.345   1.972
 9590WAT     H229013   7.864   6.238   1.855
 9591WAT      O29014   3.963   1.502   4.243
 9591WAT     H129015   3.899   1.474   4.172
 9591WAT     H229016   3.935   1.591   4.279
 9592WAT      O29017   2.714   3.446   0.536
 9592WAT     H129018   2.809   3.472   0.515
 9592WAT     H229019   2.712   3.352   0.571
 9593WAT      O29020   7.867   3.639   1.507
 9593WAT     H129021   7.899   3.734   1.519
 9593WAT     H229022   7.906   3.582   1.580
 9594WAT      O29023   7.369   9.075   1.821
 9594WAT     H129024   7.412   9.160   1.791
 9594WAT     H229025   7.441   9.008   1.843
 9595WAT      O29026   0.744   6.463   2.008
 9595WAT     H129027   0.682   6.542   2.004
 9595WAT     H229028   0.707   6.390   1.950
 9596WAT      O29029   6.855   2.002   1.575
 9596WAT     H129030   6.919   1.994   1.498
 9596WAT     H229031   6.874   1.930   1.642
 9597WAT      O29032   9.207   7.787   2.488
 9597WAT     H129033   9.221   7.850   2.564
 9597WAT     H229034   9.208   7.837   2.402
 9598WAT      O29035   9.214   0.098   9.667
 9598WAT     H129036   9.136   0.060   9.618
 9598WAT     H229037   9.288   0.031   9.669
 9599WAT      O29038   2.199   3.029   8.721
 9599WAT     H129039   2.190   2.933   8.696
 9599WAT     H229040   2.128   3.053   8.787
 9600WAT      O29041   1.506   3.030   5.867
 9600WAT     H129042   1.543   3.072   5.784
 9600WAT     H229043   1.406   3.037   5.866
 9601WAT      O29044   3.820   7.418   5.592
 9601WAT     H129045   3.760   7.468   5.655
 9601WAT     H229046   3.889   7.369   5.645
 9602WAT      O29047   5.382   8.325   0.411
 9602WAT     H129048   5.339   8.297   0.325
 9602WAT     H229049   5.367   8.423   0.425
 9603WAT      O29050   6.734   1.164   5.001
 9603WAT     H129051   6.702   1.221   4.925
 9603WAT     H229052   6.709   1.208   5.088
 9604WAT      O29053   4.299   0.492   8.664
 9604WAT     H129054   4.284   0.525   8.570
 9604WAT     H229055   4.232   0.533   8.725
 9605WAT      O29056   2.148   6.137   5.985
 9605WAT     H129057   2.223   6.129   5.920
 9605WAT     H229058   2.072   6.187   5.943
 9606WAT      O29059   9.056   9.063   8.790
 9606WAT     H129060   9.146   9.065   8.748
 9606WAT     H229061   9.048   8.981   8.848
 9607WAT      O29062   3.370   3.693   1.268
 9607WAT     H129063   3.379   3.656   1.361
 9607WAT     H229064   3.460   3.710   1.230
 9608WAT      O29065   5.467   8.167   1.580
 9608WAT     H129066   5.551   8.200   1.536
 9608WAT     H229067   5.458   8.068   1.565
 9609WAT      O29068   1.138   1.934   0.693
 9609WAT     H129069   1.042   1.940   0.721
 9609WAT     H229070   1.144   1.891   0.603
 9610WAT      O29071   9.047   6.869   8.715
 9610WAT     H129072   8.996   6.902   8.636
 9610WAT     H229073   9.062   6.770   8.706
 9611WAT      O29074   2.441   5.169   1.703
 9611WAT     H129075   2.479   5.079   1.683
 9611WAT     H229076   2.499   5.239   1.661
 9612WAT      O29077   4.604   6.189   9.555
 9612WAT     H129078   4.546   6.195   9.474
 9612WAT     H229079   4.679   6.124   9.538
 9613WAT      O29080   0.711   7.176   2.098
 9613WAT     H129081   0.623   7.159   2.142
 9613WAT     H229082   0.760   7.090   2.085
 9614WAT      O29083   3.170   6.226   4.263
 9614WAT     H129084   3.144   6.234   4.360
 9614WAT     H229085   3.140   6.308   4.214
 9615WAT      O29086   3.405   6.079   3.875
 9615WAT     H129087   3.459   6.065   3.958
 9615WAT     H229088   3.323   6.131   3.898
 9616WAT      O29089   9.724   1.092   5.719
 9616WAT     H129090   9.639   1.078   5.769
 9616WAT     H229091   9.752   1.006   5.675
 9617WAT      O29092   6.038   0.580   9.154
 9617WAT     H129093   6.055   0.535   9.066
 9617WAT     H229094   6.071   0.522   9.228
 9618WAT      O29095   6.993   6.510   6.692
 9618WAT     H129096   6.960   6.603   6.707
 9618WAT     H229097   7.059   6.486   6.764
 9619WAT      O29098   6.114   9.387   0.733
 9619WAT     H129099   6.212   9.377   0.751
 9619WAT     H229100   6.081   9.306   0.685
 9620WAT      O29101   0.035   8.636   7.234
 9620WAT     H129102   0.024   8.592   7.145
 9620WAT     H229103  -0.039   8.605   7.295
 9621WAT      O29104   1.364   4.005   7.666
 9621WAT     H129105   1.303   3.948   7.612
 9621WAT     H229106   1.425   3.947   7.720
 9622WAT      O29107   9.076   2.696   3.901
 9622WAT     H129108   8.984   2.733   3.896
 9622WAT     H229109   9.074   2.604   3.941
 9623WAT      O29110   4.808   6.452   7.088
 9623WAT     H129111   4.787   6.368   7.038
 9623WAT     H229112   4.896   6.443   7.134
 9624WAT      O29113   0.753   9.672   5.296
 9624WAT     H129114   0.661   9.653   5.331
 9624WAT     H229115   0.810   9.591   5.308
 9625WAT      O29116   6.861   4.574   8.002
 9625WAT     H129117   6.771   4.591   8.044
 9625WAT     H229118   6.931   4.573   8.074
 9626WAT      O29119   4.198   1.702   9.733
 9626WAT     H129120   4.226   1.755   9.652
 9626WAT     H229121   4.264   1.630   9.750
 9627WAT      O29122   6.730   0.431   8.415
 9627WAT     H129123   6.737   0.512   8.473
 9627WAT     H229124   6.635   0.400   8.413
 9628WAT      O29125   5.257   0.914   5.387
 9628WAT     H129126   5.290   0.981   5.321
 9628WAT     H229127   5.235   0.829   5.339
 9629WAT      O29128   3.188   6.078   6.278
 9629WAT     H129129   3.284   6.074   6.306
 9629WAT     H229130   3.168   6.003   6.216
 9630WAT      O29131   6.175   6.840   1.604
 9630WAT     H129132   6.197   6.764   1.542
 9630WAT     H229133   6.096   6.890   1.569
 9631WAT      O29134   0.480   8.105   3.354
 9631WAT     H129135   0.500   8.038   3.283
 9631WAT     H229136   0.548   8.179   3.350
 9632WAT      O29137   6.537   7.357   3.509
 9632WAT     H129138   6.553   7.455   3.513
 9632WAT     H229139   6.611   7.313   3.458
 9633WAT      O29140   4.240   1.546   1.115
 9633WAT     H129141   4.174   1.591   1.175
 9633WAT     H229142   4.256   1.603   1.035
 9634WAT      O29143   3.707   7.823   5.064
 9634WAT     H129144   3.743   7.824   4.970
 9634WAT     H229145   3.637   7.894   5.074
 9635WAT      O29146   6.772   3.558   1.432
 9635WAT     H129147   6.817   3.523   1.350
 9635WAT     H229148   6.730   3.482   1.482
 9636WAT      O29149   8.697   5.376   8.319
 9636WAT     H129150   8.769   5.306   8.320
 9636WAT     H229151   8.621   5.343   8.264
 9637WAT      O29152   0.149   4.592   7.610
 9637WAT     H129153   0.117   4.575   7.703
 9637WAT     H229154   0.150   4.691   7.594
 9638WAT      O29155   4.948   7.473   0.599
 9638WAT     H129156   4.993   7.555   0.562
 9638WAT     H229157   4.856   7.466   0.561
 9639WAT      O29158   8.742   0.109   6.162
 9639WAT     H129159   8.715   0.187   6.218
 9639WAT     H229160   8.733   0.133   6.065
 9640WAT      O29161   5.825   5.402   2.727
 9640WAT     H129162   5.897   5.334   2.718
 9640WAT     H229163   5.813   5.424   2.824
 9641WAT      O29164   8.081   5.295   4.531
 9641WAT     H129165   7.997   5.307   4.584
 9641WAT     H229166   8.088   5.368   4.463
 9642WAT      O29167   3.748   7.444   2.673
 9642WAT     H129168   3.827   7.489   2.633
 9642WAT     H229169   3.733   7.478   2.766
 9643WAT      O29170   6.684   9.635   2.253
 9643WAT     H129171   6.683   9.700   2.329
 9643WAT     H229172   6.776   9.597   2.244
 9644WAT      O29173   2.054   8.932   0.175
 9644WAT     H129174   2.118   8.855   0.167
 9644WAT     H229175   2.053   8.984   0.089
 9645WAT      O29176   1.188   1.449   6.723
 9645WAT     H129177   1.159   1.544   6.728
 9645WAT     H229178   1.164   1.411   6.633
 9646WAT      O29179   7.082   6.303   5.674
 9646WAT     H129180   7.136   6.242   5.732
 9646WAT     H229181   7.083   6.395   5.713
 9647WAT      O29182   9.033   2.352   0.219
 9647WAT     H129183   8.984   2.350   0.306
 9647WAT     H229184   9.122   2.307   0.230
 9648WAT      O29185   3.086   9.501   6.237
 9648WAT     H129186   3.028   9.493   6.318
 9648WAT     H229187   3.029   9.493   6.155
 9649WAT      O29188   0.156   7.224   9.406
 9649WAT     H129189   0.074   7.265   9.447
 9649WAT     H229190   0.186   7.279   9.328
 9650WAT      O29191   0.153   9.786   0.890
 9650WAT     H129192   0.175   9.880   0.915
 9650WAT     H229193   0.120   9.737   0.971
 9651WAT      O29194   4.052   6.299   0.219
 9651WAT     H129195   4.020   6.294   0.124
 9651WAT     H229196   4.048   6.208   0.260
 9652WAT      O29197   4.723   4.502   8.597
 9652WAT     H129198   4.696   4.583   8.543
 9652WAT     H229199   4.796   4.527   8.660
 9653WAT      O29200   4.331   0.015   6.643
 9653WAT     H129201   4.286   0.096   6.604
 9653WAT     H229202   4.298   0.001   6.736
 9654WAT      O29203   5.943   3.325   6.789
 9654WAT     H129204   5.863   3.278   6.752
 9654WAT     H229205   5.959   3.409   6.738
 9655WAT      O29206   6.021   3.415   2.402
 9655WAT     H129207   5.991   3.506   2.430
 9655WAT     H229208   6.031   3.413   2.302
 9656WAT      O29209   7.437   3.409   9.684
 9656WAT     H129210   7.409   3.333   9.743
 9656WAT     H229211   7.366   3.480   9.685
 9657WAT      O29212   7.781   8.851   7.190
 9657WAT     H129213   7.826   8.842   7.101
 9657WAT     H229214   7.850   8.854   7.262
 9658WAT      O29215   3.870   2.573   7.824
 9658WAT     H129216   3.952   2.539   7.778
 9658WAT     H229217   3.821   2.497   7.865
 9659WAT      O29218   5.315   9.409   3.725
 9659WAT     H129219   5.412   9.411   3.703
 9659WAT     H229220   5.276   9.321   3.697
 9660WAT      O29221   0.804   2.185   4.197
 9660WAT     H129222   0.779   2.232   4.112
 9660WAT     H229223   0.722   2.169   4.252
 9661WAT      O29224   7.301   1.628   4.722
 9661WAT     H129225   7.225   1.693   4.731
 9661WAT     H229226   7.322   1.589   4.811
 9662WAT      O29227   3.795   2.674   1.682
 9662WAT     H129228   3.754   2.765   1.693
 9662WAT     H229229   3.722   2.606   1.678
 9663WAT      O29230   2.361   7.445   8.346
 9663WAT     H129231   2.380   7.479   8.254
 9663WAT     H229232   2.412   7.361   8.362
 9664WAT      O29233   0.045   3.338   2.055
 9664WAT     H129234   0.054   3.437   2.044
 9664WAT     H229235   0.037   3.296   1.965
 9665WAT      O29236   5.409   0.007   1.745
 9665WAT     H129237   5.332   0.011   1.682
 9665WAT     H229238   5.493   0.031   1.696
 9666WAT      O29239   7.380   4.316   3.842
 9666WAT     H129240   7.415   4.329   3.935
 9666WAT     H229241   7.453   4.278   3.784
 9667WAT      O29242   4.883   0.167   6.100
 9667WAT     H129243   4.876   0.178   6.200
 9667WAT     H229244   4.979   0.154   6.075
 9668WAT      O29245   0.407   7.278   3.673
 9668WAT     H129246   0.501   7.262   3.644
 9668WAT     H229247   0.353   7.308   3.595
 9669WAT      O29248   5.286   2.101   0.793
 9669WAT     H129249   5.212   2.059   0.740
 9669WAT     H229250   5.267   2.090   0.891
 9670WAT      O29251   4.918   5.889   6.012
 9670WAT     H129252   4.946   5.873   6.106
 9670WAT     H229253   4.854   5.966   6.009
 9671WAT      O29254   1.186   1.600   6.455
 9671WAT     H129255   1.178   1.699   6.448
 9671WAT     H229256   1.242   1.566   6.379
 9672WAT      O29257   6.955   2.567   9.715
 9672WAT     H129258   7.011   2.605   9.789
 9672WAT     H229259   6.858   2.576   9.738
 9673WAT      O29260   4.407   0.788   4.815
 9673WAT     H129261   4.407   0.778   4.715
 9673WAT     H229262   4.433   0.701   4.857
 9674WAT      O29263   1.664   4.916   8.277
 9674WAT     H129264   1.749   4.870   8.304
 9674WAT     H229265   1.648   4.902   8.179
 9675WAT      O29266   4.012   6.980   8.577
 9675WAT     H129267   4.056   6.968   8.666
 9675WAT     H229268   4.026   6.899   8.521
 9676WAT      O29269   9.399   6.199   2.343
 9676WAT     H129270   9.374   6.281   2.395
 9676WAT     H229271   9.484   6.216   2.294
 9677WAT      O29272   3.309   5.493   9.498
 9677WAT     H129273   3.396   5.485   9.546
 9677WAT     H229274   3.316   5.564   9.428
 9678WAT      O29275   1.258   3.955   9.863
 9678WAT     H129276   1.289   3.868   9.902
 9678WAT     H229277   1.336   4.003   9.824
 9679WAT      O29278   3.968   3.886   2.758
 9679WAT     H129279   4.019   3.907   2.842
 9679WAT     H229280   3.992   3.952   2.687
 9680WAT      O29281   2.227   9.518   3.855
 9680WAT     H129282   2.308   9.554   3.901
 9680WAT     H229283   2.203   9.429   3.895
 9681WAT      O29284   2.127   0.694   7.561
 9681WAT     H129285   2.133   0.739   7.650
 9681WAT     H229286   2.196   0.733   7.499
 9682WAT      O29287   2.928   3.651   8.489
 9682WAT     H129288   2.939   3.692   8.398
 9682WAT     H229289   2.833   3.625   8.503
 9683WAT      O29290   1.465   3.162   8.008
 9683WAT     H129291   1.371   3.142   8.034
 9683WAT     H229292   1.504   3.082   7.962
 9684WAT      O29293   9.664   4.303   5.737
 9684WAT     H129294   9.719   4.229   5.776
 9684WAT     H229295   9.716   4.349   5.666
 9685WAT      O29296   4.610   0.496   0.360
 9685WAT     H129297   4.667   0.575   0.341
 9685WAT     H229298   4.668   0.418   0.384
 9686WAT      O29299   1.323   6.875   9.541
 9686WAT     H129300   1.275   6.962   9.530
 9686WAT     H229301   1.418   6.893   9.567
 9687WAT      O29302   4.866   1.908   0.744
 9687WAT     H129303   4.841   1.819   0.707
 9687WAT     H229304   4.924   1.895   0.825
 9688WAT      O29305   7.117   6.608   2.879
 9688WAT     H129306   7.029   6.647   2.854
 9688WAT     H229307   7.140   6.534   2.817
 9689WAT      O29308   2.049   8.817   7.692
 9689WAT     H129309   1.976   8.822   7.760
 9689WAT     H229310   2.128   8.770   7.733
 9690WAT      O29311   7.022   9.067   7.587
 9690WAT     H129312   7.016   9.167   7.581
 9690WAT     H229313   6.940   9.026   7.546
 9691WAT      O29314   0.204   3.635   5.780
 9691WAT     H129315   0.209   3.539   5.809
 9691WAT     H229316   0.265   3.690   5.837
 9692WAT      O29317   3.752   8.912   6.945
 9692WAT     H129318   3.819   8.961   6.889
 9692WAT     H229319   3.673   8.972   6.963
 9693WAT      O29320   3.825   3.324   1.519
 9693WAT     H129321   3.800   3.353   1.611
 9693WAT     H229322   3.749   3.272   1.479
 9694WAT      O29323   9.697   1.393   9.312
 9694WAT     H129324   9.782   1.357   9.349
 9694WAT     H229325   9.718   1.466   9.246
 9695WAT      O29326   1.850   3.589   8.893
 9695WAT     H129327   1.870   3.497   8.929
 9695WAT     H229328   1.789   3.581   8.814
 9696WAT      O29329   4.908   3.515   5.025
 9696WAT     H129330   4.880   3.589   5.086
 9696WAT     H229331   4.831   3.490   4.966
 9697WAT      O29332   0.625   5.955   5.255
 9697WAT     H129333   0.615   6.052   5.277
 9697WAT     H229334   0.720   5.935   5.234
 9698WAT      O29335   5.621   2.118   2.254
 9698WAT     H129336   5.696   2.096   2.316
 9698WAT     H229337   5.588   2.035   2.210
 9699WAT      O29338   8.096   9.430   0.742
 9699WAT     H129339   8.157   9.392   0.811
 9699WAT     H229340   8.129   9.403   0.651
 9700WAT      O29341   1.522   7.366   0.259
 9700WAT     H129342   1.608   7.388   0.214
 9700WAT     H229343   1.487   7.278   0.225
 9701WAT      O29344   0.220   4.368   0.754
 9701WAT     H129345   0.224   4.468   0.751
 9701WAT     H229346   0.136   4.340   0.800
 9702WAT      O29347   0.920   1.622   8.638
 9702WAT     H129348   0.861   1.598   8.561
 9702WAT     H229349   0.927   1.722   8.645
 9703WAT      O29350   0.529   1.261   9.113
 9703WAT     H129351   0.486   1.171   9.103
 9703WAT     H229352   0.622   1.257   9.076
 9704WAT      O29353   2.986   2.294   5.149
 9704WAT     H129354   3.010   2.390   5.131
 9704WAT     H229355   2.910   2.268   5.089
 9705WAT      O29356   7.683   3.228   7.722
 9705WAT     H129357   7.710   3.187   7.809
 9705WAT     H229358   7.729   3.180   7.647
 9706WAT      O29359   2.202   6.578   8.170
 9706WAT     H129360   2.159   6.659   8.211
 9706WAT     H229361   2.271   6.542   8.233
 9707WAT      O29362   7.859   3.791   8.666
 9707WAT     H129363   7.793   3.716   8.669
 9707WAT     H229364   7.824   3.869   8.717
 9708WAT      O29365   5.874   7.650   1.556
 9708WAT     H129366   5.958   7.619   1.513
 9708WAT     H229367   5.812   7.685   1.486
 9709WAT      O29368   3.657   0.498   7.529
 9709WAT     H129369   3.649   0.559   7.450
 9709WAT     H229370   3.727   0.533   7.591
 9710WAT      O29371   1.850   1.253   2.854
 9710WAT     H129372   1.756   1.271   2.884
 9710WAT     H229373   1.850   1.175   2.790
 9711WAT      O29374   5.222   7.739   6.891
 9711WAT     H129375   5.207   7.802   6.815
 9711WAT     H229376   5.320   7.718   6.898
 9712WAT      O29377   7.444   2.820   7.099
 9712WAT     H129378   7.416   2.912   7.069
 9712WAT     H229379   7.486   2.772   7.022
 9713WAT      O29380   0.964   4.441   5.847
 9713WAT     H129381   0.985   4.516   5.910
 9713WAT     H229382   1.048   4.393   5.823
 9714WAT      O29383   4.156   2.745   7.516
 9714WAT     H129384   4.137   2.842   7.529
 9714WAT     H229385   4.086   2.705   7.457
 9715WAT      O29386   2.062   2.346   1.497
 9715WAT     H129387   2.152   2.314   1.467
 9715WAT     H229388   2.074   2.421   1.563
 9716WAT      O29389   2.685   6.221   8.684
 9716WAT     H129390   2.776   6.243   8.648
 9716WAT     H229391   2.693   6.152   8.756
 9717WAT      O29392   2.537   9.274   8.520
 9717WAT     H129393   2.515   9.186   8.561
 9717WAT     H229394   2.475   9.344   8.556
 9718WAT      O29395   1.674   8.795   9.183
 9718WAT     H129396   1.651   8.781   9.087
 9718WAT     H229397   1.772   8.813   9.191
 9719WAT      O29398   3.737   5.462   3.502
 9719WAT     H129399   3.701   5.499   3.416
 9719WAT     H229400   3.806   5.523   3.539
 9720WAT      O29401   1.813   3.839   8.344
 9720WAT     H129402   1.777   3.846   8.251
 9720WAT     H229403   1.864   3.754   8.354
 9721WAT      O29404   1.698   9.841   5.354
 9721WAT     H129405   1.783   9.793   5.330
 9721WAT     H229406   1.670   9.900   5.279
 9722WAT      O29407   5.003   8.741   6.204
 9722WAT     H129408   5.084   8.798   6.216
 9722WAT     H229409   5.024   8.646   6.229
 9723WAT      O29410   6.676   1.069   7.994
 9723WAT     H129411   6.727   1.145   8.033
 9723WAT     H229412   6.669   1.080   7.895
 9724WAT      O29413   9.471   4.902   0.636
 9724WAT     H129414   9.406   4.833   0.604
 9724WAT     H229415   9.484   4.891   0.735
 9725WAT      O29416   5.765   7.971   8.552
 9725WAT     H129417   5.731   8.018   8.633
 9725WAT     H229418   5.864   7.984   8.546
 9726WAT      O29419   0.388   5.460   0.443
 9726WAT     H129420   0.427   5.514   0.369
 9726WAT     H229421   0.359   5.520   0.517
 9727WAT      O29422   1.715   7.963   3.336
 9727WAT     H129423   1.789   7.905   3.301
 9727WAT     H229424   1.646   7.905   3.380
 9728WAT      O29425   3.394   2.557   3.451
 9728WAT     H129426   3.331   2.633   3.437
 9728WAT     H229427   3.417   2.515   3.363
 9729WAT      O29428   6.620   3.777   1.362
 9729WAT     H129429   6.666   3.693   1.392
 9729WAT     H229430   6.689   3.848   1.347
 9730WAT      O29431   7.790   8.818   9.346
 9730WAT     H129432   7.779   8.814   9.445
 9730WAT     H229433   7.868   8.761   9.319
 9731WAT      O29434   8.111   8.069   1.598
 9731WAT     H129435   8.196   8.087   1.647
 9731WAT     H229436   8.132   8.030   1.508
 9732WAT      O29437   1.339   2.843   6.337
 9732WAT     H129438   1.410   2.910   6.360
 9732WAT     H229439   1.258   2.892   6.306
 9733WAT      O29440   3.179   6.847   5.294
 9733WAT     H129441   3.225   6.922   5.342
 9733WAT     H229442   3.081   6.863   5.294
 9734WAT      O29443   1.556   8.754   4.810
 9734WAT     H129444   1.521   8.828   4.867
 9734WAT     H229445   1.495   8.675   4.815
 9735WAT      O29446   4.561   5.503   4.874
 9735WAT     H129447   4.607   5.567   4.936
 9735WAT     H229448   4.496   5.448   4.926
 9736WAT      O29449   1.668   1.011   9.149
 9736WAT     H129450   1.589   1.066   9.120
 9736WAT     H229451   1.742   1.071   9.178
 9737WAT      O29452   1.413   1.258   6.812
 9737WAT     H129453   1.433   1.350   6.845
 9737WAT     H229454   1.405   1.196   6.891
 9738WAT      O29455   6.748   6.749   0.468
 9738WAT     H129456   6.751   6.657   0.506
 9738WAT     H229457   6.841   6.788   0.468
 9739WAT      O29458   1.562   5.136   1.838
 9739WAT     H129459   1.525   5.214   1.787
 9739WAT     H229460   1.655   5.116   1.805
 9740WAT      O29461   8.363   3.573   1.613
 9740WAT     H129462   8.356   3.607   1.706
 9740WAT     H229463   8.459   3.573   1.584
 9741WAT      O29464   5.617   4.535   0.245
 9741WAT     H129465   5.707   4.578   0.254
 9741WAT     H229466   5.567   4.579   0.170
 9742WAT      O29467   4.920   0.118   4.995
 9742WAT     H129468   4.978   0.147   5.071
 9742WAT     H229469   4.967   0.135   4.909
 9743WAT      O29470   5.613   3.599   1.945
 9743WAT     H129471   5.565   3.597   2.032
 9743WAT     H229472   5.649   3.692   1.929
 9744WAT      O29473   2.515   7.743   7.404
 9744WAT     H129474   2.603   7.702   7.429
 9744WAT     H229475   2.523   7.786   7.315
 9745WAT      O29476   5.482   7.559   9.474
 9745WAT     H129477   5.407   7.606   9.521
 9745WAT     H229478   5.534   7.624   9.420
 9746WAT      O29479   9.366   0.711   3.502
 9746WAT     H129480   9.439   0.663   3.551
 9746WAT     H229481   9.335   0.654   3.426
 9747WAT      O29482   3.151   7.785   3.305
 9747WAT     H129483   3.180   7.692   3.328
 9747WAT     H229484   3.054   7.796   3.328
 9748WAT      O29485   0.238   1.787   1.149
 9748WAT     H129486   0.278   1.770   1.239
 9748WAT     H229487   0.139   1.798   1.159
 9749WAT      O29488   8.500   3.563   0.164
 9749WAT     H129489   8.423   3.555   0.228
 9749WAT     H229490   8.522   3.660   0.151
 9750WAT      O29491   2.684   2.285   1.865
 9750WAT     H129492   2.595   2.297   1.821
 9750WAT     H229493   2.720   2.195   1.842
 9751WAT      O29494   2.347   9.502   8.356
 9751WAT     H129495   2.342   9.480   8.453
 9751WAT     H229496   2.316   9.424   8.302
 9752WAT      O29497   8.235   6.755   4.878
 9752WAT     H129498   8.251   6.670   4.828
 9752WAT     H229499   8.218   6.733   4.974
 9753WAT      O29500   0.799   0.891   4.980
 9753WAT     H129501   0.864   0.966   4.992
 9753WAT     H229502   0.706   0.925   4.994
 9754WAT      O29503   9.292   9.196   2.875
 9754WAT     H129504   9.378   9.148   2.859
 9754WAT     H229505   9.252   9.165   2.962
 9755WAT      O29506   7.858   0.894   5.271
 9755WAT     H129507   7.761   0.875   5.287
 9755WAT     H229508   7.902   0.920   5.357
 9756WAT      O29509   5.061   4.758   1.426
 9756WAT     H129510   4.968   4.780   1.395
 9756WAT     H229511   5.099   4.687   1.368
 9757WAT      O29512   9.280   4.955   9.298
 9757WAT     H129513   9.187   4.947   9.262
 9757WAT     H229514   9.280   4.934   9.396
 9758WAT      O29515   2.569   3.539   1.625
 9758WAT     H129516   2.607   3.631   1.635
 9758WAT     H229517   2.604   3.481   1.699
 9759WAT      O29518   1.581   6.407   7.040
 9759WAT     H129519   1.490   6.424   7.003
 9759WAT     H229520   1.649   6.458   6.988
 9760WAT      O29521   8.613   5.720   2.284
 9760WAT     H129522   8.612   5.654   2.208
 9760WAT     H229523   8.663   5.681   2.361
 9761WAT      O29524   7.662   2.978   1.535
 9761WAT     H129525   7.604   3.020   1.466
 9761WAT     H229526   7.659   2.878   1.524
 9762WAT      O29527   3.638   7.523   5.259
 9762WAT     H129528   3.716   7.578   5.289
 9762WAT     H229529   3.665   7.428   5.250
 9763WAT      O29530   9.546   4.575   2.386
 9763WAT     H129531   9.503   4.556   2.298
 9763WAT     H229532   9.484   4.546   2.460
 9764WAT      O29533   7.998   3.377   0.627
 9764WAT     H129534   7.990   3.286   0.585
 9764WAT     H229535   7.908   3.418   0.634
 9765WAT      O29536   9.834   5.483   2.185
 9765WAT     H129537   9.920   5.449   2.147
 9765WAT     H229538   9.763   5.413   2.175
 9766WAT      O29539   6.706   6.705   8.217
 9766WAT     H129540   6.691   6.606   8.218
 9766WAT     H229541   6.628   6.750   8.174
 9767WAT      O29542   7.584   4.471   9.703
 9767WAT     H129543   7.568   4.550   9.762
 9767WAT     H229544   7.656   4.413   9.742
 9768WAT      O29545   9.839   5.654   8.604
 9768WAT     H129546   9.780   5.574   8.600
 9768WAT     H229547   9.830   5.698   8.693
 9769WAT      O29548   1.200   5.086   7.549
 9769WAT     H129549   1.238   5.007   7.500
 9769WAT     H229550   1.111   5.109   7.510
 9770WAT      O29551   7.442   0.719   5.085
 9770WAT     H129552   7.461   0.621   5.096
 9770WAT     H229553   7.361   0.743   5.138
 9771WAT      O29554   4.994   6.733   5.753
 9771WAT     H129555   5.024   6.640   5.774
 9771WAT     H229556   5.003   6.749   5.654
 9772WAT      O29557   0.282   4.861   2.831
 9772WAT     H129558   0.356   4.910   2.876
 9772WAT     H229559   0.307   4.844   2.736
 9773WAT      O29560   6.005   5.197   8.547
 9773WAT     H129561   6.050   5.286   8.544
 9773WAT     H229562   6.075   5.125   8.551
 9774WAT      O29563   0.260   1.182   6.883
 9774WAT     H129564   0.209   1.142   6.959
 9774WAT     H229565   0.300   1.269   6.913
 9775WAT      O29566   0.736   0.312   8.517
 9775WAT     H129567   0.750   0.371   8.596
 9775WAT     H229568   0.792   0.344   8.440
 9776WAT      O29569   4.902   3.445   1.960
 9776WAT     H129570   4.943   3.416   2.046
 9776WAT     H229571   4.861   3.366   1.915
 9777WAT      O29572   9.586   8.655   6.374
 9777WAT     H129573   9.648   8.577   6.367
 9777WAT     H229574   9.600   8.700   6.463
 9778WAT      O29575   5.943   0.510   3.326
 9778WAT     H129576   5.883   0.491   3.403
 9778WAT     H229577   5.888   0.536   3.247
 9779WAT      O29578   6.306   7.835   2.085
 9779WAT     H129579   6.359   7.909   2.043
 9779WAT     H229580   6.278   7.770   2.015
 9780WAT      O29581   7.818   8.542   7.069
 9780WAT     H129582   7.719   8.554   7.074
 9780WAT     H229583   7.851   8.568   6.978
 9781WAT      O29584   6.279   3.091   4.453
 9781WAT     H129585   6.250   3.179   4.490
 9781WAT     H229586   6.332   3.042   4.522
 9782WAT      O29587   5.026   0.809   5.736
 9782WAT     H129588   4.934   0.806   5.698
 9782WAT     H229589   5.085   0.747   5.684
 9783WAT      O29590   0.350   4.819   0.816
 9783WAT     H129591   0.277   4.887   0.813
 9783WAT     H229592   0.434   4.860   0.781
 9784WAT      O29593   7.539   4.146   1.271
 9784WAT     H129594   7.583   4.104   1.191
 9784WAT     H229595   7.441   4.157   1.253
 9785WAT      O29596   7.536   0.751   3.266
 9785WAT     H129597   7.489   0.795   3.189
 9785WAT     H229598   7.634   0.765   3.258
 9786WAT      O29599   6.625   3.733   1.771
 9786WAT     H129600   6.624   3.636   1.797
 9786WAT     H229601   6.712   3.755   1.727
 9787WAT      O29602   3.260   2.943   5.560
 9787WAT     H129603   3.356   2.971   5.552
 9787WAT     H229604   3.202   3.023   5.567
 9788WAT      O29605   4.664   9.622   1.184
 9788WAT     H129606   4.739   9.622   1.118
 9788WAT     H229607   4.694   9.574   1.267
 9789WAT      O29608   2.892   7.937   6.654
 9789WAT     H129609   2.917   7.841   6.665
 9789WAT     H229610   2.851   7.970   6.740
 9790WAT      O29611   0.688   6.068   4.310
 9790WAT     H129612   0.746   6.042   4.233
 9790WAT     H229613   0.732   6.040   4.396
 9791WAT      O29614   2.174   4.281   5.185
 9791WAT     H129615   2.103   4.304   5.119
 9791WAT     H229616   2.262   4.319   5.155
 9792WAT      O29617   4.282   2.877   8.647
 9792WAT     H129618   4.284   2.896   8.549
 9792WAT     H229619   4.336   2.947   8.695
 9793WAT      O29620   7.210   3.104   7.679
 9793WAT     H129621   7.237   3.162   7.756
 9793WAT     H229622   7.128   3.052   7.704
 9794WAT      O29623   9.475   7.610   7.379
 9794WAT     H129624   9.399   7.669   7.405
 9794WAT     H229625   9.505   7.633   7.286
 9795WAT      O29626   0.429   1.328   2.318
 9795WAT     H129627   0.439   1.272   2.236
 9795WAT     H229628   0.336   1.319   2.353
 9796WAT      O29629   7.431   5.488   3.933
 9796WAT     H129630   7.382   5.574   3.951
 9796WAT     H229631   7.367   5.419   3.902
 9797WAT      O29632   2.244   7.512   9.567
 9797WAT     H129633   2.306   7.560   9.505
 9797WAT     H229634   2.265   7.414   9.565
 9798WAT      O29635   8.794   1.301   8.175
 9798WAT     H129636   8.813   1.223   8.235
 9798WAT     H229637   8.719   1.355   8.215
 9799WAT      O29638   1.262   0.512   5.761
 9799WAT     H129639   1.173   0.469   5.750
 9799WAT     H229640   1.317   0.460   5.827
 9800WAT      O29641   4.370   3.832   5.221
 9800WAT     H129642   4.345   3.800   5.312
 9800WAT     H229643   4.386   3.754   5.161
 9801WAT      O29644   9.615   3.009   0.534
 9801WAT     H129645   9.555   2.933   0.560
 9801WAT     H229646   9.679   2.978   0.464
 9802WAT      O29647   3.408   9.068   7.183
 9802WAT     H129648   3.309   9.060   7.181
 9802WAT     H229649   3.434   9.144   7.244
 9803WAT      O29650   2.537   8.875   2.674
 9803WAT     H129651   2.629   8.839   2.658
 9803WAT     H229652   2.473   8.834   2.609
 9804WAT      O29653   9.618   6.488   7.756
 9804WAT     H129654   9.604   6.408   7.814
 9804WAT     H229655   9.678   6.463   7.679
 9805WAT      O29656   9.477   6.040   5.357
 9805WAT     H129657   9.539   5.975   5.401
 9805WAT     H229658   9.494   6.132   5.392
 9806WAT      O29659   2.212   6.140   4.905
 9806WAT     H129660   2.152   6.146   4.986
 9806WAT     H229661   2.253   6.049   4.902
 9807WAT      O29662   1.541   4.024   2.325
 9807WAT     H129663   1.588   3.942   2.293
 9807WAT     H229664   1.577   4.051   2.414
 9808WAT      O29665   0.464   8.857   7.949
 9808WAT     H129666   0.508   8.788   7.890
 9808WAT     H229667   0.392   8.903   7.898
 9809WAT      O29668   0.886   1.579   1.344
 9809WAT     H129669   0.950   1.542   1.277
 9809WAT     H229670   0.822   1.507   1.373
 9810WAT      O29671   5.180   1.479   9.293
 9810WAT     H129672   5.189   1.542   9.371
 9810WAT     H229673   5.240   1.509   9.219
 9811WAT      O29674   3.612   3.592   4.916
 9811WAT     H129675   3.667   3.591   4.833
 9811WAT     H229676   3.629   3.509   4.969
 9812WAT      O29677   9.721   5.433   1.067
 9812WAT     H129678   9.793   5.477   1.121
 9812WAT     H229679   9.675   5.364   1.124
 9813WAT      O29680   7.561   3.314   7.416
 9813WAT     H129681   7.501   3.338   7.492
 9813WAT     H229682   7.617   3.393   7.392
 9814WAT      O29683   2.396   7.247   7.254
 9814WAT     H129684   2.423   7.341   7.270
 9814WAT     H229685   2.467   7.200   7.200
 9815WAT      O29686   3.808   4.019   8.477
 9815WAT     H129687   3.798   4.118   8.484
 9815WAT     H229688   3.904   3.997   8.461
 9816WAT      O29689   1.337   3.508   2.302
 9816WAT     H129690   1.279   3.589   2.298
 9816WAT     H229691   1.340   3.465   2.211
 9817WAT      O29692   6.093   3.903   5.968
 9817WAT     H129693   6.193   3.895   5.973
 9817WAT     H229694   6.069   3.951   5.883
 9818WAT      O29695   6.316   5.820   0.008
 9818WAT     H129696   6.236   5.872  -0.021
 9818WAT     H229697   6.320   5.734  -0.042
 9819WAT      O29698   4.246   9.373   6.769
 9819WAT     H129699   4.238   9.451   6.706
 9819WAT     H229700   4.170   9.376   6.834
 9820WAT      O29701   2.689   1.284   8.314
 9820WAT     H129702   2.645   1.374   8.313
 9820WAT     H229703   2.646   1.227   8.384
 9821WAT      O29704   5.637   1.068   4.071
 9821WAT     H129705   5.615   1.062   3.974
 9821WAT     H229706   5.557   1.044   4.125
 9822WAT      O29707   0.348   1.790   5.403
 9822WAT     H129708   0.358   1.738   5.488
 9822WAT     H229709   0.424   1.854   5.393
 9823WAT      O29710   0.645   6.699   5.721
 9823WAT     H129711   0.675   6.611   5.682
 9823WAT     H229712   0.599   6.752   5.650
 9824WAT      O29713   9.337   5.689   9.022
 9824WAT     H129714   9.370   5.610   9.073
 9824WAT     H229715   9.372   5.685   8.928
 9825WAT      O29716   7.833   4.447   2.703
 9825WAT     H129717   7.843   4.449   2.802
 9825WAT     H229718   7.896   4.380   2.664
 9826WAT      O29719   1.797   7.790   5.007
 9826WAT     H129720   1.709   7.831   5.028
 9826WAT     H229721   1.785   7.718   4.938
 9827WAT      O29722   7.749   0.046   7.094
 9827WAT     H129723   7.672  -0.008   7.126
 9827WAT     H229724   7.718   0.135   7.064
 9828WAT      O29725   8.527   7.615   6.049
 9828WAT     H129726   8.581   7.698   6.061
 9828WAT     H229727   8.445   7.637   5.995
 9829WAT      O29728   8.688   1.996   9.225
 9829WAT     H129729   8.738   1.921   9.180
 9829WAT     H229730   8.746   2.038   9.293
 9830WAT      O29731   0.054   5.684   2.337
 9830WAT     H129732   0.025   5.769   2.292
 9830WAT     H229733   0.014   5.606   2.288
 9831WAT      O29734   2.529   3.858   6.894
 9831WAT     H129735   2.584   3.776   6.911
 9831WAT     H229736   2.456   3.837   6.829
 9832WAT      O29737   3.126   2.136   8.613
 9832WAT     H129738   3.041   2.181   8.641
 9832WAT     H229739   3.109   2.039   8.600
 9833WAT      O29740   1.802   4.580   1.423
 9833WAT     H129741   1.707   4.584   1.454
 9833WAT     H229742   1.842   4.493   1.451
 9834WAT      O29743   5.588   4.570   6.797
 9834WAT     H129744   5.597   4.638   6.870
 9834WAT     H229745   5.585   4.615   6.709
 9835WAT      O29746   3.338   2.381   5.022
 9835WAT     H129747   3.252   2.387   4.971
 9835WAT     H229748   3.381   2.292   5.005
 9836WAT      O29749   3.102   9.735   7.992
 9836WAT     H129750   3.101   9.831   7.964
 9836WAT     H229751   3.038   9.721   8.067
 9837WAT      O29752   8.808   4.381   2.875
 9837WAT     H129753   8.840   4.295   2.834
 9837WAT     H229754   8.711   4.375   2.895
 9838WAT      O29755   6.375   4.370   3.395
 9838WAT     H129756   6.352   4.467   3.389
 9838WAT     H229757   6.464   4.354   3.353
 9839WAT      O29758   5.551   5.580   7.016
 9839WAT     H129759   5.527   5.617   7.106
 9839WAT     H229760   5.638   5.619   6.986
 9840WAT      O29761   1.968   5.141   8.059
 9840WAT     H129762   2.034   5.216   8.049
 9840WAT     H229763   1.961   5.115   8.155
 9841WAT      O29764   2.126   4.040   6.725
 9841WAT     H129765   2.063   4.061   6.650
 9841WAT     H229766   2.199   4.108   6.728
 9842WAT      O29767   1.060   2.464   1.751
 9842WAT     H129768   1.089   2.480   1.845
 9842WAT     H229769   1.030   2.550   1.710
 9843WAT      O29770   6.884   1.168   8.506
 9843WAT     H129771   6.840   1.085   8.541
 9843WAT     H229772   6.814   1.230   8.470
 9844WAT      O29773   5.366   3.858   3.443
 9844WAT     H129774   5.300   3.783   3.446
 9844WAT     H229775   5.448   3.828   3.394
 9845WAT      O29776   3.693   2.026   5.268
 9845WAT     H129777   3.694   2.001   5.365
 9845WAT     H229778   3.656   1.949   5.215
 9846WAT      O29779   7.128   0.405   2.127
 9846WAT     H129780   7.083   0.486   2.163
 9846WAT     H229781   7.227   0.419   2.125
 9847WAT      O29782   1.211   8.997   3.055
 9847WAT     H129783   1.191   8.903   3.084
 9847WAT     H229784   1.203   9.058   3.133
 9848WAT      O29785   2.093   2.566   9.047
 9848WAT     H129786   2.144   2.644   9.083
 9848WAT     H229787   2.068   2.584   8.952
 9849WAT      O29788   3.308   0.947   4.326
 9849WAT     H129789   3.387   0.887   4.337
 9849WAT     H229790   3.265   0.930   4.238
 9850WAT      O29791   4.081   7.993   4.882
 9850WAT     H129792   3.999   7.936   4.887
 9850WAT     H229793   4.102   8.013   4.786
 9851WAT      O29794   2.573   5.601   1.096
 9851WAT     H129795   2.551   5.582   1.192
 9851WAT     H229796   2.661   5.559   1.074
 9852WAT      O29797   7.233   0.128   7.288
 9852WAT     H129798   7.269   0.102   7.378
 9852WAT     H229799   7.294   0.194   7.246
 9853WAT      O29800   7.326   1.437   6.628
 9853WAT     H129801   7.311   1.342   6.654
 9853WAT     H229802   7.401   1.475   6.682
 9854WAT      O29803   9.113   6.537   4.202
 9854WAT     H129804   9.166   6.621   4.211
 9854WAT     H229805   9.041   6.550   4.134
 9855WAT      O29806   9.846   5.694   4.183
 9855WAT     H129807   9.909   5.763   4.148
 9855WAT     H229808   9.841   5.701   4.283
 9856WAT      O29809   8.691   0.057   1.414
 9856WAT     H129810   8.767   0.054   1.348
 9856WAT     H229811   8.722   0.100   1.498
 9857WAT      O29812   9.405   2.902   0.004
 9857WAT     H129813   9.342   2.964   0.051
 9857WAT     H229814   9.491   2.951  -0.016
 9858WAT      O29815   5.175   8.300   3.994
 9858WAT     H129816   5.259   8.310   3.941
 9858WAT     H229817   5.179   8.360   4.074
 9859WAT      O29818   3.398   4.653   6.467
 9859WAT     H129819   3.330   4.675   6.396
 9859WAT     H229820   3.406   4.553   6.474
 9860WAT      O29821   7.681   1.916   9.142
 9860WAT     H129822   7.697   1.993   9.080
 9860WAT     H229823   7.595   1.929   9.191
 9861WAT      O29824   9.288   8.545   3.755
 9861WAT     H129825   9.297   8.623   3.817
 9861WAT     H229826   9.255   8.466   3.806
 9862WAT      O29827   3.305   1.338   6.538
 9862WAT     H129828   3.339   1.428   6.566
 9862WAT     H229829   3.295   1.335   6.439
 9863WAT      O29830   9.290   3.884   5.811
 9863WAT     H129831   9.340   3.806   5.773
 9863WAT     H229832   9.337   3.917   5.892
 9864WAT      O29833   3.925   8.125   7.106
 9864WAT     H129834   4.024   8.131   7.120
 9864WAT     H229835   3.879   8.123   7.195
 9865WAT      O29836   6.435   2.373   8.786
 9865WAT     H129837   6.386   2.461   8.789
 9865WAT     H229838   6.520   2.385   8.735
 9866WAT      O29839   6.111   0.827   1.058
 9866WAT     H129840   6.095   0.925   1.055
 9866WAT     H229841   6.056   0.786   1.130
 9867WAT      O29842   7.264   6.605   3.479
 9867WAT     H129843   7.193   6.618   3.409
 9867WAT     H229844   7.269   6.509   3.504
 9868WAT      O29845   6.273   9.773   6.547
 9868WAT     H129846   6.182   9.801   6.516
 9868WAT     H229847   6.269   9.679   6.581
 9869WAT      O29848   2.728   5.511   5.267
 9869WAT     H129849   2.787   5.587   5.241
 9869WAT     H229850   2.776   5.453   5.333
 9870WAT      O29851   5.778   5.150   0.188
 9870WAT     H129852   5.770   5.080   0.259
 9870WAT     H229853   5.777   5.241   0.231
 9871WAT      O29854   1.015   1.975   7.923
 9871WAT     H129855   1.097   1.945   7.971
 9871WAT     H229856   0.967   1.894   7.887
 9872WAT      O29857   2.385   5.292   5.374
 9872WAT     H129858   2.367   5.195   5.361
 9872WAT     H229859   2.352   5.343   5.294
 9873WAT      O29860   5.847   0.944   7.359
 9873WAT     H129861   5.774   0.916   7.421
 9873WAT     H229862   5.854   0.878   7.284
 9874WAT      O29863   9.369   9.318   0.031
 9874WAT     H129864   9.343   9.240  -0.026
 9874WAT     H229865   9.469   9.330   0.027
 9875WAT      O29866   5.662   3.878   1.866
 9875WAT     H129867   5.718   3.958   1.845
 9875WAT     H229868   5.595   3.901   1.936
 9876WAT      O29869   9.435   9.772   7.612
 9876WAT     H129870   9.355   9.719   7.639
 9876WAT     H229871   9.514   9.712   7.604
 9877WAT      O29872   1.584   6.744   6.424
 9877WAT     H129873   1.504   6.803   6.423
 9877WAT     H229874   1.555   6.649   6.433
 9878WAT      O29875   5.605   9.368   1.286
 9878WAT     H129876   5.630   9.461   1.259
 9878WAT     H229877   5.520   9.371   1.340
 9879WAT      O29878   9.465   2.649   6.520
 9879WAT     H129879   9.492   2.680   6.428
 9879WAT     H229880   9.488   2.719   6.587
 9880WAT      O29881   8.598   4.662   8.828
 9880WAT     H129882   8.641   4.677   8.739
 9880WAT     H229883   8.586   4.749   8.875
 9881WAT      O29884   3.091   0.442   3.067
 9881WAT     H129885   3.089   0.416   2.971
 9881WAT     H229886   3.130   0.367   3.121
 9882WAT      O29887   2.116   0.389   0.389
 9882WAT     H129888   2.021   0.377   0.359
 9882WAT     H229889   2.176   0.400   0.310
 9883WAT      O29890   4.233   0.908   4.188
 9883WAT     H129891   4.229   0.930   4.285
 9883WAT     H229892   4.293   0.830   4.174
 9884WAT      O29893   1.158   0.346   4.832
 9884WAT     H129894   1.200   0.258   4.810
 9884WAT     H229895   1.211   0.420   4.792
 9885WAT      O29896   3.713   7.133   1.568
 9885WAT     H129897   3.787   7.085   1.521
 9885WAT     H229898   3.669   7.196   1.504
 9886WAT      O29899   6.909   1.573   2.704
 9886WAT     H129900   6.984   1.510   2.719
 9886WAT     H229901   6.847   1.535   2.635
 9887WAT      O29902   6.028   0.612   2.828
 9887WAT     H129903   6.048   0.656   2.915
 9887WAT     H229904   6.104   0.552   2.802
 9888WAT      O29905   3.138   6.985   9.621
 9888WAT     H129906   3.176   6.985   9.529
 9888WAT     H229907   3.042   7.013   9.618
 9889WAT      O29908   9.785   4.419   2.382
 9889WAT     H129909   9.812   4.407   2.477
 9889WAT     H229910   9.701   4.474   2.378
 9890WAT      O29911   2.878   9.732   7.348
 9890WAT     H129912   2.958   9.788   7.370
 9890WAT     H229913   2.798   9.766   7.398
 9891WAT      O29914   4.707   1.251   4.282
 9891WAT     H129915   4.662   1.263   4.193
 9891WAT     H229916   4.651   1.194   4.341
 9892WAT      O29917   0.785   3.525   3.100
 9892WAT     H129918   0.724   3.596   3.065
 9892WAT     H229919   0.819   3.471   3.023
 9893WAT      O29920   4.763   0.247   0.177
 9893WAT     H129921   4.789   0.179   0.108
 9893WAT     H229922   4.829   0.245   0.252
 9894WAT      O29923   5.701   2.053   5.133
 9894WAT     H129924   5.777   2.054   5.199
 9894WAT     H229925   5.633   2.121   5.160
 9895WAT      O29926   5.365   0.052   9.822
 9895WAT     H129927   5.378  -0.039   9.861
 9895WAT     H229928   5.277   0.055   9.775
 9896WAT      O29929   7.718   9.566   6.769
 9896WAT     H129930   7.740   9.470   6.784
 9896WAT     H229931   7.783   9.623   6.818
 9897WAT      O29932   5.148   6.136   6.439
 9897WAT     H129933   5.216   6.071   6.472
 9897WAT     H229934   5.128   6.202   6.511
 9898WAT      O29935   9.133   7.831   1.203
 9898WAT     H129936   9.192   7.911   1.203
 9898WAT     H229937   9.185   7.750   1.176
 9899WAT      O29938   4.477   8.472   9.793
 9899WAT     H129939   4.523   8.385   9.809
 9899WAT     H229940   4.475   8.524   9.878
 9900WAT      O29941   6.432   7.310   1.754
 9900WAT     H129942   6.413   7.221   1.713
 9900WAT     H229943   6.431   7.302   1.854
 9901WAT      O29944   2.038   0.563   5.474
 9901WAT     H129945   1.943   0.533   5.466
 9901WAT     H229946   2.042   0.663   5.479
 9902WAT      O29947   0.881   2.906   3.032
 9902WAT     H129948   0.782   2.898   3.019
 9902WAT     H229949   0.929   2.869   2.953
 9903WAT      O29950   9.018   6.300   0.528
 9903WAT     H129951   9.068   6.259   0.604
 9903WAT     H229952   8.936   6.247   0.510
 9904WAT      O29953   5.250   9.348   7.544
 9904WAT     H129954   5.224   9.253   7.525
 9904WAT     H229955   5.215   9.375   7.633
 9905WAT      O29956   0.636   7.104   7.145
 9905WAT     H129957   0.544   7.091   7.182
 9905WAT     H229958   0.689   7.161   7.206
 9906WAT      O29959   6.114   1.706   2.356
 9906WAT     H129960   6.099   1.737   2.263
 9906WAT     H229961   6.027   1.702   2.405
 9907WAT      O29962   7.492   2.363   3.372
 9907WAT     H129963   7.459   2.270   3.353
 9907WAT     H229964   7.592   2.363   3.375
 9908WAT      O29965   7.483   6.087   2.336
 9908WAT     H129966   7.430   6.044   2.263
 9908WAT     H229967   7.572   6.042   2.345
 9909WAT      O29968   9.815   9.740   3.407
 9909WAT     H129969   9.893   9.752   3.346
 9909WAT     H229970   9.774   9.829   3.427
 9910WAT      O29971   8.508   2.664   4.751
 9910WAT     H129972   8.415   2.630   4.769
 9910WAT     H229973   8.569   2.630   4.822
 9911WAT      O29974   2.934   6.271   3.773
 9911WAT     H129975   2.837   6.285   3.754
 9911WAT     H229976   2.989   6.310   3.700
 9912WAT      O29977   7.950   6.145   8.901
 9912WAT     H129978   8.035   6.174   8.856
 9912WAT     H229979   7.973   6.086   8.978
 9913WAT      O29980   8.469   2.051   3.509
 9913WAT     H129981   8.560   2.048   3.550
 9913WAT     H229982   8.401   2.024   3.577
 9914WAT      O29983   2.291   3.960   6.420
 9914WAT     H129984   2.282   3.863   6.440
 9914WAT     H229985   2.207   3.993   6.377
 9915WAT      O29986   9.838   8.852   9.419
 9915WAT     H129987   9.859   8.811   9.508
 9915WAT     H229988   9.752   8.815   9.385
 9916WAT      O29989   1.475   5.926   9.571
 9916WAT     H129990   1.556   5.960   9.524
 9916WAT     H229991   1.395   5.934   9.510
 9917WAT      O29992   3.597   8.160   9.860
 9917WAT     H129993   3.670   8.195   9.802
 9917WAT     H229994   3.508   8.182   9.820
 9918WAT      O29995   0.810   7.891   0.080
 9918WAT     H129996   0.842   7.900  -0.015
 9918WAT     H229997   0.756   7.807   0.089
 9919WAT      O29998   9.478   2.577   1.196
 9919WAT     H129999   9.401   2.534   1.243
 9919WAT     H230000   9.529   2.635   1.260
 9920WAT      O30001   7.655   9.111   9.843
 9920WAT     H130002   7.674   9.050   9.921
 9920WAT     H230003   7.731   9.106   9.778
 9921WAT      O30004   2.686   9.797   8.622
 9921WAT     H130005   2.623   9.842   8.559
 9921WAT     H230006   2.741   9.730   8.573
 9922WAT      O30007   5.038   7.125   6.843
 9922WAT     H130008   4.995   7.035   6.843
 9922WAT     H230009   4.999   7.180   6.769
 9923WAT      O30010   4.585   3.207   2.235
 9923WAT     H130011   4.583   3.270   2.158
 9923WAT     H230012   4.557   3.116   2.205
 9924WAT      O30013   4.656   8.073   3.153
 9924WAT     H130014   4.661   8.011   3.231
 9924WAT     H230015   4.740   8.065   3.099
 9925WAT      O30016   6.545   8.612   1.260
 9925WAT     H130017   6.499   8.691   1.301
 9925WAT     H230018   6.644   8.625   1.262
 9926WAT      O30019   2.314   8.230   5.376
 9926WAT     H130020   2.360   8.304   5.424
 9926WAT     H230021   2.230   8.264   5.334
 9927WAT      O30022   3.614   9.609   7.093
 9927WAT     H130023   3.563   9.660   7.024
 9927WAT     H230024   3.662   9.673   7.153
 9928WAT      O30025   2.076   3.883   9.800
 9928WAT     H130026   2.098   3.960   9.739
 9928WAT     H230027   2.006   3.826   9.758
 9929WAT      O30028   0.494   3.419   4.269
 9929WAT     H130029   0.578   3.379   4.232
 9929WAT     H230030   0.480   3.509   4.228
 9930WAT      O30031   8.734   8.735   4.996
 9930WAT     H130032   8.672   8.743   4.917
 9930WAT     H230033   8.829   8.745   4.965
 9931WAT      O30034   7.404   1.861   5.776
 9931WAT     H130035   7.306   1.882   5.774
 9931WAT     H230036   7.453   1.922   5.714
 9932WAT      O30037   2.951   8.349   7.304
 9932WAT     H130038   2.913   8.403   7.228
 9932WAT     H230039   2.959   8.253   7.276
 9933WAT      O30040   9.266   3.847   4.874
 9933WAT     H130041   9.310   3.937   4.882
 9933WAT     H230042   9.222   3.840   4.784
 9934WAT      O30043   7.369   8.230   3.683
 9934WAT     H130044   7.392   8.262   3.591
 9934WAT     H230045   7.269   8.227   3.693
 9935WAT      O30046   3.392   4.527   4.256
 9935WAT     H130047   3.393   4.427   4.248
 9935WAT     H230048   3.483   4.560   4.281
 9936WAT      O30049   7.460   1.744   8.085
 9936WAT     H130050   7.487   1.657   8.127
 9936WAT     H230051   7.371   1.733   8.041
 9937WAT      O30052   5.882   3.501   5.534
 9937WAT     H130053   5.905   3.482   5.439
 9937WAT     H230054   5.925   3.432   5.593
 9938WAT      O30055   7.057   1.891   5.333
 9938WAT     H130056   7.005   1.959   5.282
 9938WAT     H230057   7.145   1.876   5.288
 9939WAT      O30058   1.792   2.740   0.568
 9939WAT     H130059   1.696   2.751   0.593
 9939WAT     H230060   1.804   2.653   0.520
 9940WAT      O30061   7.944   4.298   8.104
 9940WAT     H130062   7.892   4.223   8.062
 9940WAT     H230063   8.039   4.271   8.115
 9941WAT      O30064   5.415   1.712   9.752
 9941WAT     H130065   5.511   1.736   9.764
 9941WAT     H230066   5.375   1.768   9.680
 9942WAT      O30067   7.722   8.394   0.541
 9942WAT     H130068   7.805   8.433   0.499
 9942WAT     H230069   7.693   8.452   0.617
 9943WAT      O30070   7.487   6.930   3.365
 9943WAT     H130071   7.514   7.019   3.403
 9943WAT     H230072   7.401   6.941   3.315
 9944WAT      O30073   3.435   6.315   1.658
 9944WAT     H130074   3.388   6.393   1.699
 9944WAT     H230075   3.460   6.250   1.730
 9945WAT      O30076   2.465   2.956   8.832
 9945WAT     H130077   2.372   2.987   8.810
 9945WAT     H230078   2.462   2.861   8.864
 9946WAT      O30079   2.421   0.535   6.641
 9946WAT     H130080   2.391   0.440   6.645
 9946WAT     H230081   2.344   0.596   6.659
 9947WAT      O30082   7.757   8.589   7.474
 9947WAT     H130083   7.767   8.686   7.497
 9947WAT     H230084   7.838   8.558   7.425
 9948WAT      O30085   8.503   8.191   0.307
 9948WAT     H130086   8.508   8.223   0.213
 9948WAT     H230087   8.586   8.217   0.356
 9949WAT      O30088   1.788   2.580   2.668
 9949WAT     H130089   1.795   2.484   2.639
 9949WAT     H230090   1.771   2.584   2.766
 9950WAT      O30091   7.965   6.444   7.505
 9950WAT     H130092   7.879   6.494   7.506
 9950WAT     H230093   7.996   6.433   7.411
 9951WAT      O30094   4.120   0.833   8.252
 9951WAT     H130095   4.029   0.872   8.234
 9951WAT     H230096   4.190   0.902   8.234
 9952WAT      O30097   6.997   8.670   7.071
 9952WAT     H130098   7.015   8.635   6.979
 9952WAT     H230099   6.997   8.593   7.135
 9953WAT      O30100   2.289   4.068   5.278
 9953WAT     H130101   2.238   4.150   5.252
 9953WAT     H230102   2.310   4.071   5.375
 9954WAT      O30103   8.825   3.430   8.589
 9954WAT     H130104   8.827   3.524   8.623
 9954WAT     H230105   8.750   3.380   8.631
 9955WAT      O30106   0.123   6.148   7.375
 9955WAT     H130107   0.030   6.118   7.396
 9955WAT     H230108   0.150   6.113   7.286
 9956WAT      O30109   6.591   8.827   6.462
 9956WAT     H130110   6.508   8.773   6.445
 9956WAT     H230111   6.629   8.802   6.551
 9957WAT      O30112   0.224   0.484   6.423
 9957WAT     H130113   0.242   0.557   6.358
 9957WAT     H230114   0.247   0.514   6.516
 9958WAT      O30115   6.813   2.119   2.758
 9958WAT     H130116   6.826   2.023   2.737
 9958WAT     H230117   6.837   2.136   2.854
 9959WAT      O30118   9.286   0.763   8.087
 9959WAT     H130119   9.385   0.768   8.075
 9959WAT     H230120   9.248   0.698   8.021
 9960WAT      O30121   8.920   6.832   6.021
 9960WAT     H130122   9.004   6.809   5.971
 9960WAT     H230123   8.841   6.794   5.973
 9961WAT      O30124   5.570   7.082   3.024
 9961WAT     H130125   5.500   7.019   3.059
 9961WAT     H230126   5.529   7.144   2.957
 9962WAT      O30127   8.139   8.672   0.040
 9962WAT     H130128   8.111   8.598  -0.021
 9962WAT     H230129   8.220   8.644   0.092
 9963WAT      O30130   2.266   4.600   1.344
 9963WAT     H130131   2.265   4.606   1.244
 9963WAT     H230132   2.313   4.517   1.373
 9964WAT      O30133   8.314   9.275   7.888
 9964WAT     H130134   8.252   9.344   7.924
 9964WAT     H230135   8.266   9.220   7.819
 9965WAT      O30136   3.478   9.036   9.416
 9965WAT     H130137   3.527   9.054   9.331
 9965WAT     H230138   3.418   8.957   9.404
 9966WAT      O30139   4.379   1.921   3.697
 9966WAT     H130140   4.290   1.894   3.732
 9966WAT     H230141   4.369   2.000   3.637
 9967WAT      O30142   7.352   1.153   3.422
 9967WAT     H130143   7.408   1.089   3.475
 9967WAT     H230144   7.358   1.130   3.325
 9968WAT      O30145   2.515   8.471   0.578
 9968WAT     H130146   2.438   8.408   0.573
 9968WAT     H230147   2.503   8.530   0.658
 9969WAT      O30148   5.920   4.207   0.778
 9969WAT     H130149   5.928   4.149   0.696
 9969WAT     H230150   5.988   4.280   0.774
 9970WAT      O30151   1.368   2.825   7.867
 9970WAT     H130152   1.296   2.893   7.879
 9970WAT     H230153   1.385   2.811   7.769
 9971WAT      O30154   0.686   4.593   0.110
 9971WAT     H130155   0.768   4.650   0.104
 9971WAT     H230156   0.605   4.651   0.116
 9972WAT      O30157   8.852   2.299   1.048
 9972WAT     H130158   8.945   2.265   1.055
 9972WAT     H230159   8.841   2.350   0.962
 9973WAT      O30160   6.803   3.904   5.859
 9973WAT     H130161   6.763   3.931   5.946
 9973WAT     H230162   6.851   3.982   5.818
 9974WAT      O30163   0.511   3.281   2.356
 9974WAT     H130164   0.530   3.335   2.274
 9974WAT     H230165   0.423   3.309   2.395
 9975WAT      O30166   1.494   8.576   5.314
 9975WAT     H130167   1.494   8.675   5.318
 9975WAT     H230168   1.434   8.539   5.386
 9976WAT      O30169   2.405   1.880   6.976
 9976WAT     H130170   2.487   1.931   7.001
 9976WAT     H230171   2.431   1.791   6.939
 9977WAT      O30172   6.419   6.679   7.931
 9977WAT     H130173   6.379   6.619   8.000
 9977WAT     H230174   6.464   6.756   7.976
 9978WAT      O30175   5.122   8.112   4.330
 9978WAT     H130176   5.094   8.066   4.414
 9978WAT     H230177   5.041   8.136   4.277
 9979WAT      O30178   3.350   8.078   4.469
 9979WAT     H130179   3.381   8.043   4.380
 9979WAT     H230180   3.428   8.117   4.518
 9980WAT      O30181   3.997   9.538   3.633
 9980WAT     H130182   4.032   9.622   3.674
 9980WAT     H230183   4.064   9.465   3.646
 9981WAT      O30184   2.453   3.930   8.357
 9981WAT     H130185   2.505   3.856   8.399
 9981WAT     H230186   2.414   3.988   8.428
 9982WAT      O30187   6.019   8.530   9.847
 9982WAT     H130188   5.993   8.434   9.854
 9982WAT     H230189   6.004   8.562   9.753
 9983WAT      O30190   3.080   2.638   5.382
 9983WAT     H130191   2.991   2.602   5.409
 9983WAT     H230192   3.081   2.737   5.392
 9984WAT      O30193   2.691   8.298   4.753
 9984WAT     H130194   2.684   8.207   4.711
 9984WAT     H230195   2.769   8.300   4.814
 9985WAT      O30196   9.251   8.574   9.540
 9985WAT     H130197   9.309   8.574   9.621
 9985WAT     H230198   9.228   8.480   9.515
 9986WAT      O30199   9.656   3.177   7.404
 9986WAT     H130200   9.587   3.116   7.445
 9986WAT     H230201   9.655   3.264   7.453
 9987WAT      O30202   5.727   8.710   7.682
 9987WAT     H130203   5.749   8.628   7.734
 9987WAT     H230204   5.650   8.691   7.622
 9988WAT      O30205   1.188   8.291   1.440
 9988WAT     H130206   1.280   8.304   1.476
 9988WAT     H230207   1.123   8.287   1.515
 9989WAT      O30208   6.535   5.034   9.386
 9989WAT     H130209   6.525   4.935   9.401
 9989WAT     H230210   6.487   5.083   9.459
 9990WAT      O30211   2.013   8.014   0.772
 9990WAT     H130212   2.110   8.033   0.788
 9990WAT     H230213   1.959   8.094   0.797
 9991WAT      O30214   2.886   9.280   8.060
 9991WAT     H130215   2.833   9.198   8.081
 9991WAT     H230216   2.826   9.350   8.023
 9992WAT      O30217   9.162   8.217   4.085
 9992WAT     H130218   9.192   8.296   4.137
 9992WAT     H230219   9.113   8.154   4.145
 9993WAT      O30220   7.880   5.365   3.278
 9993WAT     H130221   7.820   5.410   3.344
 9993WAT     H230222   7.830   5.291   3.233
 9994WAT      O30223   8.036   6.758   2.239
 9994WAT     H130224   8.016   6.807   2.154
 9994WAT     H230225   7.962   6.773   2.304
 9995WAT      O30226   1.964   7.753   0.660
 9995WAT     H130227   1.962   7.850   0.683
 9995WAT     H230228   1.906   7.702   0.723
 9996WAT      O30229   7.832   8.845   7.529
 9996WAT     H130230   7.902   8.881   7.467
 9996WAT     H230231   7.776   8.920   7.564
 9997WAT      O30232   6.950   0.814   2.186
 9997WAT     H130233   6.930   0.910   2.201
 9997WAT     H230234   6.915   0.786   2.097
 9998WAT      O30235   9.484   9.700   6.745
 9998WAT     H130236   9.461   9.723   6.651
 9998WAT     H230237   9.404   9.710   6.803
 9999WAT      O30238   6.134   0.657   9.708
 9999WAT     H130239   6.216   0.681   9.656
 9999WAT     H230240   6.143   0.565   9.745
10000WAT      O30241   2.655   0.211   6.565
10000WAT     H130242   2.729   0.148   6.589
10000WAT     H230243   2.694   0.292   6.522
10001WAT      O30244   0.212   3.342   7.276
10001WAT     H130245   0.260   3.425   7.249
10001WAT     H230246   0.138   3.324   7.211
10002WAT      O30247   5.284   7.051   4.376
10002WAT     H130248   5.187   7.050   4.352
10002WAT     H230249   5.294   7.083   4.470
10003WAT      O30250   9.500   4.600   3.697
10003WAT     H130251   9.465   4.669   3.634
10003WAT     H230252   9.569   4.641   3.756
10004WAT      O30253   2.343   8.198   1.635
10004WAT     H130254   2.406   8.179   1.560
10004WAT     H230255   2.359   8.133   1.709
10005WAT      O30256   4.641   3.823   0.398
10005WAT     H130257   4.598   3.902   0.443
10005WAT     H230258   4.575   3.748   0.392
10006WAT      O30259   8.951   2.352   3.277
10006WAT     H130260   8.965   2.442   3.235
10006WAT     H230261   8.994   2.282   3.222
10007WAT      O30262   8.325   0.492   1.975
10007WAT     H130263   8.392   0.540   2.031
10007WAT     H230264   8.364   0.473   1.885
10008WAT      O30265   5.700   1.000   0.176
10008WAT     H130266   5.621   0.942   0.195
10008WAT     H230267   5.673   1.096   0.185
10009WAT      O30268   5.088   4.078   7.709
10009WAT     H130269   5.137   4.024   7.778
10009WAT     H230270   5.154   4.126   7.651
10010WAT      O30271   2.730   2.678   0.027
10010WAT     H130272   2.708   2.580   0.029
10010WAT     H230273   2.674   2.723  -0.042
10011WAT      O30274   9.678   5.030   5.179
10011WAT     H130275   9.611   5.103   5.165
10011WAT     H230276   9.677   4.968   5.101
10012WAT      O30277   1.631   4.564   9.244
10012WAT     H130278   1.686   4.535   9.165
10012WAT     H230279   1.538   4.586   9.213
10013WAT      O30280   5.720   1.854   0.855
10013WAT     H130281   5.734   1.784   0.785
10013WAT     H230282   5.629   1.843   0.895
10014WAT      O30283   6.424   8.022   4.906
10014WAT     H130284   6.445   8.041   4.811
10014WAT     H230285   6.451   7.927   4.927
10015WAT      O30286   4.980   2.271   7.537
10015WAT     H130287   4.964   2.367   7.519
10015WAT     H230288   4.919   2.215   7.481
10016WAT      O30289   5.576   5.011   5.958
10016WAT     H130290   5.551   5.078   6.028
10016WAT     H230291   5.544   4.921   5.984
10017WAT      O30292   0.631   5.694   7.165
10017WAT     H130293   0.716   5.701   7.217
10017WAT     H230294   0.588   5.606   7.184
10018WAT      O30295   8.334   6.141   6.569
10018WAT     H130296   8.380   6.217   6.614
10018WAT     H230297   8.257   6.175   6.516
10019WAT      O30298   3.498   7.725   3.238
10019WAT     H130299   3.475   7.708   3.334
10019WAT     H230300   3.585   7.774   3.233
10020WAT      O30301   8.796   6.148   4.768
10020WAT     H130302   8.729   6.142   4.695
10020WAT     H230303   8.749   6.153   4.856
10021WAT      O30304   8.673   2.565   1.532
10021WAT     H130305   8.574   2.568   1.517
10021WAT     H230306   8.713   2.656   1.519
10022WAT      O30307   2.723   2.513   6.828
10022WAT     H130308   2.678   2.438   6.780
10022WAT     H230309   2.702   2.599   6.782
10023WAT      O30310   0.558   2.128   8.466
10023WAT     H130311   0.495   2.068   8.514
10023WAT     H230312   0.551   2.221   8.504
10024WAT      O30313   7.485   5.188   7.492
10024WAT     H130314   7.538   5.267   7.524
10024WAT     H230315   7.537   5.104   7.506
10025WAT      O30316   0.813   6.565   8.367
10025WAT     H130317   0.749   6.639   8.347
10025WAT     H230318   0.782   6.481   8.322
10026WAT      O30319   3.762   3.326   6.760
10026WAT     H130320   3.771   3.361   6.667
10026WAT     H230321   3.852   3.313   6.800
10027WAT      O30322   6.261   4.328   9.659
10027WAT     H130323   6.178   4.349   9.710
10027WAT     H230324   6.238   4.310   9.563
10028WAT      O30325   3.604   2.461   1.662
10028WAT     H130326   3.510   2.453   1.696
10028WAT     H230327   3.643   2.369   1.653
10029WAT      O30328   0.048   9.270   0.593
10029WAT     H130329   0.145   9.257   0.615
10029WAT     H230330   0.023   9.366   0.608
10030WAT      O30331   0.750   6.784   3.847
10030WAT     H130332   0.817   6.854   3.875
10030WAT     H230333   0.663   6.801   3.893
10031WAT      O30334   2.158   2.680   5.509
10031WAT     H130335   2.071   2.638   5.532
10031WAT     H230336   2.207   2.621   5.445
10032WAT      O30337   6.660   6.760   6.459
10032WAT     H130338   6.673   6.854   6.428
10032WAT     H230339   6.605   6.759   6.542
10033WAT      O30340   5.897   6.967   4.218
10033WAT     H130341   5.853   6.934   4.135
10033WAT     H230342   5.959   6.896   4.253
10034WAT      O30343   9.823   7.324   6.647
10034WAT     H130344   9.879   7.352   6.725
10034WAT     H230345   9.864   7.361   6.563
10035WAT      O30346   8.516   0.488   9.763
10035WAT     H130347   8.525   0.465   9.666
10035WAT     H230348   8.578   0.430   9.816
10036WAT      O30349   0.666   0.826   8.021
10036WAT     H130350   0.732   0.769   7.970
10036WAT     H230351   0.681   0.922   7.997
10037WAT      O30352   4.052   8.069   1.377
10037WAT     H130353   4.037   8.145   1.439
10037WAT     H230354   4.117   8.097   1.305
10038WAT      O30355   5.932   1.428   2.882
10038WAT     H130356   5.875   1.409   2.962
10038WAT     H230357   5.987   1.348   2.860
10039WAT      O30358   8.711   0.028   0.855
10039WAT     H130359   8.800   0.048   0.894
10039WAT     H230360   8.718   0.023   0.755
10040WAT      O30361   1.721   9.120   1.776
10040WAT     H130362   1.662   9.172   1.714
10040WAT     H230363   1.665   9.060   1.833
10041WAT      O30364   5.715   7.730   1.995
10041WAT     H130365   5.812   7.723   1.971
10041WAT     H230366   5.707   7.750   2.093
10042WAT      O30367   3.660   5.543   8.703
10042WAT     H130368   3.681   5.589   8.617
10042WAT     H230369   3.697   5.595   8.779
10043WAT      O30370   5.592   8.618   5.640
10043WAT     H130371   5.554   8.539   5.687
10043WAT     H230372   5.676   8.647   5.685
10044WAT      O30373   1.201   6.844   2.927
10044WAT     H130374   1.225   6.932   2.969
10044WAT     H230375   1.180   6.778   2.998
10045WAT      O30376   4.206   8.668   5.205
10045WAT     H130377   4.110   8.665   5.176
10045WAT     H230378   4.249   8.580   5.187
10046WAT      O30379   5.724   8.411   7.353
10046WAT     H130380   5.713   8.329   7.297
10046WAT     H230381   5.700   8.390   7.448
10047WAT      O30382   1.492   2.268   9.550
10047WAT     H130383   1.581   2.274   9.594
10047WAT     H230384   1.420   2.289   9.616
10048WAT      O30385   0.842   7.920   5.975
10048WAT     H130386   0.767   7.975   5.938
10048WAT     H230387   0.853   7.837   5.921
10049WAT      O30388   5.595   5.702   9.579
10049WAT     H130389   5.508   5.654   9.563
10049WAT     H230390   5.665   5.636   9.606
10050WAT      O30391   9.068   1.191   0.974
10050WAT     H130392   9.126   1.112   0.993
10050WAT     H230393   9.005   1.205   1.051
10051WAT      O30394   9.422   4.768   5.719
10051WAT     H130395   9.325   4.768   5.698
10051WAT     H230396   9.444   4.687   5.773
10052WAT      O30397   9.218   3.849   8.557
10052WAT     H130398   9.267   3.933   8.578
10052WAT     H230399   9.261   3.773   8.606
10053WAT      O30400   2.741   6.008   3.127
10053WAT     H130401   2.761   6.106   3.120
10053WAT     H230402   2.809   5.964   3.186
10054WAT      O30403   8.316   2.137   1.882
10054WAT     H130404   8.395   2.125   1.942
10054WAT     H230405   8.344   2.187   1.800
10055WAT      O30406   3.945   3.089   0.158
10055WAT     H130407   4.007   3.166   0.168
10055WAT     H230408   3.923   3.051   0.248
10056WAT      O30409   3.869   2.989   8.854
10056WAT     H130410   3.791   3.045   8.882
10056WAT     H230411   3.926   2.969   8.934
10057WAT      O30412   2.079   9.762   3.486
10057WAT     H130413   2.079   9.791   3.581
10057WAT     H230414   2.006   9.809   3.436
10058WAT      O30415   3.586   0.150   4.490
10058WAT     H130416   3.664   0.151   4.427
10058WAT     H230417   3.589   0.231   4.548
10059WAT      O30418   4.961   9.225   2.234
10059WAT     H130419   5.008   9.225   2.322
10059WAT     H230420   4.894   9.299   2.232
10060WAT      O30421   7.127   9.164   8.452
10060WAT     H130422   7.120   9.203   8.360
10060WAT     H230423   7.178   9.227   8.511
10061WAT      O30424   9.613   2.268   4.044
10061WAT     H130425   9.682   2.207   4.006
10061WAT     H230426   9.622   2.271   4.144
10062WAT      O30427   9.694   3.141   5.156
10062WAT     H130428   9.610   3.164   5.205
10062WAT     H230429   9.772   3.178   5.205
10063WAT      O30430   7.464   7.596   7.914
10063WAT     H130431   7.435   7.569   7.822
10063WAT     H230432   7.417   7.680   7.940
10064WAT      O30433   2.703   8.989   2.872
10064WAT     H130434   2.702   9.037   2.959
10064WAT     H230435   2.609   8.979   2.838
10065WAT      O30436   9.539   9.306   7.888
10065WAT     H130437   9.449   9.263   7.880
10065WAT     H230438   9.543   9.359   7.973
10066WAT      O30439   5.819   0.394   3.902
10066WAT     H130440   5.785   0.483   3.872
10066WAT     H230441   5.783   0.322   3.841
10067WAT      O30442   4.581   7.091   9.315
10067WAT     H130443   4.484   7.103   9.295
10067WAT     H230444   4.627   7.048   9.237
10068WAT      O30445   2.541   7.865   7.174
10068WAT     H130446   2.563   7.810   7.093
10068WAT     H230447   2.458   7.918   7.155
10069WAT      O30448   4.797   7.081   9.658
10069WAT     H130449   4.782   7.169   9.613
10069WAT     H230450   4.797   7.009   9.589
10070WAT      O30451   8.748   5.664   8.675
10070WAT     H130452   8.814   5.589   8.681
10070WAT     H230453   8.674   5.637   8.612
10071WAT      O30454   8.093   7.513   8.765
10071WAT     H130455   8.190   7.490   8.759
10071WAT     H230456   8.057   7.482   8.853
10072WAT      O30457   7.361   9.394   8.463
10072WAT     H130458   7.318   9.455   8.396
10072WAT     H230459   7.421   9.330   8.415
10073WAT      O30460   7.070   9.211   0.405
10073WAT     H130461   7.148   9.148   0.409
10073WAT     H230462   7.087   9.290   0.464
10074WAT      O30463   6.043   8.539   2.122
10074WAT     H130464   6.005   8.449   2.099
10074WAT     H230465   6.017   8.604   2.051
10075WAT      O30466   8.497   7.151   9.605
10075WAT     H130467   8.542   7.125   9.519
10075WAT     H230468   8.531   7.093   9.679
10076WAT      O30469   8.012   4.227   0.865
10076WAT     H130470   7.957   4.260   0.941
10076WAT     H230471   7.980   4.267   0.780
10077WAT      O30472   9.663   5.123   6.763
10077WAT     H130473   9.601   5.202   6.753
10077WAT     H230474   9.696   5.095   6.673
10078WAT      O30475   0.855   9.048   9.764
10078WAT     H130476   0.779   9.036   9.700
10078WAT     H230477   0.850   8.978   9.835
10079WAT      O30478   6.715   0.948   3.257
10079WAT     H130479   6.688   0.999   3.175
10079WAT     H230480   6.636   0.898   3.292
10080WAT      O30481   4.416   8.238   2.349
10080WAT     H130482   4.351   8.269   2.278
10080WAT     H230483   4.440   8.143   2.333
10081WAT      O30484   3.040   0.721   5.460
10081WAT     H130485   3.020   0.712   5.363
10081WAT     H230486   3.079   0.812   5.478
10082WAT      O30487   3.503   6.878   4.562
10082WAT     H130488   3.555   6.821   4.625
10082WAT     H230489   3.406   6.873   4.583
10083WAT      O30490   9.505   6.050   0.184
10083WAT     H130491   9.483   5.955   0.206
10083WAT     H230492   9.422   6.098   0.157
10084WAT      O30493   7.415   8.009   0.480
10084WAT     H130494   7.340   8.022   0.415
10084WAT     H230495   7.462   7.923   0.460
10085WAT      O30496   0.087   8.823   6.941
10085WAT     H130497  -0.008   8.811   6.971
10085WAT     H230498   0.090   8.826   6.841
10086WAT      O30499   4.164   8.715   3.305
10086WAT     H130500   4.084   8.775   3.301
10086WAT     H230501   4.231   8.743   3.236
10087WAT      O30502   2.960   1.757   8.344
10087WAT     H130503   2.995   1.728   8.255
10087WAT     H230504   2.884   1.697   8.370
10088WAT      O30505   5.166   9.555   6.948
10088WAT     H130506   5.109   9.627   6.986
10088WAT     H230507   5.261   9.587   6.943
10089WAT      O30508   8.939   3.768   7.268
10089WAT     H130509   8.965   3.864   7.260
10089WAT     H230510   8.966   3.733   7.358
10090WAT      O30511   2.712   9.405   8.869
10090WAT     H130512   2.729   9.447   8.958
10090WAT     H230513   2.799   9.393   8.821
10091WAT      O30514   5.603   2.391   2.268
10091WAT     H130515   5.587   2.293   2.257
10091WAT     H230516   5.544   2.427   2.340
10092WAT      O30517   3.360   1.871   6.258
10092WAT     H130518   3.451   1.893   6.293
10092WAT     H230519   3.325   1.948   6.205
10093WAT      O30520   8.499   1.926   5.225
10093WAT     H130521   8.458   1.932   5.316
10093WAT     H230522   8.479   1.836   5.185
10094WAT      O30523   1.551   4.510   1.504
10094WAT     H130524   1.516   4.597   1.540
10094WAT     H230525   1.568   4.447   1.580
10095WAT      O30526   0.832   3.697   9.240
10095WAT     H130527   0.750   3.640   9.240
10095WAT     H230528   0.870   3.700   9.147
10096WAT      O30529   4.993   3.397   7.800
10096WAT     H130530   4.980   3.450   7.884
10096WAT     H230531   5.078   3.344   7.807
10097WAT      O30532   3.591   8.738   7.573
10097WAT     H130533   3.687   8.711   7.567
10097WAT     H230534   3.584   8.836   7.559
10098WAT      O30535   8.952   8.820   2.073
10098WAT     H130536   8.876   8.755   2.079
10098WAT     H230537   8.942   8.890   2.144
10099WAT      O30538   5.660   7.542   2.629
10099WAT     H130539   5.665   7.485   2.711
10099WAT     H230540   5.591   7.505   2.567
10100WAT      O30541   2.987   0.191   8.720
10100WAT     H130542   3.047   0.113   8.705
10100WAT     H230543   3.002   0.259   8.649
10101WAT      O30544   3.085   4.717   8.219
10101WAT     H130545   3.007   4.743   8.161
10101WAT     H230546   3.069   4.749   8.312
10102WAT      O30547   8.813   6.030   1.121
10102WAT     H130548   8.807   6.058   1.216
10102WAT     H230549   8.796   6.109   1.062
10103WAT      O30550   9.726   5.678   9.718
10103WAT     H130551   9.664   5.613   9.673
10103WAT     H230552   9.708   5.770   9.684
10104WAT      O30553   3.878   5.550   0.657
10104WAT     H130554   3.865   5.471   0.716
10104WAT     H230555   3.793   5.603   0.652
10105WAT      O30556   0.240   4.563   5.309
10105WAT     H130557   0.246   4.663   5.312
10105WAT     H230558   0.159   4.536   5.256
10106WAT      O30559   3.190   1.213   1.221
10106WAT     H130560   3.281   1.228   1.184
10106WAT     H230561   3.197   1.170   1.311
10107WAT      O30562   7.637   8.972   5.405
10107WAT     H130563   7.675   8.960   5.313
10107WAT     H230564   7.692   8.920   5.471
10108WAT      O30565   3.291   2.960   8.782
10108WAT     H130566   3.311   3.057   8.768
10108WAT     H230567   3.193   2.948   8.793
10109WAT      O30568   0.789   1.841   5.143
10109WAT     H130569   0.846   1.766   5.109
10109WAT     H230570   0.842   1.926   5.141
10110WAT      O30571   0.846   3.504   1.547
10110WAT     H130572   0.940   3.537   1.547
10110WAT     H230573   0.820   3.476   1.639
10111WAT      O30574   6.587   6.010   6.592
10111WAT     H130575   6.585   6.063   6.507
10111WAT     H230576   6.532   6.055   6.662
10112WAT      O30577   2.971   2.111   6.072
10112WAT     H130578   3.034   2.035   6.056
10112WAT     H230579   2.898   2.082   6.135
10113WAT      O30580   3.529   7.942   3.005
10113WAT     H130581   3.465   8.006   2.962
10113WAT     H230582   3.600   7.993   3.053
10114WAT      O30583   6.561   8.607   0.785
10114WAT     H130584   6.565   8.507   0.777
10114WAT     H230585   6.473   8.633   0.825
10115WAT      O30586   6.446   6.758   0.168
10115WAT     H130587   6.426   6.829   0.236
10115WAT     H230588   6.388   6.773   0.088
10116WAT      O30589   7.003   8.617   1.039
10116WAT     H130590   7.084   8.561   1.023
10116WAT     H230591   7.032   8.706   1.074
10117WAT      O30592   6.421   6.087   1.142
10117WAT     H130593   6.465   6.126   1.060
10117WAT     H230594   6.476   6.012   1.176
10118WAT      O30595   5.409   3.198   5.185
10118WAT     H130596   5.362   3.284   5.208
10118WAT     H230597   5.439   3.153   5.269
10119WAT      O30598   4.718   0.378   6.572
10119WAT     H130599   4.658   0.307   6.608
10119WAT     H230600   4.768   0.422   6.647
10120WAT      O30601   5.688   4.673   1.595
10120WAT     H130602   5.713   4.698   1.502
10120WAT     H230603   5.768   4.636   1.643
10121WAT      O30604   4.652   9.380   6.601
10121WAT     H130605   4.720   9.307   6.596
10121WAT     H230606   4.592   9.364   6.679
10122WAT      O30607   0.144   3.812   2.249
10122WAT     H130608   0.140   3.726   2.198
10122WAT     H230609   0.237   3.847   2.248
10123WAT      O30610   1.280   3.557   9.699
10123WAT     H130611   1.189   3.563   9.740
10123WAT     H230612   1.349   3.562   9.771
10124WAT      O30613   0.240   1.192   8.663
10124WAT     H130614   0.283   1.195   8.753
10124WAT     H230615   0.184   1.274   8.650
10125WAT      O30616   2.066   7.520   4.642
10125WAT     H130617   2.048   7.450   4.711
10125WAT     H230618   2.155   7.502   4.599
10126WAT      O30619   7.462   5.721   0.910
10126WAT     H130620   7.367   5.749   0.917
10126WAT     H230621   7.468   5.621   0.916
10127WAT      O30622   3.207   2.049   1.220
10127WAT     H130623   3.186   1.989   1.143
10127WAT     H230624   3.288   2.103   1.199
10128WAT      O30625   3.701   6.469   0.377
10128WAT     H130626   3.698   6.426   0.467
10128WAT     H230627   3.619   6.524   0.363
10129WAT      O30628   4.541   7.184   0.833
10129WAT     H130629   4.499   7.258   0.780
10129WAT     H230630   4.568   7.218   0.923
10130WAT      O30631   0.735   0.667   9.720
10130WAT     H130632   0.776   0.629   9.803
10130WAT     H230633   0.751   0.605   9.643
10131WAT      O30634   7.692   1.469   3.193
10131WAT     H130635   7.731   1.505   3.278
10131WAT     H230636   7.752   1.493   3.117
10132WAT      O30637   2.514   2.586   1.784
10132WAT     H130638   2.475   2.494   1.781
10132WAT     H230639   2.453   2.650   1.737
10133WAT      O30640   7.864   8.249   7.062
10133WAT     H130641   7.953   8.227   7.024
10133WAT     H230642   7.865   8.342   7.098
10134WAT      O30643   6.407   7.232   2.438
10134WAT     H130644   6.469   7.159   2.409
10134WAT     H230645   6.326   7.232   2.380
10135WAT      O30646   2.281   3.497   7.319
10135WAT     H130647   2.237   3.465   7.235
10135WAT     H230648   2.358   3.557   7.296
10136WAT      O30649   2.683   4.357   3.864
10136WAT     H130650   2.773   4.355   3.905
10136WAT     H230651   2.613   4.349   3.935
10137WAT      O30652   0.311   3.598   5.160
10137WAT     H130653   0.281   3.582   5.254
10137WAT     H230654   0.244   3.560   5.096
10138WAT      O30655   2.501   0.758   6.512
10138WAT     H130656   2.491   0.668   6.556
10138WAT     H230657   2.596   0.788   6.520
10139WAT      O30658   8.424   1.821   9.514
10139WAT     H130659   8.522   1.817   9.494
10139WAT     H230660   8.389   1.728   9.527
10140WAT      O30661   9.648   3.384   0.168
10140WAT     H130662   9.640   3.456   0.237
10140WAT     H230663   9.574   3.318   0.180
10141WAT      O30664   5.756   6.765   1.882
10141WAT     H130665   5.841   6.737   1.928
10141WAT     H230666   5.739   6.862   1.900
10142WAT      O30667   4.994   2.400   8.777
10142WAT     H130668   4.976   2.401   8.875
10142WAT     H230669   4.919   2.353   8.730
10143WAT      O30670   4.541   6.200   5.873
10143WAT     H130671   4.462   6.163   5.922
10143WAT     H230672   4.624   6.187   5.928
10144WAT      O30673   0.661   8.443   6.446
10144WAT     H130674   0.702   8.445   6.355
10144WAT     H230675   0.562   8.458   6.439
10145WAT      O30676   0.748   1.171   8.989
10145WAT     H130677   0.843   1.191   9.013
10145WAT     H230678   0.743   1.149   8.892
10146WAT      O30679   1.700   1.056   1.761
10146WAT     H130680   1.738   1.130   1.707
10146WAT     H230681   1.600   1.065   1.765
10147WAT      O30682   4.394   6.982   2.688
10147WAT     H130683   4.398   7.051   2.761
10147WAT     H230684   4.476   6.926   2.691
10148WAT      O30685   7.080   5.672   5.452
10148WAT     H130686   7.094   5.736   5.527
10148WAT     H230687   7.145   5.596   5.461
10149WAT      O30688   3.862   4.260   9.852
10149WAT     H130689   3.944   4.257   9.794
10149WAT     H230690   3.783   4.228   9.800
10150WAT      O30691   5.420   0.997   6.647
10150WAT     H130692   5.394   0.906   6.678
10150WAT     H230693   5.504   0.991   6.593
10151WAT      O30694   8.668   0.079   3.430
10151WAT     H130695   8.589   0.041   3.477
10151WAT     H230696   8.749   0.069   3.487
10152WAT      O30697   6.996   6.231   2.833
10152WAT     H130698   7.070   6.279   2.786
10152WAT     H230699   6.919   6.292   2.846
10153WAT      O30700   2.690   6.354   3.758
10153WAT     H130701   2.598   6.387   3.776
10153WAT     H230702   2.743   6.426   3.712
10154WAT      O30703   4.693   0.094   1.014
10154WAT     H130704   4.644   0.014   0.979
10154WAT     H230705   4.761   0.123   0.947
10155WAT      O30706   9.176   0.706   0.584
10155WAT     H130707   9.088   0.705   0.536
10155WAT     H230708   9.245   0.660   0.529
10156WAT      O30709   5.821   3.424   1.832
10156WAT     H130710   5.749   3.484   1.866
10156WAT     H230711   5.808   3.332   1.869
10157WAT      O30712   6.269   4.661   2.398
10157WAT     H130713   6.268   4.746   2.451
10157WAT     H230714   6.361   4.624   2.396
10158WAT      O30715   7.467   0.612   6.390
10158WAT     H130716   7.498   0.681   6.455
10158WAT     H230717   7.505   0.631   6.300
10159WAT      O30718   7.309   7.575   7.158
10159WAT     H130719   7.275   7.631   7.234
10159WAT     H230720   7.298   7.625   7.072
10160WAT      O30721   7.510   3.119   9.333
10160WAT     H130722   7.488   3.209   9.371
10160WAT     H230723   7.444   3.096   9.261
10161WAT      O30724   7.672   6.997   3.098
10161WAT     H130725   7.715   6.938   3.166
10161WAT     H230726   7.677   7.092   3.129
10162WAT      O30727   4.006   6.390   2.402
10162WAT     H130728   4.003   6.327   2.479
10162WAT     H230729   3.965   6.477   2.428
10163WAT      O30730   9.226   3.468   8.966
10163WAT     H130731   9.146   3.421   9.002
10163WAT     H230732   9.272   3.516   9.040
10164WAT      O30733   2.188   4.178   4.645
10164WAT     H130734   2.261   4.209   4.707
10164WAT     H230735   2.134   4.257   4.616
10165WAT      O30736   0.431   7.675   3.584
10165WAT     H130737   0.473   7.745   3.642
10165WAT     H230738   0.484   7.667   3.499
10166WAT      O30739   0.386   5.771   0.537
10166WAT     H130740   0.300   5.822   0.536
10166WAT     H230741   0.461   5.833   0.560
10167WAT      O30742   4.380   2.105   6.830
10167WAT     H130743   4.479   2.096   6.834
10167WAT     H230744   4.350   2.176   6.894
10168WAT      O30745   4.680   8.530   0.447
10168WAT     H130746   4.660   8.435   0.473
10168WAT     H230747   4.674   8.589   0.527
10169WAT      O30748   2.929   5.006   1.196
10169WAT     H130749   3.022   5.035   1.175
10169WAT     H230750   2.919   4.995   1.295
10170WAT      O30751   7.854   6.233   1.673
10170WAT     H130752   7.900   6.304   1.621
10170WAT     H230753   7.755   6.239   1.657
10171WAT      O30754   9.409   2.587   9.094
10171WAT     H130755   9.317   2.588   9.134
10171WAT     H230756   9.468   2.526   9.148
10172WAT      O30757   7.012   6.038   9.361
10172WAT     H130758   6.961   6.065   9.443
10172WAT     H230759   7.090   5.982   9.388
10173WAT      O30760   8.077   8.746   0.616
10173WAT     H130761   8.137   8.813   0.573
10173WAT     H230762   8.116   8.655   0.606
10174WAT      O30763   9.181   8.093   6.091
10174WAT     H130764   9.120   8.076   6.168
10174WAT     H230765   9.197   8.192   6.083
10175WAT      O30766   1.999   8.451   8.863
10175WAT     H130767   1.996   8.395   8.945
10175WAT     H230768   2.093   8.483   8.847
10176WAT      O30769   6.670   7.520   2.945
10176WAT     H130770   6.745   7.566   2.898
10176WAT     H230771   6.589   7.578   2.944
10177WAT      O30772   4.778   9.073   1.174
10177WAT     H130773   4.803   8.991   1.226
10177WAT     H230774   4.852   9.140   1.180
10178WAT      O30775   9.769   5.531   3.199
10178WAT     H130776   9.786   5.617   3.246
10178WAT     H230777   9.705   5.546   3.124
10179WAT      O30778   0.324   0.416   8.631
10179WAT     H130779   0.285   0.356   8.701
10179WAT     H230780   0.364   0.360   8.558
10180WAT      O30781   2.929   6.603   7.274
10180WAT     H130782   2.845   6.588   7.222
10180WAT     H230783   2.906   6.615   7.371
10181WAT      O30784   8.674   2.015   5.647
10181WAT     H130785   8.686   2.114   5.650
10181WAT     H230786   8.727   1.972   5.720
10182WAT      O30787   4.259   6.856   9.633
10182WAT     H130788   4.322   6.933   9.629
10182WAT     H230789   4.281   6.799   9.713
10183WAT      O30790   6.140   5.731   5.536
10183WAT     H130791   6.171   5.814   5.583
10183WAT     H230792   6.219   5.683   5.498
10184WAT      O30793   6.882   8.500   7.923
10184WAT     H130794   6.888   8.598   7.908
10184WAT     H230795   6.958   8.455   7.876
10185WAT      O30796   8.764   8.338   6.006
10185WAT     H130797   8.680   8.294   5.976
10185WAT     H230798   8.760   8.355   6.104
10186WAT      O30799   0.805   8.646   9.382
10186WAT     H130800   0.893   8.679   9.416
10186WAT     H230801   0.756   8.721   9.338
10187WAT      O30802   5.631   4.567   5.696
10187WAT     H130803   5.648   4.486   5.639
10187WAT     H230804   5.643   4.649   5.641
10188WAT      O30805   4.539   1.100   8.309
10188WAT     H130806   4.598   1.181   8.306
10188WAT     H230807   4.532   1.067   8.403
10189WAT      O30808   8.593   9.001   2.825
10189WAT     H130809   8.660   8.978   2.753
10189WAT     H230810   8.584   9.100   2.832
10190WAT      O30811   4.656   1.273   2.807
10190WAT     H130812   4.588   1.283   2.735
10190WAT     H230813   4.707   1.187   2.793
10191WAT      O30814   2.936   8.433   5.214
10191WAT     H130815   3.024   8.404   5.176
10191WAT     H230816   2.928   8.533   5.206
10192WAT      O30817   4.014   0.317   1.851
10192WAT     H130818   4.112   0.302   1.835
10192WAT     H230819   4.001   0.363   1.939
10193WAT      O30820   4.537   4.547   0.103
10193WAT     H130821   4.525   4.582   0.010
10193WAT     H230822   4.632   4.561   0.132
10194WAT      O30823   1.591   3.552   1.088
10194WAT     H130824   1.493   3.574   1.092
10194WAT     H230825   1.642   3.634   1.062
10195WAT      O30826   3.252   4.558   7.072
10195WAT     H130827   3.255   4.657   7.087
10195WAT     H230828   3.199   4.538   6.990
10196WAT      O30829   8.457   2.702   3.176
10196WAT     H130830   8.501   2.657   3.099
10196WAT     H230831   8.361   2.718   3.155
10197WAT      O30832   8.019   2.190   8.214
10197WAT     H130833   8.050   2.211   8.307
10197WAT     H230834   8.032   2.093   8.195
10198WAT      O30835   5.981   7.708   1.948
10198WAT     H130836   6.077   7.684   1.964
10198WAT     H230837   5.974   7.773   1.872
10199WAT      O30838   1.262   5.566   6.179
10199WAT     H130839   1.190   5.636   6.180
10199WAT     H230840   1.266   5.523   6.089
10200WAT      O30841   6.535   1.125   1.565
10200WAT     H130842   6.595   1.183   1.509
10200WAT     H230843   6.442   1.159   1.560
10201WAT      O30844   9.362   3.567   2.324
10201WAT     H130845   9.312   3.617   2.253
10201WAT     H230846   9.353   3.615   2.411
10202WAT      O30847   1.970   2.189   5.596
10202WAT     H130848   2.013   2.262   5.544
10202WAT     H230849   2.007   2.188   5.689
10203WAT      O30850   3.634   0.518   9.324
10203WAT     H130851   3.727   0.516   9.289
10203WAT     H230852   3.622   0.447   9.393
10204WAT      O30853   5.917   0.068   0.998
10204WAT     H130854   5.961  -0.005   1.050
10204WAT     H230855   5.984   0.111   0.938
10205WAT      O30856   3.525   4.183   7.158
10205WAT     H130857   3.495   4.124   7.232
10205WAT     H230858   3.563   4.128   7.084
10206WAT      O30859   4.828   4.912   1.825
10206WAT     H130860   4.920   4.877   1.841
10206WAT     H230861   4.827   4.965   1.740
10207WAT      O30862   8.237   0.718   1.730
10207WAT     H130863   8.220   0.712   1.632
10207WAT     H230864   8.334   0.702   1.749
10208WAT      O30865   5.152   1.455   4.684
10208WAT     H130866   5.178   1.543   4.644
10208WAT     H230867   5.205   1.382   4.641
10209WAT      O30868   8.847   3.199   5.749
10209WAT     H130869   8.926   3.154   5.707
10209WAT     H230870   8.810   3.268   5.687
10210WAT      O30871   6.696   1.868   7.564
10210WAT     H130872   6.746   1.954   7.574
10210WAT     H230873   6.608   1.885   7.520
10211WAT      O30874   1.436   4.575   1.847
10211WAT     H130875   1.380   4.645   1.893
10211WAT     H230876   1.485   4.521   1.916
10212WAT      O30877   3.480   8.505   9.467
10212WAT     H130878   3.558   8.533   9.410
10212WAT     H230879   3.396   8.513   9.413
10213WAT      O30880   7.500   1.230   3.694
10213WAT     H130881   7.428   1.163   3.675
10213WAT     H230882   7.463   1.322   3.687
10214WAT      O30883   1.265   9.402   8.178
10214WAT     H130884   1.246   9.497   8.153
10214WAT     H230885   1.205   9.342   8.126
10215WAT      O30886   1.767   3.646   3.973
10215WAT     H130887   1.811   3.721   4.021
10215WAT     H230888   1.819   3.624   3.890
10216WAT      O30889   9.556   0.214   8.441
10216WAT     H130890   9.637   0.171   8.402
10216WAT     H230891   9.573   0.235   8.537
10217WAT      O30892   7.333   3.889   8.076
10217WAT     H130893   7.370   3.964   8.132
10217WAT     H230894   7.237   3.907   8.057
10218WAT      O30895   5.839   6.870   3.588
10218WAT     H130896   5.842   6.775   3.619
10218WAT     H230897   5.745   6.895   3.566
10219WAT      O30898   2.557   2.798   2.868
10219WAT     H130899   2.602   2.886   2.852
10219WAT     H230900   2.495   2.779   2.792
10220WAT      O30901   0.638   4.251   5.044
10220WAT     H130902   0.630   4.316   4.968
10220WAT     H230903   0.634   4.157   5.009
10221WAT      O30904   1.617   3.392   4.940
10221WAT     H130905   1.680   3.328   4.983
10221WAT     H230906   1.667   3.451   4.877
10222WAT      O30907   4.229   6.019   2.546
10222WAT     H130908   4.245   5.920   2.554
10222WAT     H230909   4.190   6.040   2.457
10223WAT      O30910   7.475   0.967   7.257
10223WAT     H130911   7.543   0.992   7.325
10223WAT     H230912   7.384   0.970   7.298
10224WAT      O30913   9.686   3.297   3.126
10224WAT     H130914   9.598   3.286   3.172
10224WAT     H230915   9.677   3.266   3.031
10225WAT      O30916   5.627   4.499   8.159
10225WAT     H130917   5.703   4.439   8.134
10225WAT     H230918   5.579   4.529   8.076
10226WAT      O30919   8.268   6.006   3.613
10226WAT     H130920   8.340   6.047   3.557
10226WAT     H230921   8.307   5.934   3.670
10227WAT      O30922   4.605   3.425   6.194
10227WAT     H130923   4.571   3.511   6.154
10227WAT     H230924   4.685   3.444   6.251
10228WAT      O30925   5.569   2.030   4.174
10228WAT     H130926   5.652   2.073   4.139
10228WAT     H230927   5.489   2.075   4.134
10229WAT      O30928   7.254   6.603   9.193
10229WAT     H130929   7.197   6.525   9.222
10229WAT     H230930   7.263   6.668   9.268
10230WAT      O30931   4.131   0.900   3.503
10230WAT     H130932   4.046   0.940   3.539
10230WAT     H230933   4.138   0.805   3.533
10231WAT      O30934   9.110   8.149   0.492
10231WAT     H130935   9.091   8.174   0.397
10231WAT     H230936   9.187   8.203   0.525
10232WAT      O30937   2.071   2.039   1.108
10232WAT     H130938   2.067   1.963   1.174
10232WAT     H230939   1.992   2.034   1.047
10233WAT      O30940   1.928   3.606   7.708
10233WAT     H130941   1.995   3.587   7.637
10233WAT     H230942   1.889   3.521   7.742
10234WAT      O30943   6.068   2.303   3.050
10234WAT     H130944   6.117   2.326   3.134
10234WAT     H230945   6.004   2.229   3.068
10235WAT      O30946   3.766   6.643   7.150
10235WAT     H130947   3.812   6.656   7.062
10235WAT     H230948   3.693   6.575   7.139
10236WAT      O30949   4.674   0.801   7.152
10236WAT     H130950   4.601   0.735   7.131
10236WAT     H230951   4.725   0.769   7.231
10237WAT      O30952   9.718   8.604   4.686
10237WAT     H130953   9.639   8.641   4.639
10237WAT     H230954   9.688   8.556   4.768
10238WAT      O30955   8.276   6.935   7.886
10238WAT     H130956   8.266   6.941   7.986
10238WAT     H230957   8.353   6.875   7.864
10239WAT      O30958   9.246   8.750   2.405
10239WAT     H130959   9.206   8.839   2.382
10239WAT     H230960   9.199   8.713   2.485
10240WAT      O30961   9.808   2.339   7.243
10240WAT     H130962   9.763   2.250   7.239
10240WAT     H230963   9.900   2.332   7.204
10241WAT      O30964   5.669   7.824   4.621
10241WAT     H130965   5.623   7.809   4.709
10241WAT     H230966   5.687   7.736   4.578
10242WAT      O30967   7.568   2.097   9.567
10242WAT     H130968   7.547   2.005   9.600
10242WAT     H230969   7.528   2.109   9.476
10243WAT      O30970   9.268   5.307   0.362
10243WAT     H130971   9.257   5.361   0.446
10243WAT     H230972   9.300   5.215   0.386
10244WAT      O30973   8.892   0.716   3.857
10244WAT     H130974   8.833   0.681   3.784
10244WAT     H230975   8.837   0.768   3.923
10245WAT      O30976   7.548   8.033   8.888
10245WAT     H130977   7.530   8.094   8.965
10245WAT     H230978   7.498   7.947   8.902
10246WAT      O30979   4.475   3.482   6.937
10246WAT     H130980   4.453   3.574   6.969
10246WAT     H230981   4.439   3.415   7.001
10247WAT      O30982   8.538   2.268   8.579
10247WAT     H130983   8.620   2.217   8.604
10247WAT     H230984   8.496   2.307   8.660
10248WAT      O30985   6.944   6.079   4.405
10248WAT     H130986   6.940   6.149   4.477
10248WAT     H230987   6.863   6.088   4.347
10249WAT      O30988   1.686   4.813   8.016
10249WAT     H130989   1.660   4.854   7.928
10249WAT     H230990   1.779   4.776   8.009
10250WAT      O30991   4.595   6.430   9.670
10250WAT     H130992   4.639   6.492   9.605
10250WAT     H230993   4.599   6.336   9.636
10251WAT      O30994   7.670   4.753   1.194
10251WAT     H130995   7.616   4.826   1.152
10251WAT     H230996   7.762   4.788   1.215
10252WAT      O30997   2.431   0.977   8.561
10252WAT     H130998   2.429   1.024   8.649
10252WAT     H230999   2.343   0.990   8.514
10253WAT      O31000   8.234   4.237   8.165
10253WAT     H131001   8.306   4.300   8.137
10253WAT     H231002   8.217   4.248   8.263
10254WAT      O31003   2.656   9.229   9.646
10254WAT     H131004   2.597   9.288   9.702
10254WAT     H231005   2.612   9.209   9.559
10255WAT      O31006   0.450   3.900   9.664
10255WAT     H131007   0.500   3.824   9.705
10255WAT     H231008   0.491   3.923   9.576
10256WAT      O31009   8.028   1.732   3.217
10256WAT     H131010   8.068   1.724   3.309
10256WAT     H231011   8.094   1.700   3.149
10257WAT      O31012   9.086   9.157   1.045
10257WAT     H131013   9.114   9.152   1.140
10257WAT     H231014   9.166   9.170   0.987
10258WAT      O31015   1.287   9.794   2.451
10258WAT     H131016   1.309   9.698   2.467
10258WAT     H231017   1.204   9.818   2.500
10259WAT      O31018   8.156   1.541   6.801
10259WAT     H131019   8.162   1.573   6.895
10259WAT     H231020   8.100   1.458   6.797
10260WAT      O31021   2.778   3.381   0.126
10260WAT     H131022   2.866   3.411   0.089
10260WAT     H231023   2.793   3.306   0.190
10261WAT      O31024   1.473   0.755   4.405
10261WAT     H131025   1.419   0.763   4.489
10261WAT     H231026   1.505   0.846   4.377
10262WAT      O31027   1.037   3.414   5.854
10262WAT     H131028   1.006   3.379   5.765
10262WAT     H231029   1.098   3.492   5.841
10263WAT      O31030   8.307   5.949   3.168
10263WAT     H131031   8.362   5.876   3.207
10263WAT     H231032   8.225   5.963   3.223
10264WAT      O31033   9.427   8.563   6.150
10264WAT     H131034   9.485   8.600   6.222
10264WAT     H231035   9.360   8.632   6.122
10265WAT      O31036   8.356   8.072   1.355
10265WAT     H131037   8.302   7.989   1.344
10265WAT     H231038   8.448   8.048   1.386
10266WAT      O31039   6.202   7.675   3.552
10266WAT     H131040   6.168   7.761   3.514
10266WAT     H231041   6.276   7.640   3.494
10267WAT      O31042   2.130   1.697   2.948
10267WAT     H131043   2.077   1.753   3.012
10267WAT     H231044   2.067   1.644   2.891
10268WAT      O31045   4.247   8.566   5.566
10268WAT     H131046   4.263   8.662   5.543
10268WAT     H231047   4.149   8.550   5.577
10269WAT      O31048   0.438   5.773   3.303
10269WAT     H131049   0.499   5.769   3.382
10269WAT     H231050   0.451   5.861   3.256
10270WAT      O31051   3.751   9.424   7.312
10270WAT     H131052   3.846   9.392   7.315
10270WAT     H231053   3.716   9.413   7.219
10271WAT      O31054   4.918   4.494   9.502
10271WAT     H131055   4.935   4.442   9.586
10271WAT     H231056   4.977   4.575   9.500
10272WAT      O31057   0.672   8.941   2.760
10272WAT     H131058   0.699   9.037   2.762
10272WAT     H231059   0.699   8.901   2.672
10273WAT      O31060   2.131   1.956   7.857
10273WAT     H131061   2.132   1.890   7.783
10273WAT     H231062   2.163   2.045   7.823
10274WAT      O31063   6.090   8.038   7.695
10274WAT     H131064   6.179   8.017   7.655
10274WAT     H231065   6.087   8.134   7.722
10275WAT      O31066   6.322   2.360   7.047
10275WAT     H131067   6.295   2.319   7.134
10275WAT     H231068   6.308   2.459   7.051
10276WAT      O31069   8.851   9.849   9.824
10276WAT     H131070   8.921   9.835   9.894
10276WAT     H231071   8.830   9.762   9.780
10277WAT      O31072   5.884   7.337   6.306
10277WAT     H131073   5.889   7.323   6.404
10277WAT     H231074   5.812   7.403   6.285
10278WAT      O31075   9.465   4.048   0.910
10278WAT     H131076   9.523   3.998   0.846
10278WAT     H231077   9.370   4.021   0.898
10279WAT      O31078   7.452   1.697   7.622
10279WAT     H131079   7.410   1.787   7.611
10279WAT     H231080   7.382   1.626   7.616
10280WAT      O31081   8.865   1.476   2.181
10280WAT     H131082   8.766   1.483   2.169
10280WAT     H231083   8.889   1.381   2.204
10281WAT      O31084   3.657   7.420   3.559
10281WAT     H131085   3.711   7.452   3.482
10281WAT     H231086   3.710   7.353   3.611
10282WAT      O31087   0.026   3.266   7.101
10282WAT     H131088  -0.060   3.281   7.053
10282WAT     H231089   0.101   3.259   7.036
10283WAT      O31090   7.117   9.150   5.589
10283WAT     H131091   7.143   9.070   5.642
10283WAT     H231092   7.103   9.228   5.649
10284WAT      O31093   8.147   8.861   5.556
10284WAT     H131094   8.173   8.826   5.466
10284WAT     H231095   8.196   8.946   5.574
10285WAT      O31096   0.258   0.127   5.635
10285WAT     H131097   0.321   0.172   5.698
10285WAT     H231098   0.183   0.086   5.688
10286WAT      O31099   7.757   7.527   9.189
10286WAT     H131100   7.838   7.574   9.154
10286WAT     H231101   7.728   7.458   9.123
10287WAT      O31102   5.520   3.593   4.074
10287WAT     H131103   5.613   3.557   4.068
10287WAT     H231104   5.455   3.523   4.044
10288WAT      O31105   9.224   8.386   5.823
10288WAT     H131106   9.308   8.389   5.877
10288WAT     H231107   9.145   8.400   5.884
10289WAT      O31108   4.039   2.290   6.278
10289WAT     H131109   4.020   2.237   6.195
10289WAT     H231110   4.127   2.263   6.316
10290WAT      O31111   4.008   6.230   1.738
10290WAT     H131112   3.919   6.274   1.754
10290WAT     H231113   3.995   6.131   1.732
10291WAT      O31114   9.283   9.278   9.415
10291WAT     H131115   9.297   9.193   9.466
10291WAT     H231116   9.365   9.335   9.422
10292WAT      O31117   4.086   6.898   4.525
10292WAT     H131118   4.106   6.988   4.485
10292WAT     H231119   4.040   6.841   4.457
10293WAT      O31120   9.213   7.103   3.384
10293WAT     H131121   9.121   7.134   3.361
10293WAT     H231122   9.265   7.178   3.424
10294WAT      O31123   7.862   8.033   1.718
10294WAT     H131124   7.792   8.011   1.650
10294WAT     H231125   7.952   8.038   1.674
10295WAT      O31126   9.287   4.507   0.756
10295WAT     H131127   9.238   4.472   0.676
10295WAT     H231128   9.351   4.438   0.789
10296WAT      O31129   0.288   7.888   6.041
10296WAT     H131130   0.255   7.938   5.960
10296WAT     H231131   0.367   7.935   6.079
10297WAT      O31132   1.250   3.821   3.648
10297WAT     H131133   1.303   3.880   3.708
10297WAT     H231134   1.301   3.805   3.563
10298WAT      O31135   9.020   8.942   8.219
10298WAT     H131136   9.104   8.927   8.166
10298WAT     H231137   9.042   8.937   8.317
10299WAT      O31138   0.498   9.389   8.577
10299WAT     H131139   0.453   9.472   8.608
10299WAT     H231140   0.484   9.379   8.478
10300WAT      O31141   8.127   8.323   3.358
10300WAT     H131142   8.170   8.406   3.323
10300WAT     H231143   8.070   8.346   3.437
10301WAT      O31144   8.068   2.789   0.456
10301WAT     H131145   7.970   2.800   0.441
10301WAT     H231146   8.110   2.756   0.371
10302WAT      O31147   8.439   7.554   8.429
10302WAT     H131148   8.483   7.528   8.515
10302WAT     H231149   8.510   7.572   8.360
10303WAT      O31150   2.218   2.795   2.933
10303WAT     H131151   2.276   2.782   2.852
10303WAT     H231152   2.250   2.875   2.984
10304WAT      O31153   1.639   2.311   0.932
10304WAT     H131154   1.714   2.376   0.946
10304WAT     H231155   1.659   2.226   0.981
10305WAT      O31156   6.965   3.339   3.916
10305WAT     H131157   6.987   3.267   3.981
10305WAT     H231158   6.884   3.313   3.863
10306WAT      O31159   6.014   8.307   5.915
10306WAT     H131160   6.069   8.370   5.970
10306WAT     H231161   6.035   8.213   5.943
10307WAT      O31162   5.124   4.447   0.087
10307WAT     H131163   5.110   4.413  -0.005
10307WAT     H231164   5.218   4.429   0.116
10308WAT      O31165   9.002   2.712   8.907
10308WAT     H131166   9.029   2.805   8.931
10308WAT     H231167   8.903   2.708   8.893
10309WAT      O31168   8.112   1.371   1.485
10309WAT     H131169   8.106   1.411   1.576
10309WAT     H231170   8.168   1.430   1.426
10310WAT      O31171   6.554   0.476   1.891
10310WAT     H131172   6.566   0.553   1.829
10310WAT     H231173   6.643   0.436   1.912
10311WAT      O31174   9.545   1.350   1.882
10311WAT     H131175   9.606   1.407   1.937
10311WAT     H231176   9.486   1.296   1.942
10312WAT      O31177   5.954   3.510   0.883
10312WAT     H131178   5.962   3.587   0.820
10312WAT     H231179   5.896   3.439   0.843
10313WAT      O31180   3.241   4.178   7.801
10313WAT     H131181   3.328   4.220   7.775
10313WAT     H231182   3.189   4.242   7.857
10314WAT      O31183   1.382   7.446   9.886
10314WAT     H131184   1.438   7.432   9.967
10314WAT     H231185   1.435   7.420   9.804
10315WAT      O31186   2.666   8.675   7.663
10315WAT     H131187   2.615   8.618   7.728
10315WAT     H231188   2.718   8.616   7.601
10316WAT      O31189   8.089   0.117   9.034
10316WAT     H131190   8.038   0.138   9.117
10316WAT     H231191   8.088   0.019   9.018
10317WAT      O31192   9.734   9.133   0.879
10317WAT     H131193   9.661   9.084   0.926
10317WAT     H231194   9.764   9.080   0.799
10318WAT      O31195   8.848   1.057   2.517
10318WAT     H131196   8.797   1.041   2.433
10318WAT     H231197   8.938   1.013   2.510
10319WAT      O31198   0.023   6.826   9.798
10319WAT     H131199   0.036   6.764   9.874
10319WAT     H231200  -0.058   6.798   9.745
10320WAT      O31201   3.434   8.294   4.861
10320WAT     H131202   3.426   8.319   4.958
10320WAT     H231203   3.359   8.231   4.838
10321WAT      O31204   1.210   2.974   6.997
10321WAT     H131205   1.247   2.953   6.907
10321WAT     H231206   1.112   2.989   6.991
10322WAT      O31207   4.925   1.826   4.962
10322WAT     H131208   4.890   1.744   5.007
10322WAT     H231209   4.963   1.801   4.872
10323WAT      O31210   8.407   5.633   8.953
10323WAT     H131211   8.408   5.592   8.862
10323WAT     H231212   8.324   5.606   9.002
10324WAT      O31213   0.664   5.521   6.784
10324WAT     H131214   0.675   5.425   6.810
10324WAT     H231215   0.569   5.549   6.799
10325WAT      O31216   1.628   0.659   7.476
10325WAT     H131217   1.587   0.579   7.520
10325WAT     H231218   1.721   0.672   7.511
10326WAT      O31219   7.883   1.206   8.146
10326WAT     H131220   7.848   1.119   8.182
10326WAT     H231221   7.886   1.273   8.220
10327WAT      O31222   7.633   9.105   0.711
10327WAT     H131223   7.706   9.119   0.778
10327WAT     H231224   7.556   9.057   0.755
10328WAT      O31225   2.319   5.055   6.335
10328WAT     H131226   2.392   5.099   6.387
10328WAT     H231227   2.231   5.071   6.381
10329WAT      O31228   2.223   9.382   0.545
10329WAT     H131229   2.317   9.350   0.551
10329WAT     H231230   2.171   9.323   0.483
10330WAT      O31231   4.459   1.476   8.212
10330WAT     H131232   4.521   1.553   8.197
10330WAT     H231233   4.462   1.414   8.134
10331WAT      O31234   3.244   3.269   6.372
10331WAT     H131235   3.339   3.251   6.395
10331WAT     H231236   3.235   3.281   6.273
10332WAT      O31237   5.133   5.074   1.400
10332WAT     H131238   5.142   4.993   1.459
10332WAT     H231239   5.162   5.051   1.307
10333WAT      O31240   7.547   7.984   9.526
10333WAT     H131241   7.544   8.084   9.518
10333WAT     H231242   7.468   7.952   9.578
10334WAT      O31243   1.128   1.757   6.121
10334WAT     H131244   1.130   1.777   6.219
10334WAT     H231245   1.176   1.671   6.104
10335WAT      O31246   2.079   2.363   5.396
10335WAT     H131247   2.020   2.434   5.435
10335WAT     H231248   2.117   2.394   5.310
10336WAT      O31249   6.271   0.691   6.214
10336WAT     H131250   6.313   0.778   6.237
10336WAT     H231251   6.300   0.622   6.280
10337WAT      O31252   9.252   4.219   5.801
10337WAT     H131253   9.170   4.266   5.771
10337WAT     H231254   9.257   4.129   5.758
10338WAT      O31255   9.480   6.645   6.181
10338WAT     H131256   9.391   6.644   6.135
10338WAT     H231257   9.496   6.557   6.226
10339WAT      O31258   8.345   2.611   8.716
10339WAT     H131259   8.257   2.566   8.706
10339WAT     H231260   8.399   2.598   8.633
10340WAT      O31261   7.848   7.828   1.254
10340WAT     H131262   7.757   7.808   1.290
10340WAT     H231263   7.895   7.743   1.232
10341WAT      O31264   1.897   6.275   5.655
10341WAT     H131265   1.942   6.294   5.742
10341WAT     H231266   1.800   6.298   5.661
10342WAT      O31267   0.973   5.507   9.235
10342WAT     H131268   1.063   5.549   9.230
10342WAT     H231269   0.903   5.575   9.212
10343WAT      O31270   8.666   1.012   1.626
10343WAT     H131271   8.659   1.111   1.612
10343WAT     H231272   8.619   0.965   1.551
10344WAT      O31273   8.221   7.439   4.851
10344WAT     H131274   8.230   7.369   4.921
10344WAT     H231275   8.311   7.463   4.816
10345WAT      O31276   0.586   4.546   8.298
10345WAT     H131277   0.653   4.603   8.251
10345WAT     H231278   0.538   4.601   8.367
10346WAT      O31279   5.153   1.309   8.419
10346WAT     H131280   5.141   1.280   8.324
10346WAT     H231281   5.137   1.231   8.480
10347WAT      O31282   9.000   9.439   0.970
10347WAT     H131283   9.030   9.344   0.978
10347WAT     H231284   8.974   9.473   1.061
10348WAT      O31285   7.928   7.699   1.747
10348WAT     H131286   7.900   7.794   1.762
10348WAT     H231287   8.027   7.696   1.732
10349WAT      O31288   3.288   5.014   2.624
10349WAT     H131289   3.299   4.967   2.712
10349WAT     H231290   3.336   5.102   2.627
10350WAT      O31291   3.255   1.333   6.256
10350WAT     H131292   3.158   1.319   6.276
10350WAT     H231293   3.273   1.430   6.243
10351WAT      O31294   2.992   4.261   5.624
10351WAT     H131295   2.972   4.163   5.635
10351WAT     H231296   3.068   4.286   5.683
10352WAT      O31297   5.836   2.371   2.421
10352WAT     H131298   5.918   2.413   2.383
10352WAT     H231299   5.756   2.399   2.368
10353WAT      O31300   7.141   8.862   2.561
10353WAT     H131301   7.129   8.960   2.575
10353WAT     H231302   7.220   8.830   2.614
10354WAT      O31303   5.191   1.518   6.409
10354WAT     H131304   5.255   1.494   6.482
10354WAT     H231305   5.242   1.545   6.327
10355WAT      O31306   4.960   0.721   4.779
10355WAT     H131307   4.973   0.820   4.777
10355WAT     H231308   5.030   0.677   4.724
10356WAT      O31309   0.174   8.585   0.798
10356WAT     H131310   0.242   8.512   0.802
10356WAT     H231311   0.159   8.612   0.703
10357WAT      O31312   5.431   9.283   3.356
10357WAT     H131313   5.435   9.375   3.397
10357WAT     H231314   5.494   9.223   3.404
10358WAT      O31315   5.166   2.782   6.026
10358WAT     H131316   5.092   2.787   6.093
10358WAT     H231317   5.166   2.691   5.985
10359WAT      O31318   9.252   3.777   1.109
10359WAT     H131319   9.163   3.774   1.156
10359WAT     H231320   9.298   3.689   1.121
10360WAT      O31321   3.359   6.259   5.175
10360WAT     H131322   3.264   6.262   5.207
10360WAT     H231323   3.378   6.341   5.121
10361WAT      O31324   1.469   5.527   5.749
10361WAT     H131325   1.472   5.475   5.663
10361WAT     H231326   1.560   5.565   5.768
10362WAT      O31327   4.457   0.112   7.554
10362WAT     H131328   4.537   0.173   7.555
10362WAT     H231329   4.474   0.037   7.490
10363WAT      O31330   5.152   6.486   0.102
10363WAT     H131331   5.081   6.476   0.032
10363WAT     H231332   5.112   6.526   0.184
10364WAT      O31333   6.934   7.431   5.656
10364WAT     H131334   6.861   7.429   5.725
10364WAT     H231335   6.948   7.340   5.619
10365WAT      O31336   9.826   3.649   3.152
10365WAT     H131337   9.800   3.599   3.069
10365WAT     H231338   9.905   3.605   3.194
10366WAT      O31339   9.820   4.326   4.476
10366WAT     H131340   9.732   4.363   4.446
10366WAT     H231341   9.805   4.237   4.519
10367WAT      O31342   0.568   4.653   3.127
10367WAT     H131343   0.523   4.564   3.122
10367WAT     H231344   0.609   4.665   3.218
10368WAT      O31345   2.998   0.525   7.898
10368WAT     H131346   2.925   0.519   7.831
10368WAT     H231347   2.968   0.580   7.976
10369WAT      O31348   1.824   7.461   1.649
10369WAT     H131349   1.810   7.531   1.579
10369WAT     H231350   1.736   7.432   1.685
10370WAT      O31351   7.675   7.470   0.290
10370WAT     H131352   7.610   7.496   0.219
10370WAT     H231353   7.761   7.521   0.276
10371WAT      O31354   1.957   8.136   4.818
10371WAT     H131355   2.022   8.083   4.871
10371WAT     H231356   1.933   8.219   4.868
10372WAT      O31357   6.105   1.788   6.058
10372WAT     H131358   6.047   1.855   6.104
10372WAT     H231359   6.053   1.704   6.042
10373WAT      O31360   3.458   7.666   2.066
10373WAT     H131361   3.407   7.592   2.111
10373WAT     H231362   3.555   7.642   2.062
10374WAT      O31363   2.937   4.019   7.372
10374WAT     H131364   2.846   4.052   7.345
10374WAT     H231365   2.983   3.979   7.293
10375WAT      O31366   0.106   3.082   4.813
10375WAT     H131367   0.173   3.053   4.881
10375WAT     H231368   0.014   3.071   4.851
10376WAT      O31369   7.509   6.538   7.717
10376WAT     H131370   7.488   6.635   7.731
10376WAT     H231371   7.431   6.492   7.676
10377WAT      O31372   4.077   5.206   5.712
10377WAT     H131373   4.108   5.233   5.621
10377WAT     H231374   4.057   5.108   5.713
10378WAT      O31375   3.165   1.545   8.648
10378WAT     H131376   3.155   1.503   8.558
10378WAT     H231377   3.124   1.484   8.717
10379WAT      O31378   8.369   8.191   0.059
10379WAT     H131379   8.396   8.097   0.082
10379WAT     H231380   8.432   8.228  -0.009
10380WAT      O31381   9.351   1.848   2.619
10380WAT     H131382   9.341   1.914   2.692
10380WAT     H231383   9.388   1.893   2.537
10381WAT      O31384   8.209   4.693   1.990
10381WAT     H131385   8.167   4.736   2.069
10381WAT     H231386   8.307   4.679   2.007
10382WAT      O31387   0.080   1.873   9.153
10382WAT     H131388   0.180   1.880   9.152
10382WAT     H231389   0.040   1.964   9.151
10383WAT      O31390   9.543   5.297   0.255
10383WAT     H131391   9.445   5.293   0.273
10383WAT     H231392   9.583   5.206   0.264
10384WAT      O31393   7.777   1.255   7.890
10384WAT     H131394   7.829   1.216   7.966
10384WAT     H231395   7.761   1.352   7.907
10385WAT      O31396   0.610   9.115   9.003
10385WAT     H131397   0.616   9.151   8.910
10385WAT     H231398   0.529   9.058   9.011
10386WAT      O31399   1.889   7.680   8.516
10386WAT     H131400   1.896   7.670   8.615
10386WAT     H231401   1.969   7.638   8.473
10387WAT      O31402   1.901   2.535   4.803
10387WAT     H131403   1.886   2.538   4.704
10387WAT     H231404   1.836   2.596   4.849
10388WAT      O31405   1.518   1.912   0.911
10388WAT     H131406   1.471   1.908   0.999
10388WAT     H231407   1.460   1.958   0.844
10389WAT      O31408   6.910   7.750   7.223
10389WAT     H131409   6.972   7.793   7.158
10389WAT     H231410   6.864   7.673   7.180
10390WAT      O31411   8.358   9.770   6.035
10390WAT     H131412   8.334   9.867   6.040
10390WAT     H231413   8.370   9.735   6.128
10391WAT      O31414   0.872   7.675   2.804
10391WAT     H131415   0.831   7.749   2.751
10391WAT     H231416   0.955   7.642   2.758
10392WAT      O31417   3.479   4.301   4.870
10392WAT     H131418   3.534   4.374   4.910
10392WAT     H231419   3.411   4.270   4.937
10393WAT      O31420   3.018   8.788   4.518
10393WAT     H131421   2.960   8.860   4.555
10393WAT     H231422   2.963   8.709   4.494
10394WAT      O31423   6.743   4.652   9.759
10394WAT     H131424   6.812   4.643   9.831
10394WAT     H231425   6.677   4.578   9.768
10395WAT      O31426   6.815   3.557   3.175
10395WAT     H131427   6.770   3.478   3.135
10395WAT     H231428   6.873   3.601   3.106
10396WAT      O31429   0.479   4.893   9.499
10396WAT     H131430   0.399   4.950   9.516
10396WAT     H231431   0.451   4.810   9.450
10397WAT      O31432   5.355   8.474   1.224
10397WAT     H131433   5.307   8.403   1.275
10397WAT     H231434   5.291   8.546   1.198
10398WAT      O31435   8.071   7.295   1.883
10398WAT     H131436   8.127   7.228   1.835
10398WAT     H231437   8.036   7.254   1.968
10399WAT      O31438   3.647   0.833   2.876
10399WAT     H131439   3.560   0.872   2.905
10399WAT     H231440   3.721   0.898   2.897
10400WAT      O31441   0.285   7.521   3.209
10400WAT     H131442   0.241   7.609   3.223
10400WAT     H231443   0.281   7.467   3.293
10401WAT      O31444   9.298   7.616   1.132
10401WAT     H131445   9.365   7.571   1.073
10401WAT     H231446   9.337   7.627   1.224
10402WAT      O31447   1.324   5.098   4.071
10402WAT     H131448   1.372   5.018   4.106
10402WAT     H231449   1.305   5.086   3.973
10403WAT      O31450   9.596   8.136   1.124
10403WAT     H131451   9.506   8.175   1.108
10403WAT     H231452   9.652   8.201   1.176
10404WAT      O31453   7.113   8.042   7.209
10404WAT     H131454   7.105   7.981   7.130
10404WAT     H231455   7.024   8.083   7.228
10405WAT      O31456   2.375   6.996   7.510
10405WAT     H131457   2.313   6.918   7.506
10405WAT     H231458   2.448   6.985   7.443
10406WAT      O31459   2.551   3.435   2.970
10406WAT     H131460   2.606   3.515   2.995
10406WAT     H231461   2.517   3.390   3.052
10407WAT      O31462   4.602   8.463   7.904
10407WAT     H131463   4.558   8.386   7.858
10407WAT     H231464   4.536   8.538   7.915
10408WAT      O31465   0.360   6.647   2.910
10408WAT     H131466   0.391   6.732   2.951
10408WAT     H231467   0.425   6.574   2.929
10409WAT      O31468   5.385   6.173   9.866
10409WAT     H131469   5.364   6.177   9.964
10409WAT     H231470   5.383   6.265   9.828
10410WAT      O31471   9.507   3.147   9.018
10410WAT     H131472   9.501   3.225   8.956
10410WAT     H231473   9.447   3.163   9.097
10411WAT      O31474   0.547   7.378   0.005
10411WAT     H131475   0.588   7.310  -0.056
10411WAT     H231476   0.451   7.392  -0.020
10412WAT      O31477   3.841   6.741   1.632
10412WAT     H131478   3.796   6.670   1.578
10412WAT     H231479   3.930   6.709   1.663
10413WAT      O31480   6.665   2.843   8.700
10413WAT     H131481   6.632   2.920   8.754
10413WAT     H231482   6.669   2.869   8.603
10414WAT      O31483   0.312   2.666   5.520
10414WAT     H131484   0.335   2.576   5.554
10414WAT     H231485   0.225   2.662   5.470
10415WAT      O31486   9.583   6.271   5.722
10415WAT     H131487   9.657   6.337   5.731
10415WAT     H231488   9.606   6.187   5.773
10416WAT      O31489   0.159   3.495   3.276
10416WAT     H131490   0.210   3.470   3.359
10416WAT     H231491   0.113   3.414   3.240
10417WAT      O31492   8.335   7.376   7.289
10417WAT     H131493   8.398   7.341   7.359
10417WAT     H231494   8.265   7.308   7.271
10418WAT      O31495   1.410   8.000   9.090
10418WAT     H131496   1.466   7.997   9.173
10418WAT     H231497   1.339   8.070   9.099
10419WAT      O31498   3.199   9.271   1.633
10419WAT     H131499   3.281   9.320   1.603
10419WAT     H231500   3.171   9.207   1.561
10420WAT      O31501   7.346   7.962   7.007
10420WAT     H131502   7.325   8.059   6.992
10420WAT     H231503   7.264   7.908   6.994
10421WAT      O31504   3.861   6.571   1.974
10421WAT     H131505   3.849   6.640   2.046
10421WAT     H231506   3.771   6.548   1.935
10422WAT      O31507   0.812   2.940   2.367
10422WAT     H131508   0.779   3.032   2.386
10422WAT     H231509   0.839   2.896   2.452
10423WAT      O31510   7.810   8.697   2.952
10423WAT     H131511   7.781   8.639   2.875
10423WAT     H231512   7.880   8.761   2.920
10424WAT      O31513   7.966   0.572   3.572
10424WAT     H131514   7.899   0.540   3.638
10424WAT     H231515   7.990   0.497   3.510
10425WAT      O31516   5.597   1.408   5.185
10425WAT     H131517   5.651   1.481   5.143
10425WAT     H231518   5.548   1.444   5.265
10426WAT      O31519   1.584   2.213   3.749
10426WAT     H131520   1.524   2.139   3.779
10426WAT     H231521   1.679   2.183   3.750
10427WAT      O31522   2.931   6.754   4.581
10427WAT     H131523   3.006   6.703   4.623
10427WAT     H231524   2.922   6.727   4.485
10428WAT      O31525   8.073   2.439   4.197
10428WAT     H131526   8.041   2.350   4.232
10428WAT     H231527   8.007   2.473   4.130
10429WAT      O31528   8.067   4.402   4.390
10429WAT     H131529   7.973   4.394   4.357
10429WAT     H231530   8.130   4.367   4.320
10430WAT      O31531   5.802   8.270   5.442
10430WAT     H131532   5.749   8.190   5.469
10430WAT     H231533   5.881   8.279   5.502
10431WAT      O31534   3.190   7.632   1.136
10431WAT     H131535   3.092   7.630   1.158
10431WAT     H231536   3.241   7.659   1.218
10432WAT      O31537   1.079   6.179   2.297
10432WAT     H131538   1.071   6.145   2.204
10432WAT     H231539   1.090   6.278   2.296
10433WAT      O31540   6.428   7.730   4.974
10433WAT     H131541   6.430   7.669   5.053
10433WAT     H231542   6.491   7.697   4.904
10434WAT      O31543   6.907   9.226   5.909
10434WAT     H131544   6.967   9.301   5.879
10434WAT     H231545   6.909   9.219   6.008
10435WAT      O31546   6.796   4.232   0.500
10435WAT     H131547   6.757   4.191   0.583
10435WAT     H231548   6.886   4.192   0.483
10436WAT      O31549   4.937   0.632   3.875
10436WAT     H131550   4.924   0.728   3.899
10436WAT     H231551   4.938   0.622   3.776
10437WAT      O31552   2.638   0.448   3.897
10437WAT     H131553   2.701   0.493   3.961
10437WAT     H231554   2.556   0.505   3.887
10438WAT      O31555   9.259   5.234   5.825
10438WAT     H131556   9.167   5.260   5.796
10438WAT     H231557   9.301   5.176   5.756
10439WAT      O31558   3.985   8.840   4.521
10439WAT     H131559   3.942   8.930   4.516
10439WAT     H231560   3.916   8.771   4.542
10440WAT      O31561   6.804   1.912   0.880
10440WAT     H131562   6.794   1.849   0.957
10440WAT     H231563   6.731   1.980   0.882
10441WAT      O31564   8.184   2.425   3.059
10441WAT     H131565   8.088   2.399   3.044
10441WAT     H231566   8.195   2.460   3.152
10442WAT      O31567   4.781   2.151   6.614
10442WAT     H131568   4.816   2.078   6.672
10442WAT     H231569   4.727   2.112   6.539
10443WAT      O31570   8.470   7.390   1.793
10443WAT     H131571   8.531   7.430   1.725
10443WAT     H231572   8.379   7.431   1.785
10444WAT      O31573   9.376   9.030   7.953
10444WAT     H131574   9.411   9.029   7.859
10444WAT     H231575   9.298   8.968   7.960
10445WAT      O31576   0.027   2.142   2.578
10445WAT     H131577  -0.025   2.185   2.504
10445WAT     H231578  -0.001   2.047   2.588
10446WAT      O31579   7.194   2.296   3.774
10446WAT     H131580   7.225   2.283   3.868
10446WAT     H231581   7.185   2.394   3.756
10447WAT      O31582   4.301   6.287   7.665
10447WAT     H131583   4.214   6.263   7.621
10447WAT     H231584   4.302   6.247   7.757
10448WAT      O31585   0.684   3.315   8.629
10448WAT     H131586   0.672   3.221   8.661
10448WAT     H231587   0.761   3.357   8.677
10449WAT      O31588   1.363   8.555   4.792
10449WAT     H131589   1.378   8.467   4.837
10449WAT     H231590   1.296   8.609   4.844
10450WAT      O31591   8.500   9.417   5.422
10450WAT     H131592   8.409   9.450   5.396
10450WAT     H231593   8.558   9.413   5.340
10451WAT      O31594   2.538   5.103   9.308
10451WAT     H131595   2.444   5.133   9.323
10451WAT     H231596   2.596   5.182   9.289
10452WAT      O31597   8.757   6.601   2.777
10452WAT     H131598   8.774   6.604   2.876
10452WAT     H231599   8.705   6.682   2.750
10453WAT      O31600   2.616   5.061   3.089
10453WAT     H131601   2.700   5.013   3.063
10453WAT     H231602   2.625   5.093   3.184
10454WAT      O31603   8.717   9.710   5.609
10454WAT     H131604   8.758   9.799   5.588
10454WAT     H231605   8.729   9.690   5.707
10455WAT      O31606   4.464   1.260   9.673
10455WAT     H131607   4.536   1.299   9.616
10455WAT     H231608   4.375   1.282   9.633
10456WAT      O31609   7.262   0.770   6.588
10456WAT     H131610   7.293   0.711   6.662
10456WAT     H231611   7.230   0.714   6.512
10457WAT      O31612   1.628   6.395   0.917
10457WAT     H131613   1.570   6.476   0.905
10457WAT     H231614   1.598   6.324   0.853
10458WAT      O31615   4.815   9.661   2.375
10458WAT     H131616   4.824   9.739   2.314
10458WAT     H231617   4.828   9.690   2.469
10459WAT      O31618   2.892   1.808   8.007
10459WAT     H131619   2.975   1.759   8.035
10459WAT     H231620   2.812   1.754   8.031
10460WAT      O31621   9.596   3.729   0.095
10460WAT     H131622   9.600   3.769   0.187
10460WAT     H231623   9.684   3.739   0.050
10461WAT      O31624   5.255   6.659   9.536
10461WAT     H131625   5.349   6.635   9.512
10461WAT     H231626   5.243   6.655   9.635
10462WAT      O31627   5.288   7.350   2.088
10462WAT     H131628   5.335   7.293   2.020
10462WAT     H231629   5.320   7.444   2.082
10463WAT      O31630   6.588   0.215  -0.003
10463WAT     H131631   6.634   0.242   0.081
10463WAT     H231632   6.591   0.116  -0.013
10464WAT      O31633   9.249   0.321   7.248
10464WAT     H131634   9.348   0.323   7.264
10464WAT     H231635   9.227   0.376   7.168
10465WAT      O31636   2.693   0.965   0.159
10465WAT     H131637   2.738   1.050   0.130
10465WAT     H231638   2.595   0.982   0.170
10466WAT      O31639   7.837   7.816   4.102
10466WAT     H131640   7.744   7.786   4.122
10466WAT     H231641   7.835   7.893   4.038
10467WAT      O31642   6.968   5.309   4.505
10467WAT     H131643   6.973   5.396   4.555
10467WAT     H231644   6.939   5.327   4.411
10468WAT      O31645   0.367   5.623   9.068
10468WAT     H131646   0.449   5.655   9.115
10468WAT     H231647   0.354   5.677   8.985
10469WAT      O31648   2.529   1.761   9.771
10469WAT     H131649   2.628   1.764   9.764
10469WAT     H231650   2.496   1.846   9.813
10470WAT      O31651   6.145   6.885   2.891
10470WAT     H131652   6.143   6.901   2.990
10470WAT     H231653   6.064   6.925   2.849
10471WAT      O31654   1.655   6.294   0.281
10471WAT     H131655   1.619   6.209   0.320
10471WAT     H231656   1.641   6.293   0.182
10472WAT      O31657   6.830   4.004   8.409
10472WAT     H131658   6.892   3.951   8.466
10472WAT     H231659   6.883   4.064   8.348
10473WAT      O31660   5.223   8.630   6.988
10473WAT     H131661   5.273   8.545   7.005
10473WAT     H231662   5.163   8.650   7.065
10474WAT      O31663   2.725   2.576   8.903
10474WAT     H131664   2.810   2.616   8.935
10474WAT     H231665   2.647   2.630   8.937
10475WAT      O31666   9.333   6.754   2.644
10475WAT     H131667   9.391   6.833   2.625
10475WAT     H231668   9.271   6.738   2.567
10476WAT      O31669   9.158   6.651   1.064
10476WAT     H131670   9.235   6.684   1.009
10476WAT     H231671   9.095   6.601   1.006
10477WAT      O31672   9.854   9.019   0.650
10477WAT     H131673   9.935   8.961   0.638
10477WAT     H231674   9.869   9.107   0.605
10478WAT      O31675   7.159   5.364   5.221
10478WAT     H131676   7.086   5.368   5.153
10478WAT     H231677   7.226   5.436   5.203
10479WAT      O31678   4.962   8.467   6.476
10479WAT     H131679   4.999   8.508   6.559
10479WAT     H231680   4.865   8.489   6.469
10480WAT      O31681   5.507   3.473   8.878
10480WAT     H131682   5.517   3.560   8.925
10480WAT     H231683   5.488   3.401   8.944
10481WAT      O31684   5.125   0.786   5.976
10481WAT     H131685   5.108   0.861   6.040
10481WAT     H231686   5.083   0.808   5.888
10482WAT      O31687   8.621   2.293   7.400
10482WAT     H131688   8.677   2.332   7.327
10482WAT     H231689   8.607   2.195   7.382
10483WAT      O31690   1.686   2.859   1.422
10483WAT     H131691   1.733   2.892   1.504
10483WAT     H231692   1.621   2.787   1.447
10484WAT      O31693   5.917   1.817   4.100
10484WAT     H131694   5.846   1.794   4.167
10484WAT     H231695   5.997   1.853   4.149
10485WAT      O31696   3.862   8.689   8.289
10485WAT     H131697   3.828   8.752   8.359
10485WAT     H231698   3.927   8.736   8.230
10486WAT      O31699   5.928   9.128   0.978
10486WAT     H131700   5.942   9.036   1.013
10486WAT     H231701   5.867   9.178   1.039
10487WAT      O31702   7.708   1.718   2.425
10487WAT     H131703   7.647   1.796   2.440
10487WAT     H231704   7.802   1.751   2.417
10488WAT      O31705   7.313   3.876   1.375
10488WAT     H131706   7.343   3.794   1.425
10488WAT     H231707   7.213   3.877   1.373
10489WAT      O31708   3.079   1.858   5.997
10489WAT     H131709   2.995   1.858   5.944
10489WAT     H231710   3.075   1.784   6.065
10490WAT      O31711   0.225   1.002   1.907
10490WAT     H131712   0.205   0.957   1.820
10490WAT     H231713   0.179   1.091   1.910
10491WAT      O31714   9.110   0.690   3.302
10491WAT     H131715   9.166   0.608   3.297
10491WAT     H231716   9.015   0.665   3.318
10492WAT      O31717   8.643   0.451   5.981
10492WAT     H131718   8.695   0.372   5.947
10492WAT     H231719   8.550   0.448   5.943
10493WAT      O31720   5.723   2.945   3.046
10493WAT     H131721   5.781   2.928   2.966
10493WAT     H231722   5.771   2.916   3.129
10494WAT      O31723   5.139   0.762   4.311
10494WAT     H131724   5.080   0.830   4.355
10494WAT     H231725   5.097   0.671   4.321
10495WAT      O31726   4.193   5.443   5.007
10495WAT     H131727   4.168   5.347   5.021
10495WAT     H231728   4.110   5.497   4.999
10496WAT      O31729   7.168   4.287   1.617
10496WAT     H131730   7.181   4.368   1.674
10496WAT     H231731   7.193   4.308   1.522
10497WAT      O31732   0.791   0.873   4.001
10497WAT     H131733   0.862   0.918   4.054
10497WAT     H231734   0.804   0.774   4.005
10498WAT      O31735   7.236   4.685   7.254
10498WAT     H131736   7.308   4.696   7.186
10498WAT     H231737   7.209   4.774   7.290
10499WAT      O31738   2.264   2.371   5.660
10499WAT     H131739   2.226   2.373   5.567
10499WAT     H231740   2.193   2.342   5.724
10500WAT      O31741   5.158   7.055   3.995
10500WAT     H131742   5.075   7.006   3.969
10500WAT     H231743   5.192   7.106   3.916
10501WAT      O31744   8.439   5.084   3.787
10501WAT     H131745   8.395   5.118   3.870
10501WAT     H231746   8.405   5.135   3.708
10502WAT      O31747   4.989   8.289   9.291
10502WAT     H131748   5.051   8.345   9.236
10502WAT     H231749   4.963   8.340   9.373
10503WAT      O31750   8.703   3.544   1.907
10503WAT     H131751   8.611   3.577   1.884
10503WAT     H231752   8.729   3.471   1.844
10504WAT      O31753   2.914   1.045   8.061
10504WAT     H131754   2.942   1.083   8.150
10504WAT     H231755   2.898   0.947   8.070
10505WAT      O31756   3.975   5.982   2.121
10505WAT     H131757   3.938   5.891   2.136
10505WAT     H231758   3.905   6.041   2.082
10506WAT      O31759   9.850   7.190   0.535
10506WAT     H131760   9.832   7.137   0.618
10506WAT     H231761   9.765   7.226   0.498
10507WAT      O31762   1.274   6.038   4.437
10507WAT     H131763   1.203   5.968   4.439
10507WAT     H231764   1.239   6.123   4.477
10508WAT      O31765   4.880   9.698   8.142
10508WAT     H131766   4.872   9.627   8.073
10508WAT     H231767   4.963   9.683   8.195
10509WAT      O31768   9.272   6.626   1.989
10509WAT     H131769   9.300   6.702   2.048
10509WAT     H231770   9.296   6.539   2.031
10510WAT      O31771   5.010   6.603   0.302
10510WAT     H131772   4.914   6.575   0.310
10510WAT     H231773   5.023   6.691   0.349
10511WAT      O31774   7.299   6.811   0.474
10511WAT     H131775   7.329   6.894   0.428
10511WAT     H231776   7.199   6.811   0.481
10512WAT      O31777   1.214   6.980   4.929
10512WAT     H131778   1.141   6.916   4.957
10512WAT     H231779   1.188   7.025   4.844
10513WAT      O31780   5.450   5.442   6.231
10513WAT     H131781   5.546   5.423   6.248
10513WAT     H231782   5.425   5.410   6.139
10514WAT      O31783   0.586   7.768   8.025
10514WAT     H131784   0.500   7.748   8.072
10514WAT     H231785   0.610   7.691   7.966
10515WAT      O31786   1.166   8.835   5.505
10515WAT     H131787   1.139   8.804   5.414
10515WAT     H231788   1.129   8.927   5.521
10516WAT      O31789   4.386   2.785   3.878
10516WAT     H131790   4.354   2.757   3.968
10516WAT     H231791   4.438   2.711   3.836
10517WAT      O31792   3.013   3.509   0.014
10517WAT     H131793   3.051   3.513   0.106
10517WAT     H231794   3.083   3.535  -0.053
10518WAT      O31795   3.622   0.319   9.509
10518WAT     H131796   3.564   0.318   9.591
10518WAT     H231797   3.693   0.249   9.518
10519WAT      O31798   6.464   1.205   3.063
10519WAT     H131799   6.391   1.138   3.049
10519WAT     H231800   6.553   1.161   3.050
10520WAT      O31801   3.859   1.824   8.533
10520WAT     H131802   3.768   1.862   8.516
10520WAT     H231803   3.893   1.856   8.621
10521WAT      O31804   9.409   5.736   1.824
10521WAT     H131805   9.477   5.663   1.815
10521WAT     H231806   9.324   5.708   1.781
10522WAT      O31807   6.591   7.275   2.934
10522WAT     H131808   6.588   7.259   2.835
10522WAT     H231809   6.645   7.357   2.952
10523WAT      O31810   8.789   9.536   1.609
10523WAT     H131811   8.709   9.587   1.639
10523WAT     H231812   8.786   9.443   1.647
10524WAT      O31813   2.080   2.131   3.185
10524WAT     H131814   2.075   2.214   3.130
10524WAT     H231815   2.147   2.069   3.145
10525WAT      O31816   5.670   3.670   5.620
10525WAT     H131817   5.698   3.766   5.608
10525WAT     H231818   5.748   3.610   5.603
10526WAT      O31819   7.664   9.821   4.834
10526WAT     H131820   7.651   9.839   4.931
10526WAT     H231821   7.760   9.836   4.809
10527WAT      O31822   9.172   2.638   9.215
10527WAT     H131823   9.082   2.676   9.197
10527WAT     H231824   9.163   2.557   9.273
10528WAT      O31825   9.729   4.473   0.197
10528WAT     H131826   9.696   4.513   0.111
10528WAT     H231827   9.704   4.376   0.200
10529WAT      O31828   4.613   0.779   2.398
10529WAT     H131829   4.713   0.787   2.400
10529WAT     H231830   4.584   0.760   2.304
10530WAT      O31831   8.305   1.615   6.410
10530WAT     H131832   8.285   1.673   6.489
10530WAT     H231833   8.220   1.579   6.373
10531WAT      O31834   4.210   8.411   9.165
10531WAT     H131835   4.161   8.492   9.197
10531WAT     H231836   4.155   8.365   9.094
10532WAT      O31837   6.688   9.741   3.754
10532WAT     H131838   6.756   9.744   3.680
10532WAT     H231839   6.672   9.645   3.780
10533WAT      O31840   3.247   6.014   2.227
10533WAT     H131841   3.194   6.041   2.307
10533WAT     H231842   3.263   5.915   2.230
10534WAT      O31843   0.245   0.350   5.446
10534WAT     H131844   0.227   0.267   5.498
10534WAT     H231845   0.160   0.402   5.436
10535WAT      O31846   0.245   2.595   0.006
10535WAT     H131847   0.149   2.623   0.011
10535WAT     H231848   0.256   2.525  -0.064
10536WAT      O31849   5.663   5.413   3.891
10536WAT     H131850   5.668   5.338   3.957
10536WAT     H231851   5.568   5.441   3.880
10537WAT      O31852   4.253   7.347   2.526
10537WAT     H131853   4.266   7.278   2.455
10537WAT     H231854   4.272   7.438   2.488
10538WAT      O31855   7.794   1.160   4.617
10538WAT     H131856   7.765   1.065   4.629
10538WAT     H231857   7.821   1.199   4.705
10539WAT      O31858   8.832   7.917   9.642
10539WAT     H131859   8.822   7.890   9.738
10539WAT     H231860   8.795   7.845   9.584
10540WAT      O31861   2.533   8.974   1.899
10540WAT     H131862   2.561   8.983   1.994
10540WAT     H231863   2.509   8.879   1.879
10541WAT      O31864   3.976   1.637   9.220
10541WAT     H131865   3.960   1.729   9.257
10541WAT     H231866   4.023   1.644   9.132
10542WAT      O31867   3.816   7.354   0.896
10542WAT     H131868   3.896   7.379   0.841
10542WAT     H231869   3.846   7.333   0.989
10543WAT      O31870   1.735   4.458   6.557
10543WAT     H131871   1.816   4.470   6.616
10543WAT     H231872   1.666   4.406   6.607
10544WAT      O31873   0.405   5.585   1.384
10544WAT     H131874   0.391   5.679   1.353
10544WAT     H231875   0.397   5.582   1.484
10545WAT      O31876   9.769   0.705   3.518
10545WAT     H131877   9.698   0.636   3.530
10545WAT     H231878   9.764   0.773   3.591
10546WAT      O31879   3.606   4.788   1.080
10546WAT     H131880   3.628   4.696   1.112
10546WAT     H231881   3.507   4.798   1.073
10547WAT      O31882   1.028   5.756   6.635
10547WAT     H131883   0.995   5.702   6.713
10547WAT     H231884   0.973   5.735   6.554
10548WAT      O31885   0.856   0.466   7.021
10548WAT     H131886   0.789   0.418   6.966
10548WAT     H231887   0.828   0.562   7.032
10549WAT      O31888   1.143   2.538   4.718
10549WAT     H131889   1.051   2.576   4.732
10549WAT     H231890   1.136   2.456   4.661
10550WAT      O31891   4.888   8.001   6.848
10550WAT     H131892   4.952   8.067   6.809
10550WAT     H231893   4.895   8.002   6.948
10551WAT      O31894   0.065   1.961   5.819
10551WAT     H131895   0.066   2.054   5.783
10551WAT     H231896  -0.027   1.923   5.811
10552WAT      O31897   4.126   8.952   9.211
10552WAT     H131898   4.224   8.964   9.197
10552WAT     H231899   4.076   9.010   9.147
10553WAT      O31900   8.910   7.712   8.876
10553WAT     H131901   9.004   7.747   8.877
10553WAT     H231902   8.878   7.704   8.782
10554WAT      O31903   2.749   3.612   2.571
10554WAT     H131904   2.813   3.655   2.635
10554WAT     H231905   2.663   3.592   2.619
10555WAT      O31906   4.925   7.814   0.973
10555WAT     H131907   4.883   7.788   1.060
10555WAT     H231908   4.930   7.913   0.966
10556WAT      O31909   1.299   5.795   3.515
10556WAT     H131910   1.360   5.873   3.502
10556WAT     H231911   1.234   5.816   3.588
10557WAT      O31912   0.013   3.312   3.503
10557WAT     H131913  -0.019   3.406   3.517
10557WAT     H231914   0.016   3.292   3.405
10558WAT      O31915   8.320   1.934   1.240
10558WAT     H131916   8.244   1.963   1.298
10558WAT     H231917   8.288   1.863   1.176
10559WAT      O31918   6.536   5.563   9.639
10559WAT     H131919   6.599   5.489   9.659
10559WAT     H231920   6.471   5.574   9.715
10560WAT      O31921   9.406   2.481   3.756
10560WAT     H131922   9.381   2.539   3.834
10560WAT     H231923   9.422   2.388   3.788
10561WAT      O31924   6.233   0.250   4.254
10561WAT     H131925   6.286   0.205   4.326
10561WAT     H231926   6.262   0.215   4.165
10562WAT      O31927   1.096   3.636   6.339
10562WAT     H131928   1.009   3.678   6.313
10562WAT     H231929   1.114   3.655   6.436
10563WAT      O31930   6.412   1.748   3.473
10563WAT     H131931   6.498   1.801   3.469
10563WAT     H231932   6.350   1.782   3.402
10564WAT      O31933   1.117   4.413   6.259
10564WAT     H131934   1.207   4.443   6.292
10564WAT     H231935   1.122   4.318   6.230
10565WAT      O31936   8.570   4.465   2.689
10565WAT     H131937   8.564   4.395   2.761
10565WAT     H231938   8.489   4.524   2.693
10566WAT      O31939   1.320   7.487   0.929
10566WAT     H131940   1.258   7.560   0.898
10566WAT     H231941   1.298   7.402   0.882
10567WAT      O31942   7.059   6.470   9.863
10567WAT     H131943   7.113   6.551   9.840
10567WAT     H231944   6.968   6.478   9.822
10568WAT      O31945   0.960   2.159   7.580
10568WAT     H131946   0.989   2.173   7.675
10568WAT     H231947   0.862   2.179   7.573
10569WAT      O31948   0.661   8.357   9.047
10569WAT     H131949   0.713   8.301   8.983
10569WAT     H231950   0.611   8.428   8.998
10570WAT      O31951   7.445   0.347   0.940
10570WAT     H131952   7.354   0.325   0.904
10570WAT     H231953   7.437   0.381   1.034
10571WAT      O31954   3.710   3.248   3.102
10571WAT     H131955   3.622   3.244   3.149
10571WAT     H231956   3.701   3.206   3.012
10572WAT      O31957   3.615   5.789   0.782
10572WAT     H131958   3.569   5.736   0.854
10572WAT     H231959   3.576   5.765   0.693
10573WAT      O31960   8.415   3.210   1.740
10573WAT     H131961   8.406   3.260   1.827
10573WAT     H231962   8.476   3.131   1.754
10574WAT      O31963   5.233   1.659   9.482
10574WAT     H131964   5.253   1.757   9.485
10574WAT     H231965   5.142   1.643   9.519
10575WAT      O31966   4.753   0.851   4.622
10575WAT     H131967   4.698   0.894   4.694
10575WAT     H231968   4.789   0.764   4.656
10576WAT      O31969   8.828   0.196   2.261
10576WAT     H131970   8.877   0.108   2.261
10576WAT     H231971   8.895   0.270   2.258
10577WAT      O31972   6.047   7.050   6.575
10577WAT     H131973   5.985   7.000   6.635
10577WAT     H231974   6.025   7.148   6.578
10578WAT      O31975   1.695   0.859   8.535
10578WAT     H131976   1.660   0.840   8.443
10578WAT     H231977   1.653   0.796   8.600
10579WAT      O31978   9.541   2.685   2.438
10579WAT     H131979   9.476   2.631   2.493
10579WAT     H231980   9.490   2.743   2.374
10580WAT      O31981   6.422   2.017   6.517
10580WAT     H131982   6.448   2.113   6.523
10580WAT     H231983   6.340   2.008   6.461
10581WAT      O31984   9.531   9.497   8.075
10581WAT     H131985   9.458   9.502   8.143
10581WAT     H231986   9.538   9.584   8.027
10582WAT      O31987   5.277   7.785   3.104
10582WAT     H131988   5.217   7.844   3.157
10582WAT     H231989   5.292   7.825   3.014
10583WAT      O31990   7.860   4.818   3.796
10583WAT     H131991   7.816   4.907   3.784
10583WAT     H231992   7.878   4.802   3.893
10584WAT      O31993   9.732   3.375   4.491
10584WAT     H131994   9.689   3.288   4.514
10584WAT     H231995   9.807   3.392   4.555
10585WAT      O31996   9.336   7.249   5.275
10585WAT     H131997   9.261   7.314   5.282
10585WAT     H231998   9.423   7.298   5.278
10586WAT      O31999   3.191   9.791   1.924
10586WAT     H132000   3.099   9.827   1.940
10586WAT     H232001   3.224   9.824   1.836
10587WAT      O32002   6.077   3.930   8.064
10587WAT     H132003   6.054   3.862   8.132
10587WAT     H232004   6.138   3.999   8.104
10588WAT      O32005   8.654   8.259   0.933
10588WAT     H132006   8.589   8.213   0.873
10588WAT     H232007   8.605   8.324   0.991
10589WAT      O32008   0.566   8.548   2.893
10589WAT     H132009   0.542   8.534   2.796
10589WAT     H232010   0.537   8.469   2.946
10590WAT      O32011   8.812   2.785   2.506
10590WAT     H132012   8.809   2.685   2.501
10590WAT     H232013   8.752   2.824   2.436
10591WAT      O32014   6.367   8.308   8.217
10591WAT     H132015   6.280   8.283   8.175
10591WAT     H232016   6.361   8.400   8.254
10592WAT      O32017   6.022   3.492   4.924
10592WAT     H132018   6.079   3.466   5.002
10592WAT     H232019   5.928   3.507   4.955
10593WAT      O32020   9.058   5.683   8.445
10593WAT     H132021   8.996   5.652   8.373
10593WAT     H232022   9.145   5.633   8.439
10594WAT      O32023   2.745   1.960   8.200
10594WAT     H132024   2.813   2.018   8.245
10594WAT     H232025   2.786   1.916   8.120
10595WAT      O32026   3.394   0.977   2.648
10595WAT     H132027   3.424   0.987   2.744
10595WAT     H232028   3.325   1.047   2.628
10596WAT      O32029   4.287   7.455   8.098
10596WAT     H132030   4.287   7.392   8.020
10596WAT     H232031   4.196   7.494   8.109
10597WAT      O32032   0.333   0.397   3.196
10597WAT     H132033   0.279   0.318   3.223
10597WAT     H232034   0.315   0.418   3.100
10598WAT      O32035   0.373   0.603   6.721
10598WAT     H132036   0.366   0.554   6.808
10598WAT     H232037   0.469   0.613   6.695
10599WAT      O32038   1.719   3.373   9.667
10599WAT     H132039   1.647   3.358   9.599
10599WAT     H232040   1.745   3.470   9.667
10600WAT      O32041   2.559   1.802   1.763
10600WAT     H132042   2.478   1.744   1.776
10600WAT     H232043   2.632   1.747   1.723
10601WAT      O32044   1.992   9.197   5.114
10601WAT     H132045   1.894   9.186   5.125
10601WAT     H232046   2.024   9.139   5.039
10602WAT      O32047   1.928   7.373   6.392
10602WAT     H132048   1.923   7.346   6.296
10602WAT     H232049   2.024   7.384   6.418
10603WAT      O32050   2.554   3.551   7.498
10603WAT     H132051   2.467   3.504   7.514
10603WAT     H232052   2.548   3.645   7.533
10604WAT      O32053   2.393   8.976   6.522
10604WAT     H132054   2.454   8.902   6.552
10604WAT     H232055   2.332   8.942   6.451
10605WAT      O32056   0.431   5.500   8.377
10605WAT     H132057   0.529   5.485   8.381
10605WAT     H232058   0.400   5.491   8.282
10606WAT      O32059   2.964   8.283   2.290
10606WAT     H132060   2.894   8.282   2.362
10606WAT     H232061   2.988   8.378   2.270
10607WAT      O32062   4.050   0.865   4.513
10607WAT     H132063   4.034   0.856   4.611
10607WAT     H232064   4.006   0.949   4.480
10608WAT      O32065   1.984   1.414   0.712
10608WAT     H132066   1.996   1.314   0.709
10608WAT     H232067   2.071   1.459   0.690
10609WAT      O32068   2.409   6.055   6.371
10609WAT     H132069   2.317   6.050   6.410
10609WAT     H232070   2.433   6.151   6.355
10610WAT      O32071   4.382   7.809   1.240
10610WAT     H132072   4.286   7.816   1.211
10610WAT     H232073   4.434   7.885   1.201
10611WAT      O32074   3.808   3.500   9.639
10611WAT     H132075   3.872   3.461   9.573
10611WAT     H232076   3.725   3.444   9.642
10612WAT      O32077   1.909   9.348   7.330
10612WAT     H132078   1.895   9.391   7.240
10612WAT     H232079   1.910   9.249   7.320
10613WAT      O32080   1.935   2.230   6.025
10613WAT     H132081   2.011   2.224   5.959
10613WAT     H232082   1.952   2.306   6.088
10614WAT      O32083   7.949   8.519   2.336
10614WAT     H132084   8.009   8.453   2.382
10614WAT     H232085   7.982   8.535   2.243
10615WAT      O32086   9.723   2.997   8.233
10615WAT     H132087   9.818   3.025   8.246
10615WAT     H232088   9.714   2.900   8.254
10616WAT      O32089   5.792   6.673   6.410
10616WAT     H132090   5.834   6.687   6.500
10616WAT     H232091   5.701   6.632   6.421
10617WAT      O32092   6.584   7.729   9.457
10617WAT     H132093   6.637   7.650   9.425
10617WAT     H232094   6.539   7.773   9.380
10618WAT      O32095   2.113   1.153   1.535
10618WAT     H132096   2.161   1.071   1.506
10618WAT     H232097   2.171   1.233   1.522
10619WAT      O32098   9.781   8.942   7.977
10619WAT     H132099   9.795   9.023   7.919
10619WAT     H232100   9.864   8.925   8.030
10620WAT      O32101   3.663   0.486   3.934
10620WAT     H132102   3.580   0.462   3.883
10620WAT     H232103   3.740   0.435   3.895
10621WAT      O32104   6.505   9.476   6.152
10621WAT     H132105   6.451   9.395   6.129
10621WAT     H232106   6.460   9.557   6.114
10622WAT      O32107   9.869   8.711   2.399
10622WAT     H132108   9.926   8.732   2.478
10622WAT     H232109   9.856   8.612   2.392
10623WAT      O32110   5.038   3.805   6.068
10623WAT     H132111   5.074   3.848   6.150
10623WAT     H232112   5.110   3.752   6.023
10624WAT      O32113   4.159   8.978   9.616
10624WAT     H132114   4.085   8.955   9.553
10624WAT     H232115   4.197   9.067   9.592
10625WAT      O32116   1.932   3.769   6.031
10625WAT     H132117   1.988   3.717   5.967
10625WAT     H232118   1.873   3.707   6.082
10626WAT      O32119   7.854   2.557   3.698
10626WAT     H132120   7.768   2.522   3.734
10626WAT     H232121   7.930   2.519   3.749
10627WAT      O32122   8.690   2.839   0.652
10627WAT     H132123   8.747   2.861   0.731
10627WAT     H232124   8.692   2.915   0.587
10628WAT      O32125   9.155   6.773   2.443
10628WAT     H132126   9.162   6.696   2.380
10628WAT     H232127   9.090   6.750   2.516
10629WAT      O32128   0.271   3.349   9.418
10629WAT     H132129   0.349   3.287   9.431
10629WAT     H232130   0.187   3.295   9.410
10630WAT      O32131   8.244   0.101   1.281
10630WAT     H132132   8.165   0.063   1.330
10630WAT     H232133   8.216   0.129   1.189
10631WAT      O32134   4.369   5.426   9.671
10631WAT     H132135   4.274   5.453   9.678
10631WAT     H232136   4.427   5.496   9.713
10632WAT      O32137   6.929   7.361   0.014
10632WAT     H132138   6.877   7.420   0.075
10632WAT     H232139   7.010   7.327   0.062
10633WAT      O32140   1.713   7.470   9.534
10633WAT     H132141   1.661   7.527   9.470
10633WAT     H232142   1.714   7.376   9.501
10634WAT      O32143   8.356   2.914   1.169
10634WAT     H132144   8.338   2.839   1.233
10634WAT     H232145   8.356   2.878   1.076
10635WAT      O32146   1.576   5.216   4.113
10635WAT     H132147   1.479   5.191   4.112
10635WAT     H232148   1.590   5.292   4.177
10636WAT      O32149   6.105   2.519   1.268
10636WAT     H132150   6.144   2.444   1.214
10636WAT     H232151   6.021   2.550   1.225
10637WAT      O32152   2.565   2.528   8.300
10637WAT     H132153   2.478   2.571   8.320
10637WAT     H232154   2.568   2.437   8.342
10638WAT      O32155   9.098   7.004   3.621
10638WAT     H132156   9.171   6.973   3.683
10638WAT     H232157   9.137   7.028   3.532
10639WAT      O32158   8.370   2.084   6.538
10639WAT     H132159   8.284   2.050   6.499
10639WAT     H232160   8.405   2.018   6.603
10640WAT      O32161   7.568   6.111   3.356
10640WAT     H132162   7.650   6.122   3.412
10640WAT     H232163   7.534   6.201   3.328
10641WAT      O32164   3.824   3.244   9.208
10641WAT     H132165   3.728   3.234   9.233
10641WAT     H232166   3.867   3.154   9.207
10642WAT      O32167   9.472   1.166   3.296
10642WAT     H132168   9.471   1.178   3.197
10642WAT     H232169   9.383   1.194   3.334
10643WAT      O32170   8.998   4.657   9.307
10643WAT     H132171   8.920   4.712   9.276
10643WAT     H232172   9.064   4.647   9.232
10644WAT      O32173   9.484   4.163   8.099
10644WAT     H132174   9.391   4.199   8.102
10644WAT     H232175   9.514   4.138   8.191
10645WAT      O32176   1.033   1.950   6.852
10645WAT     H132177   1.024   1.889   6.930
10645WAT     H232178   1.014   2.044   6.882
10646WAT      O32179   0.218   8.394   6.935
10646WAT     H132180   0.245   8.326   6.866
10646WAT     H232181   0.244   8.360   7.026
10647WAT      O32182   3.191   5.601   6.965
10647WAT     H132183   3.271   5.543   6.979
10647WAT     H232184   3.115   5.567   7.020
10648WAT      O32185   4.312   8.063   2.794
10648WAT     H132186   4.281   8.146   2.747
10648WAT     H232187   4.386   8.021   2.741
10649WAT      O32188   2.052   7.335   8.834
10649WAT     H132189   2.128   7.361   8.893
10649WAT     H232190   1.966   7.339   8.886
10650WAT      O32191   5.193   6.926   1.200
10650WAT     H132192   5.233   6.972   1.120
10650WAT     H232193   5.146   6.843   1.170
10651WAT      O32194   4.920   9.123   9.242
10651WAT     H132195   4.965   9.205   9.279
10651WAT     H232196   4.933   9.047   9.306
10652WAT      O32197   4.102   7.606   1.833
10652WAT     H132198   4.021   7.620   1.891
10652WAT     H232199   4.109   7.509   1.809
10653WAT      O32200   6.425   6.828   3.009
10653WAT     H132201   6.494   6.892   3.042
10653WAT     H232202   6.356   6.878   2.956
10654WAT      O32203   8.890   9.124   2.876
10654WAT     H132204   8.854   9.071   2.954
10654WAT     H232205   8.945   9.064   2.818
10655WAT      O32206   7.368   2.112   9.345
10655WAT     H132207   7.303   2.051   9.390
10655WAT     H232208   7.342   2.207   9.362
10656WAT      O32209   6.129   1.478   4.163
10656WAT     H132210   6.206   1.423   4.133
10656WAT     H232211   6.045   1.425   4.155
10657WAT      O32212   9.461   1.008   2.863
10657WAT     H132213   9.556   1.037   2.849
10657WAT     H232214   9.455   0.956   2.948
10658WAT      O32215   2.780   4.818   3.348
10658WAT     H132216   2.713   4.787   3.415
10658WAT     H232217   2.871   4.786   3.375
10659WAT      O32218   6.802   7.215   4.885
10659WAT     H132219   6.861   7.295   4.892
10659WAT     H232220   6.730   7.221   4.953
10660WAT      O32221   9.686   6.747   1.552
10660WAT     H132222   9.754   6.803   1.600
10660WAT     H232223   9.633   6.695   1.619
10661WAT      O32224   1.795   7.821   1.830
10661WAT     H132225   1.752   7.907   1.859
10661WAT     H232226   1.795   7.816   1.730
10662WAT      O32227   1.444   2.589   6.383
10662WAT     H132228   1.434   2.541   6.295
10662WAT     H232229   1.396   2.676   6.379
10663WAT      O32230   1.523   4.429   3.175
10663WAT     H132231   1.497   4.335   3.195
10663WAT     H232232   1.601   4.430   3.112
10664WAT      O32233   6.268   2.255   7.291
10664WAT     H132234   6.176   2.215   7.292
10664WAT     H232235   6.296   2.276   7.385
10665WAT      O32236   1.481   7.478   6.980
10665WAT     H132237   1.438   7.460   6.891
10665WAT     H232238   1.573   7.514   6.966
10666WAT      O32239   8.780   2.018   4.595
10666WAT     H132240   8.730   1.942   4.554
10666WAT     H232241   8.868   2.030   4.548
10667WAT      O32242   4.537   2.064   5.766
10667WAT     H132243   4.612   2.127   5.784
10667WAT     H232244   4.476   2.103   5.697
10668WAT      O32245   6.955   9.066   5.374
10668WAT     H132246   6.914   9.136   5.316
10668WAT     H232247   7.012   9.109   5.444
10669WAT      O32248   8.490   8.912   0.788
10669WAT     H132249   8.525   8.879   0.700
10669WAT     H232250   8.527   8.856   0.862
10670WAT      O32251   0.041   1.549   3.181
10670WAT     H132252   0.138   1.552   3.201
10670WAT     H232253   0.018   1.461   3.138
10671WAT      O32254   0.625   1.969   0.089
10671WAT     H132255   0.602   1.965   0.186
10671WAT     H232256   0.563   2.034   0.044
10672WAT      O32257   3.304   8.288   7.330
10672WAT     H132258   3.266   8.320   7.417
10672WAT     H232259   3.277   8.192   7.316
10673WAT      O32260   4.873   3.532   4.718
10673WAT     H132261   4.805   3.501   4.784
10673WAT     H232262   4.947   3.580   4.766
10674WAT      O32263   8.791   6.839   5.561
10674WAT     H132264   8.776   6.931   5.524
10674WAT     H232265   8.882   6.806   5.534
10675WAT      O32266   3.220   5.896   8.054
10675WAT     H132267   3.159   5.879   7.976
10675WAT     H232268   3.259   5.988   8.046
10676WAT      O32269   2.195   1.378   2.837
10676WAT     H132270   2.278   1.432   2.820
10676WAT     H232271   2.126   1.403   2.769
10677WAT      O32272   7.988   0.171   6.853
10677WAT     H132273   8.062   0.238   6.865
10677WAT     H232274   7.963   0.134   6.943
10678WAT      O32275   9.328   2.790   2.781
10678WAT     H132276   9.417   2.835   2.793
10678WAT     H232277   9.258   2.840   2.833
10679WAT      O32278   7.028   9.774   4.562
10679WAT     H132279   7.124   9.750   4.550
10679WAT     H232280   6.972   9.691   4.555
10680WAT      O32281   7.308   3.648   6.484
10680WAT     H132282   7.374   3.573   6.485
10680WAT     H232283   7.351   3.729   6.444
10681WAT      O32284   5.612   0.717   1.870
10681WAT     H132285   5.704   0.753   1.885
10681WAT     H232286   5.609   0.667   1.783
10682WAT      O32287   5.983   5.283   0.615
10682WAT     H132288   6.030   5.275   0.527
10682WAT     H232289   5.884   5.278   0.600
10683WAT      O32290   0.844   4.470   8.077
10683WAT     H132291   0.907   4.482   8.154
10683WAT     H232292   0.851   4.376   8.043
10684WAT      O32293   5.353   8.591   8.464
10684WAT     H132294   5.339   8.645   8.381
10684WAT     H232295   5.265   8.553   8.495
10685WAT      O32296   4.189   8.749   1.504
10685WAT     H132297   4.231   8.726   1.417
10685WAT     H232298   4.103   8.799   1.488
10686WAT      O32299   1.422   0.314   5.344
10686WAT     H132300   1.486   0.266   5.285
10686WAT     H232301   1.420   0.270   5.434
10687WAT      O32302   1.841   8.658   4.849
10687WAT     H132303   1.744   8.678   4.836
10687WAT     H232304   1.870   8.691   4.939
10688WAT      O32305   9.219   8.784   6.821
10688WAT     H132306   9.267   8.716   6.766
10688WAT     H232307   9.126   8.796   6.785
10689WAT      O32308   1.625   5.428   0.143
10689WAT     H132309   1.651   5.340   0.101
10689WAT     H232310   1.546   5.466   0.095
10690WAT      O32311   6.539   3.475   8.022
10690WAT     H132312   6.560   3.548   8.088
10690WAT     H232313   6.594   3.487   7.940
10691WAT      O32314   4.206   7.448   1.250
10691WAT     H132315   4.187   7.545   1.235
10691WAT     H232316   4.280   7.438   1.316
10692WAT      O32317   4.426   1.104   0.332
10692WAT     H132318   4.492   1.070   0.265
10692WAT     H232319   4.425   1.043   0.411
10693WAT      O32320   4.389   8.318   1.550
10693WAT     H132321   4.385   8.404   1.601
10693WAT     H232322   4.363   8.335   1.455
10694WAT      O32323   3.234   2.934   1.053
10694WAT     H132324   3.174   2.871   1.004
10694WAT     H232325   3.184   3.018   1.073
10695WAT      O32326   9.314   1.962   0.899
10695WAT     H132327   9.370   1.894   0.853
10695WAT     H232328   9.243   1.916   0.952
10696WAT      O32329   5.685   3.798   4.190
10696WAT     H132330   5.696   3.766   4.284
10696WAT     H232331   5.621   3.739   4.141
10697WAT      O32332   6.737   6.997   2.678
10697WAT     H132333   6.823   7.014   2.727
10697WAT     H232334   6.758   6.972   2.584
10698WAT      O32335   5.432   1.611   2.384
10698WAT     H132336   5.400   1.517   2.399
10698WAT     H232337   5.492   1.614   2.305
10699WAT      O32338   3.143   1.564   3.385
10699WAT     H132339   3.122   1.514   3.469
10699WAT     H232340   3.097   1.519   3.308
10700WAT      O32341   5.281   6.539   9.228
10700WAT     H132342   5.279   6.638   9.244
10700WAT     H232343   5.368   6.514   9.185
10701WAT      O32344   8.717   3.897   2.483
10701WAT     H132345   8.754   3.834   2.551
10701WAT     H232346   8.783   3.970   2.466
10702WAT      O32347   7.776   1.707   1.879
10702WAT     H132348   7.677   1.719   1.882
10702WAT     H232349   7.818   1.792   1.846
10703WAT      O32350   1.066   1.100   2.352
10703WAT     H132351   1.008   1.024   2.322
10703WAT     H232352   1.050   1.119   2.449
10704WAT      O32353   2.217   2.906   5.327
10704WAT     H132354   2.314   2.928   5.333
10704WAT     H232355   2.193   2.841   5.399
10705WAT      O32356   3.124   7.805   3.899
10705WAT     H132357   3.091   7.770   3.812
10705WAT     H232358   3.195   7.874   3.883
10706WAT      O32359   7.434   9.710   9.122
10706WAT     H132360   7.408   9.712   9.026
10706WAT     H232361   7.476   9.622   9.143
10707WAT      O32362   6.837   4.148   9.296
10707WAT     H132363   6.761   4.127   9.357
10707WAT     H232364   6.888   4.226   9.331
10708WAT      O32365   9.183   0.403   1.966
10708WAT     H132366   9.258   0.468   1.984
10708WAT     H232367   9.156   0.409   1.871
10709WAT      O32368   1.929   3.913   5.572
10709WAT     H132369   1.908   3.961   5.486
10709WAT     H232370   1.993   3.968   5.626
10710WAT      O32371   9.543   8.343   7.710
10710WAT     H132372   9.621   8.381   7.661
10710WAT     H232373   9.486   8.291   7.646
10711WAT      O32374   0.023   2.749   1.298
10711WAT     H132375   0.096   2.706   1.245
10711WAT     H232376   0.007   2.842   1.263
10712WAT      O32377   7.863   4.714   2.903
10712WAT     H132378   7.943   4.718   2.843
10712WAT     H232379   7.876   4.775   2.981
10713WAT      O32380   7.779   0.178   3.825
10713WAT     H132381   7.765   0.277   3.823
10713WAT     H232382   7.833   0.155   3.906
10714WAT      O32383   6.843   1.065   9.843
10714WAT     H132384   6.854   1.057   9.942
10714WAT     H232385   6.854   0.975   9.801
10715WAT      O32386   5.707   3.554   1.509
10715WAT     H132387   5.721   3.583   1.415
10715WAT     H232388   5.720   3.455   1.516
10716WAT      O32389   3.334   4.124   1.720
10716WAT     H132390   3.315   4.145   1.816
10716WAT     H232391   3.386   4.038   1.715
10717WAT      O32392   1.398   2.315   9.285
10717WAT     H132393   1.373   2.408   9.258
10717WAT     H232394   1.418   2.313   9.383
10718WAT      O32395   6.513   4.752   9.389
10718WAT     H132396   6.574   4.735   9.311
10718WAT     H232397   6.510   4.670   9.446
10719WAT      O32398   1.795   7.734   7.611
10719WAT     H132399   1.820   7.823   7.573
10719WAT     H232400   1.696   7.724   7.610
10720WAT      O32401   0.694   7.467   2.851
10720WAT     H132402   0.777   7.522   2.855
10720WAT     H232403   0.642   7.479   2.936
10721WAT      O32404   7.661   2.173   8.992
10721WAT     H132405   7.592   2.245   8.984
10721WAT     H232406   7.690   2.144   8.901
10722WAT      O32407   7.663   9.736   8.404
10722WAT     H132408   7.636   9.708   8.496
10722WAT     H232409   7.678   9.655   8.348
10723WAT      O32410   2.469   7.583   8.127
10723WAT     H132411   2.411   7.662   8.107
10723WAT     H232412   2.542   7.610   8.189
10724WAT      O32413   6.396   8.238   9.345
10724WAT     H132414   6.392   8.338   9.345
10724WAT     H232415   6.321   8.201   9.400
10725WAT      O32416   3.624   1.244   5.964
10725WAT     H132417   3.639   1.213   6.058
10725WAT     H232418   3.693   1.312   5.940
10726WAT      O32419   1.617   0.351   6.289
10726WAT     H132420   1.590   0.442   6.259
10726WAT     H232421   1.693   0.318   6.232
10727WAT      O32422   2.702   5.118   0.274
10727WAT     H132423   2.751   5.203   0.256
10727WAT     H232424   2.662   5.121   0.366
10728WAT      O32425   4.879   1.837   3.099
10728WAT     H132426   4.891   1.745   3.136
10728WAT     H232427   4.862   1.832   3.001
10729WAT      O32428   9.544   0.159   9.301
10729WAT     H132429   9.472   0.225   9.277
10729WAT     H232430   9.517   0.068   9.271
10730WAT      O32431   0.945   5.623   6.395
10730WAT     H132432   0.969   5.581   6.308
10730WAT     H232433   0.907   5.554   6.456
10731WAT      O32434   7.182   8.831   0.276
10731WAT     H132435   7.235   8.834   0.191
10731WAT     H232436   7.092   8.870   0.259
10732WAT      O32437   4.788   3.669   5.218
10732WAT     H132438   4.699   3.637   5.250
10732WAT     H232439   4.851   3.675   5.296
10733WAT      O32440   6.063   4.416   0.411
10733WAT     H132441   5.969   4.449   0.417
10733WAT     H232442   6.099   4.401   0.503
10734WAT      O32443   9.099   0.709   9.503
10734WAT     H132444   9.010   0.689   9.461
10734WAT     H232445   9.087   0.776   9.576
10735WAT      O32446   2.840   1.417   2.684
10735WAT     H132447   2.882   1.348   2.743
10735WAT     H232448   2.743   1.395   2.673
10736WAT      O32449   7.307   6.337   3.565
10736WAT     H132450   7.227   6.296   3.609
10736WAT     H232451   7.368   6.375   3.634
10737WAT      O32452   0.419   3.704   2.483
10737WAT     H132453   0.417   3.659   2.572
10737WAT     H232454   0.378   3.644   2.414
10738WAT      O32455   5.984   9.774   3.464
10738WAT     H132456   5.939   9.786   3.552
10738WAT     H232457   5.923   9.803   3.390
10739WAT      O32458   5.336   1.100   4.134
10739WAT     H132459   5.297   1.182   4.093
10739WAT     H232460   5.289   1.019   4.099
10740WAT      O32461   1.197   8.220   4.604
10740WAT     H132462   1.191   8.292   4.536
10740WAT     H232463   1.123   8.231   4.671
10741WAT      O32464   0.314   1.102   5.663
10741WAT     H132465   0.250   1.056   5.602
10741WAT     H232466   0.304   1.201   5.654
10742WAT      O32467   7.944   4.979   9.846
10742WAT     H132468   8.006   4.901   9.857
10742WAT     H232469   7.888   4.988   9.928
10743WAT      O32470   1.535   6.178   0.701
10743WAT     H132471   1.480   6.109   0.747
10743WAT     H232472   1.476   6.252   0.668
10744WAT      O32473   9.763   4.486   2.750
10744WAT     H132474   9.784   4.523   2.841
10744WAT     H232475   9.800   4.548   2.680
10745WAT      O32476   2.373   9.263   5.465
10745WAT     H132477   2.410   9.187   5.519
10745WAT     H232478   2.286   9.235   5.424
10746WAT      O32479   5.202   2.802   8.780
10746WAT     H132480   5.133   2.733   8.759
10746WAT     H232481   5.292   2.769   8.754
10747WAT      O32482   8.764   5.274   2.168
10747WAT     H132483   8.674   5.241   2.194
10747WAT     H232484   8.834   5.230   2.225
10748WAT      O32485   9.410   0.510   4.864
10748WAT     H132486   9.468   0.502   4.784
10748WAT     H232487   9.386   0.607   4.878
10749WAT      O32488   3.329   6.700   9.307
10749WAT     H132489   3.339   6.604   9.334
10749WAT     H232490   3.391   6.756   9.361
10750WAT      O32491   4.708   2.292   0.671
10750WAT     H132492   4.719   2.352   0.749
10750WAT     H232493   4.625   2.236   0.682
10751WAT      O32494   5.051   3.675   6.538
10751WAT     H132495   5.127   3.656   6.599
10751WAT     H232496   4.989   3.742   6.580
10752WAT      O32497   4.042   3.629   2.197
10752WAT     H132498   4.059   3.662   2.290
10752WAT     H232499   4.120   3.574   2.167
10753WAT      O32500   9.052   5.987   5.890
10753WAT     H132501   8.964   6.031   5.907
10753WAT     H232502   9.115   6.008   5.965
10754WAT      O32503   9.067   2.334   8.692
10754WAT     H132504   9.161   2.366   8.681
10754WAT     H232505   9.051   2.309   8.787
10755WAT      O32506   6.793   4.472   5.101
10755WAT     H132507   6.694   4.456   5.105
10755WAT     H232508   6.813   4.565   5.133
10756WAT      O32509   3.087   5.053   0.695
10756WAT     H132510   3.148   5.092   0.627
10756WAT     H232511   3.048   4.968   0.660
10757WAT      O32512   9.013   3.241   0.698
10757WAT     H132513   8.924   3.267   0.660
10757WAT     H232514   9.001   3.170   0.767
10758WAT      O32515   5.536   2.067   1.608
10758WAT     H132516   5.487   2.069   1.695
10758WAT     H232517   5.505   2.142   1.550
10759WAT      O32518   5.661   1.234   3.744
10759WAT     H132519   5.622   1.159   3.691
10759WAT     H232520   5.752   1.209   3.775
10760WAT      O32521   6.592   2.927   6.963
10760WAT     H132522   6.591   2.959   7.058
10760WAT     H232523   6.682   2.892   6.940
10761WAT      O32524   0.353   2.917   2.972
10761WAT     H132525   0.276   2.885   3.028
10761WAT     H232526   0.338   2.892   2.877
10762WAT      O32527   9.008   5.530   5.420
10762WAT     H132528   8.953   5.593   5.475
10762WAT     H232529   9.076   5.582   5.369
10763WAT      O32530   0.645   2.545   5.155
10763WAT     H132531   0.556   2.507   5.184
10763WAT     H232532   0.715   2.517   5.220
10764WAT      O32533   7.110   8.393   7.805
10764WAT     H132534   7.158   8.463   7.858
10764WAT     H232535   7.136   8.401   7.708
10765WAT      O32536   8.475   6.639   4.299
10765WAT     H132537   8.533   6.625   4.380
10765WAT     H232538   8.475   6.736   4.275
10766WAT      O32539   5.274   7.400   2.782
10766WAT     H132540   5.274   7.490   2.739
10766WAT     H232541   5.192   7.350   2.755
10767WAT      O32542   3.883   7.758   0.684
10767WAT     H132543   3.910   7.669   0.722
10767WAT     H232544   3.965   7.809   0.658
10768WAT      O32545   2.856   9.459   2.408
10768WAT     H132546   2.810   9.451   2.497
10768WAT     H232547   2.797   9.508   2.344
10769WAT      O32548   3.947   5.001   4.573
10769WAT     H132549   4.040   4.967   4.559
10769WAT     H232550   3.883   4.924   4.579
10770WAT      O32551   1.883   1.025   4.178
10770WAT     H132552   1.941   1.049   4.101
10770WAT     H232553   1.789   1.015   4.148
10771WAT      O32554   6.552   2.689   6.433
10771WAT     H132555   6.528   2.652   6.343
10771WAT     H232556   6.608   2.772   6.421
10772WAT      O32557   5.781   0.810   3.143
10772WAT     H132558   5.827   0.784   3.228
10772WAT     H232559   5.824   0.892   3.105
10773WAT      O32560   9.714   7.799   4.412
10773WAT     H132561   9.619   7.803   4.380
10773WAT     H232562   9.753   7.890   4.412
10774WAT      O32563   9.768   2.551   1.118
10774WAT     H132564   9.737   2.530   1.210
10774WAT     H232565   9.689   2.560   1.057
10775WAT      O32566   0.987   4.055   6.486
10775WAT     H132567   0.949   3.972   6.526
10775WAT     H232568   1.079   4.072   6.524
10776WAT      O32569   7.957   6.081   1.232
10776WAT     H132570   7.960   5.992   1.276
10776WAT     H232571   7.920   6.072   1.140
10777WAT      O32572   9.170   0.678   0.853
10777WAT     H132573   9.087   0.623   0.858
10777WAT     H232574   9.186   0.706   0.758
10778WAT      O32575   2.692   1.173   1.974
10778WAT     H132576   2.701   1.252   1.914
10778WAT     H232577   2.739   1.095   1.933
10779WAT      O32578   6.393   6.453   1.533
10779WAT     H132579   6.471   6.444   1.596
10779WAT     H232580   6.336   6.371   1.539
10780WAT      O32581   1.264   8.523   4.083
10780WAT     H132582   1.204   8.447   4.109
10780WAT     H232583   1.358   8.500   4.105
10781WAT      O32584   2.435   0.397   5.448
10781WAT     H132585   2.473   0.482   5.484
10781WAT     H232586   2.336   0.409   5.433
10782WAT      O32587   5.759   5.829   6.088
10782WAT     H132588   5.771   5.745   6.036
10782WAT     H232589   5.692   5.815   6.161
10783WAT      O32590   7.907   3.801   4.541
10783WAT     H132591   7.981   3.783   4.477
10783WAT     H232592   7.881   3.716   4.587
10784WAT      O32593   8.389   2.421   4.280
10784WAT     H132594   8.457   2.373   4.225
10784WAT     H232595   8.434   2.496   4.330
10785WAT      O32596   7.922   5.855   4.267
10785WAT     H132597   7.826   5.834   4.251
10785WAT     H232598   7.978   5.810   4.197
10786WAT      O32599   2.000   7.868   3.834
10786WAT     H132600   1.919   7.913   3.795
10786WAT     H232601   2.082   7.900   3.786
10787WAT      O32602   3.723   2.220   9.090
10787WAT     H132603   3.628   2.248   9.089
10787WAT     H232604   3.781   2.297   9.064
10788WAT      O32605   5.204   6.021   8.961
10788WAT     H132606   5.109   6.049   8.948
10788WAT     H232607   5.239   6.062   9.045
10789WAT      O32608   9.355   6.347   5.878
10789WAT     H132609   9.436   6.334   5.821
10789WAT     H232610   9.350   6.276   5.948
10790WAT      O32611   0.864   6.623   9.240
10790WAT     H132612   0.842   6.537   9.284
10790WAT     H232613   0.918   6.606   9.157
10791WAT      O32614   1.388   3.539   7.674
10791WAT     H132615   1.477   3.540   7.629
10791WAT     H232616   1.362   3.445   7.694
10792WAT      O32617   3.534   3.391   5.591
10792WAT     H132618   3.505   3.362   5.682
10792WAT     H232619   3.621   3.349   5.568
10793WAT      O32620   1.125   6.534   7.653
10793WAT     H132621   1.077   6.474   7.588
10793WAT     H232622   1.131   6.626   7.615
10794WAT      O32623   7.143   4.454   9.333
10794WAT     H132624   7.096   4.393   9.397
10794WAT     H232625   7.182   4.399   9.259
10795WAT      O32626   6.035   1.810   7.044
10795WAT     H132627   6.130   1.830   7.020
10795WAT     H232628   5.980   1.803   6.961
10796WAT      O32629   6.388   5.189   0.554
10796WAT     H132630   6.421   5.129   0.482
10796WAT     H232631   6.448   5.269   0.561
10797WAT      O32632   5.545   3.605   2.442
10797WAT     H132633   5.457   3.576   2.478
10797WAT     H232634   5.556   3.703   2.458
10798WAT      O32635   3.100   8.071   0.638
10798WAT     H132636   3.151   8.081   0.724
10798WAT     H232637   3.122   8.148   0.577
10799WAT      O32638   0.983   3.901   5.151
10799WAT     H132639   0.999   3.914   5.053
10799WAT     H232640   0.914   3.967   5.182
10800WAT      O32641   4.668   7.905   7.313
10800WAT     H132642   4.659   7.938   7.406
10800WAT     H232643   4.588   7.851   7.288
10801WAT      O32644   2.819   3.128   9.262
10801WAT     H132645   2.778   3.164   9.346
10801WAT     H232646   2.854   3.205   9.208
10802WAT      O32647   7.350   5.883   4.946
10802WAT     H132648   7.400   5.909   5.029
10802WAT     H232649   7.398   5.807   4.902
10803WAT      O32650   5.080   8.640   1.793
10803WAT     H132651   4.984   8.614   1.804
10803WAT     H232652   5.129   8.569   1.742
10804WAT      O32653   2.378   7.545   4.339
10804WAT     H132654   2.305   7.539   4.271
10804WAT     H232655   2.447   7.610   4.309
10805WAT      O32656   9.421   1.962   0.278
10805WAT     H132657   9.341   1.925   0.232
10805WAT     H232658   9.502   1.946   0.222
10806WAT      O32659   4.334   3.808   1.565
10806WAT     H132660   4.301   3.761   1.483
10806WAT     H232661   4.433   3.797   1.572
10807WAT      O32662   5.719   4.326   7.970
10807WAT     H132663   5.793   4.260   7.962
10807WAT     H232664   5.641   4.295   7.916
10808WAT      O32665   1.606   9.389   2.388
10808WAT     H132666   1.690   9.360   2.433
10808WAT     H232667   1.624   9.469   2.332
10809WAT      O32668   4.246   8.188   1.170
10809WAT     H132669   4.322   8.135   1.207
10809WAT     H232670   4.199   8.134   1.100
10810WAT      O32671   7.548   1.199   5.889
10810WAT     H132672   7.607   1.270   5.928
10810WAT     H232673   7.462   1.240   5.859
10811WAT      O32674   4.574   7.736   6.565
10811WAT     H132675   4.546   7.661   6.505
10811WAT     H232676   4.581   7.702   6.659
10812WAT      O32677   1.681   0.372   8.791
10812WAT     H132678   1.739   0.452   8.801
10812WAT     H232679   1.585   0.400   8.794
10813WAT      O32680   4.248   1.012   0.790
10813WAT     H132681   4.331   0.991   0.738
10813WAT     H232682   4.178   0.943   0.769
10814WAT      O32683   2.268   8.142   9.608
10814WAT     H132684   2.213   8.076   9.660
10814WAT     H232685   2.246   8.235   9.638
10815WAT      O32686   8.571   2.228   9.133
10815WAT     H132687   8.615   2.139   9.146
10815WAT     H232688   8.591   2.287   9.211
10816WAT      O32689   7.326   7.399   1.826
10816WAT     H132690   7.255   7.440   1.884
10816WAT     H232691   7.340   7.304   1.853
10817WAT      O32692   1.576   6.909   9.630
10817WAT     H132693   1.655   6.849   9.617
10817WAT     H232694   1.560   6.922   9.728
10818WAT      O32695   9.198   5.682   9.627
10818WAT     H132696   9.238   5.600   9.668
10818WAT     H232697   9.103   5.663   9.600
10819WAT      O32698   9.626   8.141   7.282
10819WAT     H132699   9.589   8.064   7.230
10819WAT     H232700   9.658   8.109   7.371
10820WAT      O32701   5.523   1.163   2.417
10820WAT     H132702   5.599   1.178   2.480
10820WAT     H232703   5.557   1.121   2.332
10821WAT      O32704   5.937   2.852   2.842
10821WAT     H132705   5.859   2.832   2.783
10821WAT     H232706   5.977   2.766   2.874
10822WAT      O32707   6.079   1.887   7.337
10822WAT     H132708   6.093   1.862   7.433
10822WAT     H232709   6.103   1.808   7.279
10823WAT      O32710   5.018   1.317   6.391
10823WAT     H132711   5.076   1.398   6.397
10823WAT     H232712   5.048   1.250   6.460
10824WAT      O32713   3.691   7.816   1.143
10824WAT     H132714   3.732   7.864   1.221
10824WAT     H232715   3.709   7.718   1.150
10825WAT      O32716   4.368   5.772   8.677
10825WAT     H132717   4.438   5.834   8.713
10825WAT     H232718   4.313   5.821   8.609
10826WAT      O32719   7.045   4.909   5.105
10826WAT     H132720   7.036   4.975   5.179
10826WAT     H232721   7.142   4.895   5.085
10827WAT      O32722   3.658   3.561   3.065
10827WAT     H132723   3.623   3.516   3.147
10827WAT     H232724   3.680   3.492   2.996
10828WAT      O32725   0.226   5.788   5.174
10828WAT     H132726   0.136   5.812   5.210
10828WAT     H232727   0.268   5.870   5.134
10829WAT      O32728   9.110   6.067   2.650
10829WAT     H132729   9.020   6.110   2.642
10829WAT     H232730   9.102   5.969   2.634
10830WAT      O32731   1.147   4.699   3.596
10830WAT     H132732   1.226   4.758   3.579
10830WAT     H232733   1.122   4.652   3.511
10831WAT      O32734   2.498   6.893   6.694
10831WAT     H132735   2.497   6.820   6.626
10831WAT     H232736   2.516   6.981   6.649
10832WAT      O32737   1.037   7.949   4.972
10832WAT     H132738   1.090   8.004   5.037
10832WAT     H232739   1.074   7.963   4.880
10833WAT      O32740   2.354   3.942   8.103
10833WAT     H132741   2.390   3.959   8.194
10833WAT     H232742   2.310   4.025   8.068
10834WAT      O32743   7.910   2.636   4.961
10834WAT     H132744   7.921   2.730   4.929
10834WAT     H232745   7.945   2.572   4.892
10835WAT      O32746   2.619   1.694   2.951
10835WAT     H132747   2.654   1.759   3.018
10835WAT     H232748   2.695   1.644   2.910
10836WAT      O32749   1.209   9.671   3.692
10836WAT     H132750   1.203   9.571   3.686
10836WAT     H232751   1.120   9.711   3.671
10837WAT      O32752   8.564   9.662   1.706
10837WAT     H132753   8.480   9.622   1.742
10837WAT     H232754   8.596   9.734   1.768
10838WAT      O32755   8.149   1.262   8.062
10838WAT     H132756   8.192   1.177   8.032
10838WAT     H232757   8.052   1.246   8.078
10839WAT      O32758   2.365   4.000   7.566
10839WAT     H132759   2.407   4.025   7.479
10839WAT     H232760   2.394   4.064   7.637
10840WAT      O32761   9.439   7.775   1.356
10840WAT     H132762   9.369   7.720   1.402
10840WAT     H232763   9.442   7.866   1.398
10841WAT      O32764   4.109   1.661   3.142
10841WAT     H132765   4.104   1.757   3.116
10841WAT     H232766   4.180   1.616   3.088
10842WAT      O32767   9.775   6.057   7.459
10842WAT     H132768   9.717   6.041   7.379
10842WAT     H232769   9.730   6.120   7.522
10843WAT      O32770   9.786   0.219   9.165
10843WAT     H132771   9.785   0.217   9.065
10843WAT     H232772   9.697   0.190   9.200
10844WAT      O32773   7.600   0.271   3.431
10844WAT     H132774   7.518   0.215   3.417
10844WAT     H232775   7.680   0.212   3.436
10845WAT      O32776   0.968   4.895   1.338
10845WAT     H132777   1.044   4.847   1.294
10845WAT     H232778   0.932   4.839   1.413
10846WAT      O32779   5.883   0.437   5.695
10846WAT     H132780   5.855   0.484   5.611
10846WAT     H232781   5.846   0.486   5.774
10847WAT      O32782   2.018   6.431   3.730
10847WAT     H132783   1.955   6.493   3.683
10847WAT     H232784   1.974   6.342   3.743
10848WAT      O32785   2.700   6.640   0.802
10848WAT     H132786   2.718   6.707   0.730
10848WAT     H232787   2.642   6.567   0.765
10849WAT      O32788   4.693   7.685   3.888
10849WAT     H132789   4.705   7.768   3.833
10849WAT     H232790   4.601   7.685   3.928
10850WAT      O32791   0.901   7.537   6.714
10850WAT     H132792   0.978   7.497   6.664
10850WAT     H232793   0.844   7.464   6.752
10851WAT      O32794   7.721   4.661   5.986
10851WAT     H132795   7.685   4.753   5.974
10851WAT     H232796   7.751   4.649   6.080
10852WAT      O32797   5.825   7.606   8.811
10852WAT     H132798   5.811   7.539   8.739
10852WAT     H232799   5.922   7.608   8.837
10853WAT      O32800   3.794   8.635   4.601
10853WAT     H132801   3.715   8.678   4.558
10853WAT     H232802   3.783   8.536   4.599
10854WAT      O32803   9.689   8.481   0.645
10854WAT     H132804   9.676   8.579   0.659
10854WAT     H232805   9.727   8.441   0.728
10855WAT      O32806   8.257   4.001   8.072
10855WAT     H132807   8.236   4.086   8.121
10855WAT     H232808   8.318   4.021   7.995
10856WAT      O32809   2.600   2.038   7.082
10856WAT     H132810   2.625   2.087   7.166
10856WAT     H232811   2.587   2.105   7.008
10857WAT      O32812   3.672   9.720   2.550
10857WAT     H132813   3.629   9.643   2.503
10857WAT     H232814   3.615   9.748   2.628
10858WAT      O32815   9.118   2.721   4.943
10858WAT     H132816   9.145   2.625   4.953
10858WAT     H232817   9.158   2.775   5.018
10859WAT      O32818   4.050   9.294   4.661
10859WAT     H132819   4.092   9.365   4.604
10859WAT     H232820   4.110   9.273   4.738
10860WAT      O32821   6.136   3.576   4.143
10860WAT     H132822   6.069   3.649   4.126
10860WAT     H232823   6.109   3.525   4.225
10861WAT      O32824   5.514   6.035   2.116
10861WAT     H132825   5.526   5.939   2.093
10861WAT     H232826   5.490   6.044   2.213
10862WAT      O32827   1.761   1.971   5.921
10862WAT     H132828   1.712   1.890   5.955
10862WAT     H232829   1.790   1.955   5.827
10863WAT      O32830   2.163   0.864   0.273
10863WAT     H132831   2.160   0.795   0.345
10863WAT     H232832   2.158   0.820   0.184
10864WAT      O32833   2.700   5.018   7.105
10864WAT     H132834   2.653   4.986   7.023
10864WAT     H232835   2.694   5.117   7.111
10865WAT      O32836   7.799   3.718   3.965
10865WAT     H132837   7.816   3.816   3.972
10865WAT     H232838   7.710   3.702   3.922
10866WAT      O32839   9.228   4.673   2.653
10866WAT     H132840   9.252   4.643   2.561
10866WAT     H232841   9.252   4.602   2.719
10867WAT      O32842   8.712   7.723   7.160
10867WAT     H132843   8.777   7.742   7.233
10867WAT     H232844   8.661   7.639   7.180
10868WAT      O32845   1.459   9.093   3.636
10868WAT     H132846   1.543   9.054   3.600
10868WAT     H232847   1.381   9.038   3.606
10869WAT      O32848   0.473   7.364   6.176
10869WAT     H132849   0.506   7.273   6.201
10869WAT     H232850   0.536   7.405   6.110
10870WAT      O32851   6.907   3.438   1.181
10870WAT     H132852   6.983   3.458   1.119
10870WAT     H232853   6.843   3.376   1.137
10871WAT      O32854   1.613   2.397   6.944
10871WAT     H132855   1.527   2.433   6.906
10871WAT     H232856   1.623   2.302   6.916
10872WAT      O32857   9.001   4.433   9.508
10872WAT     H132858   9.019   4.506   9.442
10872WAT     H232859   8.931   4.463   9.573
10873WAT      O32860   2.507   9.769   7.859
10873WAT     H132861   2.408   9.782   7.857
10873WAT     H232862   2.542   9.766   7.765
10874WAT      O32863   8.012   6.869   4.736
10874WAT     H132864   8.098   6.836   4.775
10874WAT     H232865   7.939   6.805   4.760
10875WAT      O32866   9.875   1.070   7.667
10875WAT     H132867   9.956   1.021   7.635
10875WAT     H232868   9.894   1.169   7.669
10876WAT      O32869   8.387   2.759   6.981
10876WAT     H132870   8.465   2.780   6.923
10876WAT     H232871   8.346   2.672   6.953
10877WAT      O32872   3.528   5.910   5.559
10877WAT     H132873   3.432   5.880   5.564
10877WAT     H232874   3.553   5.953   5.646
10878WAT      O32875   9.757   0.995   7.910
10878WAT     H132876   9.705   0.915   7.879
10878WAT     H232877   9.812   1.030   7.834
10879WAT      O32878   1.082   6.087   4.732
10879WAT     H132879   1.102   6.145   4.653
10879WAT     H232880   1.165   6.037   4.757
10880WAT      O32881   9.473   2.643   7.033
10880WAT     H132882   9.451   2.706   7.107
10880WAT     H232883   9.389   2.616   6.985
10881WAT      O32884   9.457   6.687   9.852
10881WAT     H132885   9.445   6.776   9.896
10881WAT     H232886   9.529   6.694   9.783
10882WAT      O32887   4.074   3.734   2.441
10882WAT     H132888   4.140   3.809   2.435
10882WAT     H232889   4.069   3.702   2.535
10883WAT      O32890   3.168   4.388   9.719
10883WAT     H132891   3.074   4.358   9.704
10883WAT     H232892   3.231   4.316   9.690
10884WAT      O32893   9.253   1.201   4.164
10884WAT     H132894   9.240   1.163   4.255
10884WAT     H232895   9.178   1.171   4.104
10885WAT      O32896   7.919   2.554   7.381
10885WAT     H132897   8.004   2.557   7.328
10885WAT     H232898   7.937   2.517   7.472
10886WAT      O32899   5.122   5.330   0.043
10886WAT     H132900   5.044   5.297  -0.011
10886WAT     H232901   5.091   5.398   0.109
10887WAT      O32902   1.884   1.512   5.256
10887WAT     H132903   1.930   1.430   5.222
10887WAT     H232904   1.934   1.549   5.334
10888WAT      O32905   3.798   4.506   6.672
10888WAT     H132906   3.876   4.518   6.733
10888WAT     H232907   3.715   4.537   6.719
10889WAT      O32908   9.455   8.918   1.861
10889WAT     H132909   9.361   8.888   1.881
10889WAT     H232910   9.517   8.878   1.928
10890WAT      O32911   1.889   0.785   5.878
10890WAT     H132912   1.877   0.867   5.933
10890WAT     H232913   1.850   0.799   5.787
10891WAT      O32914   5.745   6.488   3.333
10891WAT     H132915   5.809   6.563   3.314
10891WAT     H232916   5.773   6.406   3.283
10892WAT      O32917   3.686   5.624   0.111
10892WAT     H132918   3.763   5.665   0.061
10892WAT     H232919   3.607   5.685   0.105
10893WAT      O32920   7.238   5.023   6.845
10893WAT     H132921   7.312   4.955   6.844
10893WAT     H232922   7.214   5.045   6.939
10894WAT      O32923   1.967   7.760   4.636
10894WAT     H132924   2.013   7.672   4.649
10894WAT     H232925   1.968   7.784   4.539
10895WAT      O32926   5.322   5.344   5.983
10895WAT     H132927   5.275   5.257   5.980
10895WAT     H232928   5.379   5.354   5.902
10896WAT      O32929   6.720   8.043   5.814
10896WAT     H132930   6.762   8.044   5.723
10896WAT     H232931   6.627   8.006   5.807
10897WAT      O32932   7.714   2.107   1.636
10897WAT     H132933   7.690   2.203   1.651
10897WAT     H232934   7.749   2.067   1.720
10898WAT      O32935   3.472   3.961   7.329
10898WAT     H132936   3.398   3.951   7.395
10898WAT     H232937   3.560   3.949   7.375
10899WAT      O32938   8.198   2.154   5.163
10899WAT     H132939   8.264   2.155   5.237
10899WAT     H232940   8.203   2.066   5.114
10900WAT      O32941   1.557   6.913   3.987
10900WAT     H132942   1.632   6.890   4.048
10900WAT     H232943   1.520   7.003   4.011
10901WAT      O32944   1.810   9.442   3.716
10901WAT     H132945   1.816   9.537   3.685
10901WAT     H232946   1.872   9.385   3.662
10902WAT      O32947   2.163   2.751   6.693
10902WAT     H132948   2.142   2.807   6.613
10902WAT     H232949   2.112   2.665   6.687
10903WAT      O32950   0.978   6.307   8.682
10903WAT     H132951   1.058   6.263   8.723
10903WAT     H232952   1.008   6.369   8.610
10904WAT      O32953   1.905   8.450   5.795
10904WAT     H132954   1.897   8.453   5.695
10904WAT     H232955   1.893   8.355   5.826
10905WAT      O32956   9.203   8.274   3.819
10905WAT     H132957   9.108   8.273   3.787
10905WAT     H232958   9.206   8.243   3.914
10906WAT      O32959   8.311   6.676   5.458
10906WAT     H132960   8.294   6.631   5.370
10906WAT     H232961   8.267   6.625   5.531
10907WAT      O32962   1.903   3.940   8.689
10907WAT     H132963   1.804   3.929   8.693
10907WAT     H232964   1.946   3.852   8.668
10908WAT      O32965   7.524   3.475   8.788
10908WAT     H132966   7.488   3.388   8.823
10908WAT     H232967   7.549   3.534   8.865
10909WAT      O32968   5.948   0.699   1.249
10909WAT     H132969   5.935   0.612   1.201
10909WAT     H232970   6.018   0.688   1.320
10910WAT      O32971   4.960   0.431   9.409
10910WAT     H132972   4.937   0.526   9.385
10910WAT     H232973   5.021   0.431   9.488
10911WAT      O32974   2.987   9.599   5.434
10911WAT     H132975   3.055   9.561   5.371
10911WAT     H232976   3.034   9.637   5.514
10912WAT      O32977   9.272   9.083   8.639
10912WAT     H132978   9.317   9.120   8.558
10912WAT     H232979   9.338   9.031   8.693
10913WAT      O32980   7.196   1.510   6.374
10913WAT     H132981   7.252   1.472   6.448
10913WAT     H232982   7.121   1.563   6.414
10914WAT      O32983   8.443   4.430   7.849
10914WAT     H132984   8.543   4.425   7.843
10914WAT     H232985   8.402   4.358   7.793
10915WAT      O32986   0.659   8.690   1.799
10915WAT     H132987   0.734   8.734   1.848
10915WAT     H232988   0.599   8.644   1.864
10916WAT      O32989   1.873   0.385   9.737
10916WAT     H132990   1.822   0.464   9.703
10916WAT     H232991   1.971   0.405   9.737
10917WAT      O32992   1.751   4.971   0.426
10917WAT     H132993   1.717   4.877   0.419
10917WAT     H232994   1.809   4.979   0.507
10918WAT      O32995   6.040   9.623   6.032
10918WAT     H132996   5.959   9.681   6.038
10918WAT     H232997   6.039   9.574   5.945
10919WAT      O32998   3.143   2.953   2.114
10919WAT     H132999   3.210   2.886   2.081
10919WAT     H233000   3.051   2.914   2.106
10920WAT      O33001   6.865   0.647   4.851
10920WAT     H133002   6.852   0.555   4.816
10920WAT     H233003   6.832   0.713   4.784
10921WAT      O33004   6.847   3.412   8.277
10921WAT     H133005   6.854   3.384   8.181
10921WAT     H233006   6.840   3.512   8.282
10922WAT      O33007   4.987   3.940   3.355
10922WAT     H133008   4.904   3.966   3.404
10922WAT     H233009   5.050   3.894   3.418
10923WAT      O33010   3.274   7.125   9.817
10923WAT     H133011   3.245   7.068   9.740
10923WAT     H233012   3.361   7.090   9.853
10924WAT      O33013   8.474   3.178   2.074
10924WAT     H133014   8.559   3.178   2.127
10924WAT     H233015   8.451   3.272   2.049
10925WAT      O33016   8.626   2.714   3.384
10925WAT     H133017   8.568   2.715   3.302
10925WAT     H233018   8.588   2.651   3.451
10926WAT      O33019   8.329   1.782   0.835
10926WAT     H133020   8.384   1.779   0.751
10926WAT     H233021   8.370   1.722   0.903
10927WAT      O33022   3.217   8.269   9.130
10927WAT     H133023   3.124   8.241   9.108
10927WAT     H233024   3.279   8.191   9.126
10928WAT      O33025   5.305   8.741   6.191
10928WAT     H133026   5.321   8.642   6.198
10928WAT     H233027   5.317   8.783   6.281
10929WAT      O33028   6.000   2.775   6.753
10929WAT     H133029   5.926   2.722   6.712
10929WAT     H233030   6.022   2.853   6.695
10930WAT      O33031   1.204   6.761   6.925
10930WAT     H133032   1.118   6.775   6.974
10930WAT     H233033   1.280   6.760   6.989
10931WAT      O33034   0.727   8.745   2.955
10931WAT     H133035   0.672   8.663   2.942
10931WAT     H233036   0.697   8.816   2.891
10932WAT      O33037   0.161   2.922   9.505
10932WAT     H133038   0.221   2.990   9.548
10932WAT     H233039   0.213   2.838   9.488
10933WAT      O33040   3.357   2.438   1.807
10933WAT     H133041   3.284   2.393   1.859
10933WAT     H233042   3.432   2.461   1.869
10934WAT      O33043   4.534   0.291   3.178
10934WAT     H133044   4.467   0.330   3.114
10934WAT     H233045   4.573   0.364   3.233
10935WAT      O33046   4.229   4.896   3.668
10935WAT     H133047   4.309   4.850   3.705
10935WAT     H233048   4.243   4.995   3.670
10936WAT      O33049   7.991   5.824   1.556
10936WAT     H133050   8.054   5.860   1.625
10936WAT     H233051   7.905   5.876   1.560
10937WAT      O33052   2.998   5.339   1.880
10937WAT     H133053   2.972   5.324   1.785
10937WAT     H233054   2.943   5.414   1.918
10938WAT      O33055   0.100   9.494   1.743
10938WAT     H133056   0.053   9.455   1.664
10938WAT     H233057   0.184   9.443   1.761
10939WAT      O33058   5.384   6.832   9.091
10939WAT     H133059   5.459   6.863   9.033
10939WAT     H233060   5.340   6.753   9.049
10940WAT      O33061   5.070   8.606   1.383
10940WAT     H133062   5.110   8.684   1.430
10940WAT     H233063   5.076   8.621   1.284
10941WAT      O33064   4.777   5.529   0.590
10941WAT     H133065   4.835   5.472   0.532
10941WAT     H233066   4.817   5.620   0.600
10942WAT      O33067   2.071   2.126   2.386
10942WAT     H133068   2.067   2.074   2.471
10942WAT     H233069   2.129   2.079   2.320
10943WAT      O33070   9.591   5.146   8.664
10943WAT     H133071   9.633   5.079   8.603
10943WAT     H233072   9.590   5.110   8.758
10944WAT      O33073   6.240   2.641   0.547
10944WAT     H133074   6.304   2.572   0.512
10944WAT     H233075   6.250   2.726   0.496
10945WAT      O33076   8.725   6.345   4.316
10945WAT     H133077   8.798   6.354   4.384
10945WAT     H233078   8.637   6.340   4.363
10946WAT      O33079   1.479   8.478   0.195
10946WAT     H133080   1.551   8.540   0.164
10946WAT     H233081   1.456   8.499   0.290
10947WAT      O33082   9.055   0.875   9.225
10947WAT     H133083   9.043   0.777   9.206
10947WAT     H233084   8.966   0.920   9.225
10948WAT      O33085   7.816   6.192   7.514
10948WAT     H133086   7.868   6.111   7.486
10948WAT     H233087   7.867   6.274   7.489
10949WAT      O33088   6.516   0.847   3.825
10949WAT     H133089   6.471   0.785   3.889
10949WAT     H233090   6.473   0.938   3.832
10950WAT      O33091   6.558   4.456   3.739
10950WAT     H133092   6.502   4.388   3.692
10950WAT     H233093   6.526   4.548   3.716
10951WAT      O33094   8.224   5.723   1.908
10951WAT     H133095   8.184   5.774   1.984
10951WAT     H233096   8.323   5.737   1.907
10952WAT      O33097   5.169   6.433   1.102
10952WAT     H133098   5.241   6.406   1.038
10952WAT     H233099   5.174   6.376   1.184
10953WAT      O33100   2.383   8.029   4.828
10953WAT     H133101   2.394   8.059   4.734
10953WAT     H233102   2.375   7.929   4.831
10954WAT      O33103   8.039   4.694   6.652
10954WAT     H133104   8.088   4.681   6.566
10954WAT     H233105   8.063   4.621   6.716
10955WAT      O33106   3.622   1.000   9.379
10955WAT     H133107   3.608   0.902   9.367
10955WAT     H233108   3.718   1.022   9.364
10956WAT      O33109   0.389   8.960   9.016
10956WAT     H133110   0.320   9.028   9.038
10956WAT     H233111   0.409   8.905   9.098
10957WAT      O33112   0.881   3.675   6.997
10957WAT     H133113   0.824   3.755   7.016
10957WAT     H233114   0.822   3.595   6.985
10958WAT      O33115   0.584   8.313   9.744
10958WAT     H133116   0.538   8.270   9.666
10958WAT     H233117   0.596   8.410   9.727
10959WAT      O33118   1.287   5.687   0.238
10959WAT     H133119   1.255   5.779   0.214
10959WAT     H233120   1.344   5.651   0.164
10960WAT      O33121   2.138   1.280   3.109
10960WAT     H133122   2.135   1.180   3.111
10960WAT     H233123   2.165   1.311   3.017
10961WAT      O33124   7.523   4.344   5.603
10961WAT     H133125   7.619   4.315   5.613
10961WAT     H233126   7.511   4.388   5.514
10962WAT      O33127   8.438   4.707   8.404
10962WAT     H133128   8.500   4.707   8.325
10962WAT     H233129   8.364   4.642   8.388
10963WAT      O33130   9.265   4.765   3.080
10963WAT     H133131   9.266   4.768   2.980
10963WAT     H233132   9.239   4.854   3.116
10964WAT      O33133   9.884   0.353   2.348
10964WAT     H133134   9.984   0.355   2.345
10964WAT     H233135   9.847   0.415   2.279
10965WAT      O33136   8.988   6.115   7.614
10965WAT     H133137   9.011   6.049   7.685
10965WAT     H233138   9.065   6.125   7.551
10966WAT      O33139   8.028   1.517   8.096
10966WAT     H133140   8.076   1.601   8.122
10966WAT     H233141   8.094   1.448   8.066
10967WAT      O33142   3.487   7.202   3.795
10967WAT     H133143   3.507   7.277   3.858
10967WAT     H233144   3.557   7.132   3.803
10968WAT      O33145   2.119   5.502   0.703
10968WAT     H133146   2.030   5.515   0.748
10968WAT     H233147   2.175   5.583   0.716
10969WAT      O33148   1.289   8.190   2.133
10969WAT     H133149   1.276   8.221   2.228
10969WAT     H233150   1.386   8.194   2.110
10970WAT      O33151   2.033   3.009   8.976
10970WAT     H133152   1.936   3.000   8.953
10970WAT     H233153   2.049   3.099   9.018
10971WAT      O33154   9.060   7.282   2.517
10971WAT     H133155   9.055   7.184   2.497
10971WAT     H233156   9.155   7.309   2.526
10972WAT      O33157   1.567   5.237   8.652
10972WAT     H133158   1.566   5.220   8.554
10972WAT     H233159   1.659   5.222   8.688
10973WAT      O33160   2.779   2.682   3.213
10973WAT     H133161   2.691   2.678   3.165
10973WAT     H233162   2.800   2.777   3.237
10974WAT      O33163   0.902   4.459   9.147
10974WAT     H133164   0.888   4.391   9.219
10974WAT     H233165   0.861   4.546   9.176
10975WAT      O33166   4.042   0.014   5.272
10975WAT     H133167   4.009   0.092   5.325
10975WAT     H233168   3.977  -0.007   5.199
10976WAT      O33169   2.750   6.320   9.116
10976WAT     H133170   2.821   6.301   9.048
10976WAT     H233171   2.660   6.308   9.074
10977WAT      O33172   9.717   0.036   6.071
10977WAT     H133173   9.639   0.091   6.042
10977WAT     H233174   9.731  -0.038   6.005
10978WAT      O33175   9.017   8.119   1.510
10978WAT     H133176   8.928   8.163   1.506
10978WAT     H233177   9.007   8.021   1.496
10979WAT      O33178   0.580   0.890   4.157
10979WAT     H133179   0.660   0.900   4.099
10979WAT     H233180   0.499   0.924   4.109
10980WAT      O33181   4.473   8.875   4.519
10980WAT     H133182   4.459   8.885   4.420
10980WAT     H233183   4.455   8.963   4.564
10981WAT      O33184   7.924   1.209   9.302
10981WAT     H133185   7.968   1.216   9.392
10981WAT     H233186   7.975   1.262   9.235
10982WAT      O33187   4.037   8.372   7.315
10982WAT     H133188   4.112   8.426   7.354
10982WAT     H233189   4.075   8.302   7.254
10983WAT      O33190   8.278   4.185   7.733
10983WAT     H133191   8.350   4.140   7.785
10983WAT     H233192   8.229   4.118   7.677
10984WAT      O33193   3.724   3.186   1.961
10984WAT     H133194   3.638   3.145   1.930
10984WAT     H233195   3.776   3.118   2.013
10985WAT      O33196   6.344   0.514   6.032
10985WAT     H133197   6.318   0.583   6.099
10985WAT     H233198   6.324   0.423   6.068
10986WAT      O33199   0.973   0.523   3.799
10986WAT     H133200   0.958   0.609   3.750
10986WAT     H233201   0.940   0.447   3.743
10987WAT      O33202   7.031   6.254   6.253
10987WAT     H133203   6.950   6.308   6.276
10987WAT     H233204   7.036   6.175   6.314
10988WAT      O33205   1.689   1.579   1.681
10988WAT     H133206   1.686   1.556   1.779
10988WAT     H233207   1.775   1.545   1.642
10989WAT      O33208   2.801   7.497   2.027
10989WAT     H133209   2.777   7.510   2.124
10989WAT     H233210   2.870   7.426   2.019
10990WAT      O33211   9.318   3.593   5.552
10990WAT     H133212   9.246   3.623   5.489
10990WAT     H233213   9.408   3.618   5.514
10991WAT      O33214   8.623   2.434   7.128
10991WAT     H133215   8.646   2.525   7.163
10991WAT     H233216   8.701   2.397   7.078
10992WAT      O33217   7.024   0.934   4.314
10992WAT     H133218   7.075   0.938   4.228
10992WAT     H233219   6.931   0.967   4.300
10993WAT      O33220   4.732   0.829   0.577
10993WAT     H133221   4.790   0.754   0.608
10993WAT     H233222   4.785   0.914   0.574
10994WAT      O33223   6.706   7.607   4.365
10994WAT     H133224   6.727   7.535   4.299
10994WAT     H233225   6.612   7.598   4.396
10995WAT      O33226   1.250   9.651   6.918
10995WAT     H133227   1.233   9.721   6.986
10995WAT     H233228   1.166   9.635   6.865
10996WAT      O33229   0.225   2.942   0.086
10996WAT     H133230   0.192   2.886   0.010
10996WAT     H233231   0.259   2.882   0.159
10997WAT      O33232   5.027   3.637   8.229
10997WAT     H133233   5.009   3.562   8.292
10997WAT     H233234   5.016   3.724   8.278
10998WAT      O33235   2.361   1.818   9.561
10998WAT     H133236   2.270   1.853   9.582
10998WAT     H233237   2.403   1.782   9.644
10999WAT      O33238   8.727   4.448   8.381
10999WAT     H133239   8.647   4.404   8.422
10999WAT     H233240   8.705   4.478   8.288
11000WAT      O33241   9.124   2.046   4.206
11000WAT     H133242   9.118   2.146   4.202
11000WAT     H233243   9.121   2.009   4.113
11001WAT      O33244   3.967   5.989   6.566
11001WAT     H133245   3.985   5.978   6.663
11001WAT     H233246   3.891   5.930   6.539
11002WAT      O33247   0.066   9.139   8.738
11002WAT     H133248   0.156   9.183   8.729
11002WAT     H233249   0.009   9.166   8.661
11003WAT      O33250   8.740   5.088   0.843
11003WAT     H133251   8.695   5.001   0.866
11003WAT     H233252   8.836   5.070   0.821
11004WAT      O33253   4.493   6.472   3.962
11004WAT     H133254   4.589   6.452   3.982
11004WAT     H233255   4.436   6.438   4.038
11005WAT      O33256   8.825   9.205   0.701
11005WAT     H133257   8.741   9.257   0.717
11005WAT     H233258   8.855   9.163   0.786
11006WAT      O33259   3.346   7.152   8.957
11006WAT     H133260   3.339   7.211   9.037
11006WAT     H233261   3.414   7.081   8.973
11007WAT      O33262   5.440   0.389   3.329
11007WAT     H133263   5.464   0.481   3.360
11007WAT     H233264   5.347   0.367   3.358
11008WAT      O33265   5.753   8.605   9.887
11008WAT     H133266   5.818   8.531   9.908
11008WAT     H233267   5.762   8.630   9.791
11009WAT      O33268   4.758   1.260   1.425
11009WAT     H133269   4.687   1.214   1.371
11009WAT     H233270   4.840   1.202   1.427
11010WAT      O33271   2.175   4.729   0.008
11010WAT     H133272   2.080   4.739   0.039
11010WAT     H233273   2.232   4.796   0.056
11011WAT      O33274   6.787   2.397   8.044
11011WAT     H133275   6.734   2.424   8.124
11011WAT     H233276   6.729   2.343   7.983
11012WAT      O33277   6.932   7.191   3.201
11012WAT     H133278   6.913   7.118   3.136
11012WAT     H233279   7.031   7.201   3.212
11013WAT      O33280   9.640   6.823   2.327
11013WAT     H133281   9.624   6.733   2.367
11013WAT     H233282   9.738   6.842   2.326
11014WAT      O33283   8.490   6.714   7.890
11014WAT     H133284   8.427   6.643   7.859
11014WAT     H233285   8.583   6.689   7.865
11015WAT      O33286   5.952   2.229   3.790
11015WAT     H133287   5.995   2.140   3.808
11015WAT     H233288   6.021   2.301   3.799
11016WAT      O33289   1.995   7.353   8.035
11016WAT     H133290   1.979   7.271   8.089
11016WAT     H233291   2.090   7.382   8.045
11017WAT      O33292   0.250   8.281   1.942
11017WAT     H133293   0.267   8.290   1.844
11017WAT     H233294   0.172   8.219   1.957
11018WAT      O33295   6.986   2.824   9.350
11018WAT     H133296   6.955   2.729   9.353
11018WAT     H233297   6.997   2.857   9.444
11019WAT      O33298   0.278   0.846   3.358
11019WAT     H133299   0.194   0.793   3.349
11019WAT     H233300   0.357   0.785   3.351
11020WAT      O33301   6.535   9.411   2.744
11020WAT     H133302   6.611   9.476   2.745
11020WAT     H233303   6.512   9.389   2.649
11021WAT      O33304   1.305   6.187   7.281
11021WAT     H133305   1.261   6.177   7.370
11021WAT     H233306   1.347   6.277   7.274
11022WAT      O33307   5.246   0.464   7.531
11022WAT     H133308   5.301   0.382   7.516
11022WAT     H233309   5.261   0.529   7.456
11023WAT      O33310   9.188   6.296   5.262
11023WAT     H133311   9.283   6.324   5.257
11023WAT     H233312   9.159   6.262   5.172
11024WAT      O33313   4.867   7.485   8.515
11024WAT     H133314   4.837   7.566   8.465
11024WAT     H233315   4.808   7.472   8.595
11025WAT      O33316   4.881   0.683   8.600
11025WAT     H133317   4.965   0.700   8.547
11025WAT     H233318   4.801   0.700   8.542
11026WAT      O33319   6.823   9.755   8.889
11026WAT     H133320   6.872   9.817   8.827
11026WAT     H233321   6.865   9.665   8.887
11027WAT      O33322   5.583   1.636   6.563
11027WAT     H133323   5.626   1.616   6.651
11027WAT     H233324   5.651   1.629   6.490
11028WAT      O33325   8.063   9.801   0.151
11028WAT     H133326   7.966   9.825   0.142
11028WAT     H233327   8.100   9.843   0.235
11029WAT      O33328   3.721   4.914   9.711
11029WAT     H133329   3.659   4.894   9.787
11029WAT     H233330   3.813   4.928   9.746
11030WAT      O33331   3.820   1.509   1.416
11030WAT     H133332   3.829   1.426   1.471
11030WAT     H233333   3.899   1.517   1.355
11031WAT      O33334   9.489   8.660   2.286
11031WAT     H133335   9.562   8.674   2.353
11031WAT     H233336   9.401   8.679   2.330
11032WAT      O33337   7.575   7.474   9.857
11032WAT     H133338   7.568   7.544   9.928
11032WAT     H233339   7.494   7.478   9.798
11033WAT      O33340   2.349   3.381   9.662
11033WAT     H133341   2.309   3.349   9.748
11033WAT     H233342   2.401   3.307   9.620
11034WAT      O33343   3.286   8.437   1.766
11034WAT     H133344   3.361   8.428   1.701
11034WAT     H233345   3.236   8.351   1.771
11035WAT      O33346   2.150   8.754   7.315
11035WAT     H133347   2.071   8.712   7.270
11035WAT     H233348   2.214   8.682   7.343
11036WAT      O33349   9.090   3.543   2.108
11036WAT     H133350   9.000   3.578   2.080
11036WAT     H233351   9.154   3.550   2.032
11037WAT      O33352   2.625   2.936   4.486
11037WAT     H133353   2.650   2.940   4.583
11037WAT     H233354   2.533   2.899   4.477
11038WAT      O33355   8.736   4.219   1.117
11038WAT     H133356   8.834   4.206   1.105
11038WAT     H233357   8.716   4.317   1.124
11039WAT      O33358   1.265   5.539   9.244
11039WAT     H133359   1.263   5.518   9.342
11039WAT     H233360   1.246   5.636   9.231
11040WAT      O33361   7.876   9.688   5.963
11040WAT     H133362   7.842   9.758   5.899
11040WAT     H233363   7.961   9.650   5.927
11041WAT      O33364   8.753   2.817   9.850
11041WAT     H133365   8.800   2.741   9.892
11041WAT     H233366   8.662   2.788   9.819
11042WAT      O33367   1.433   8.635   1.409
11042WAT     H133368   1.492   8.631   1.328
11042WAT     H233369   1.379   8.719   1.405
11043WAT      O33370   2.124   8.440   3.839
11043WAT     H133371   2.051   8.466   3.776
11043WAT     H233372   2.160   8.350   3.812
11044WAT      O33373   3.236   2.421   6.782
11044WAT     H133374   3.145   2.401   6.746
11044WAT     H233375   3.231   2.433   6.881
11045WAT      O33376   3.214   2.493   5.990
11045WAT     H133377   3.281   2.567   5.997
11045WAT     H233378   3.125   2.530   5.964
11046WAT      O33379   1.570   6.198   1.254
11046WAT     H133380   1.550   6.138   1.176
11046WAT     H233381   1.647   6.258   1.230
11047WAT      O33382   2.409   3.937   5.636
11047WAT     H133383   2.444   3.945   5.729
11047WAT     H233384   2.416   3.842   5.606
11048WAT      O33385   9.678   0.455   7.897
11048WAT     H133386   9.768   0.448   7.940
11048WAT     H233387   9.608   0.466   7.967
11049WAT      O33388   6.926   1.191   0.198
11049WAT     H133389   6.840   1.217   0.242
11049WAT     H233390   6.962   1.270   0.148
11050WAT      O33391   6.324   1.053   4.084
11050WAT     H133392   6.387   1.055   4.162
11050WAT     H233393   6.250   0.989   4.102
11051WAT      O33394   7.206   4.215   8.114
11051WAT     H133395   7.294   4.191   8.157
11051WAT     H233396   7.218   4.297   8.059
11052WAT      O33397   6.654   6.045   7.104
11052WAT     H133398   6.573   6.095   7.132
11052WAT     H233399   6.736   6.100   7.122
11053WAT      O33400   3.480   4.458   3.545
11053WAT     H133401   3.510   4.436   3.637
11053WAT     H233402   3.380   4.446   3.538
11054WAT      O33403   9.020   5.079   0.673
11054WAT     H133404   9.025   4.982   0.651
11054WAT     H233405   9.087   5.102   0.743
11055WAT      O33406   0.726   6.624   0.092
11055WAT     H133407   0.819   6.592   0.113
11055WAT     H233408   0.720   6.721   0.115
11056WAT      O33409   0.927   7.192   4.524
11056WAT     H133410   0.851   7.192   4.458
11056WAT     H233411   0.891   7.199   4.617
11057WAT      O33412   7.520   3.617   6.733
11057WAT     H133413   7.562   3.697   6.691
11057WAT     H233414   7.483   3.642   6.823
11058WAT      O33415   8.981   0.693   3.570
11058WAT     H133416   9.043   0.683   3.492
11058WAT     H233417   8.949   0.603   3.599
11059WAT      O33418   6.375   4.726   7.751
11059WAT     H133419   6.289   4.744   7.799
11059WAT     H233420   6.375   4.775   7.664
11060WAT      O33421   2.972   7.865   5.373
11060WAT     H133422   3.015   7.918   5.299
11060WAT     H233423   2.874   7.859   5.358
11061WAT      O33424   6.824   6.425   0.228
11061WAT     H133425   6.826   6.331   0.264
11061WAT     H233426   6.893   6.435   0.157
11062WAT      O33427   2.820   5.097   0.942
11062WAT     H133428   2.737   5.145   0.971
11062WAT     H233429   2.890   5.105   1.013
11063WAT      O33430   7.446   0.390   1.758
11063WAT     H133431   7.353   0.353   1.754
11063WAT     H233432   7.488   0.386   1.667
11064WAT      O33433   1.952   5.503   5.800
11064WAT     H133434   1.944   5.405   5.818
11064WAT     H233435   2.049   5.527   5.791
11065WAT      O33436   9.775   0.960   1.292
11065WAT     H133437   9.699   1.019   1.265
11065WAT     H233438   9.854   1.016   1.315
11066WAT      O33439   9.658   7.051   6.372
11066WAT     H133440   9.752   7.085   6.366
11066WAT     H233441   9.605   7.109   6.434
11067WAT      O33442   3.469   8.113   1.833
11067WAT     H133443   3.391   8.133   1.892
11067WAT     H233444   3.479   8.187   1.766
11068WAT      O33445   8.445   8.267   7.643
11068WAT     H133446   8.446   8.365   7.664
11068WAT     H233447   8.518   8.247   7.577
11069WAT      O33448   8.320   9.282   9.236
11069WAT     H133449   8.408   9.294   9.189
11069WAT     H233450   8.323   9.329   9.325
11070WAT      O33451   6.248   8.479   5.755
11070WAT     H133452   6.251   8.380   5.749
11070WAT     H233453   6.238   8.518   5.664
11071WAT      O33454   0.867   3.500   4.407
11071WAT     H133455   0.926   3.557   4.464
11071WAT     H233456   0.773   3.503   4.443
11072WAT      O33457   8.720   3.132   6.919
11072WAT     H133458   8.805   3.184   6.918
11072WAT     H233459   8.740   3.034   6.928
11073WAT      O33460   5.664   2.936   6.714
11073WAT     H133461   5.618   2.903   6.797
11073WAT     H233462   5.638   2.879   6.636
11074WAT      O33463   5.378   9.405   1.440
11074WAT     H133464   5.322   9.327   1.412
11074WAT     H233465   5.374   9.414   1.540
11075WAT      O33466   0.253   4.786   3.384
11075WAT     H133467   0.176   4.849   3.370
11075WAT     H233468   0.236   4.702   3.333
11076WAT      O33469   8.480   2.269   3.346
11076WAT     H133470   8.406   2.263   3.280
11076WAT     H233471   8.477   2.190   3.407
11077WAT      O33472   2.881   5.725   3.158
11077WAT     H133473   2.840   5.748   3.246
11077WAT     H233474   2.963   5.780   3.143
11078WAT      O33475   2.738   0.793   2.972
11078WAT     H133476   2.783   0.745   2.897
11078WAT     H233477   2.797   0.866   3.005
11079WAT      O33478   8.647   6.424   7.827
11079WAT     H133479   8.606   6.440   7.916
11079WAT     H233480   8.687   6.509   7.793
11080WAT      O33481   6.286   0.586   7.608
11080WAT     H133482   6.229   0.663   7.635
11080WAT     H233483   6.366   0.581   7.669
11081WAT      O33484   6.643   2.072   1.161
11081WAT     H133485   6.577   2.020   1.216
11081WAT     H233486   6.627   2.054   1.064
11082WAT      O33487   2.875   0.766   6.015
11082WAT     H133488   2.859   0.673   5.982
11082WAT     H233489   2.968   0.773   6.051
11083WAT      O33490   0.797   5.363   7.352
11083WAT     H133491   0.756   5.436   7.407
11083WAT     H233492   0.735   5.338   7.278
11084WAT      O33493   4.998   6.601   7.876
11084WAT     H133494   4.978   6.601   7.974
11084WAT     H233495   5.002   6.695   7.842
11085WAT      O33496   6.076   8.705   7.815
11085WAT     H133497   6.065   8.633   7.746
11085WAT     H233498   6.007   8.694   7.886
11086WAT      O33499   0.100   8.676   3.632
11086WAT     H133500   0.137   8.598   3.682
11086WAT     H233501   0.028   8.645   3.571
11087WAT      O33502   5.909   0.897   4.887
11087WAT     H133503   5.997   0.938   4.910
11087WAT     H233504   5.863   0.866   4.971
11088WAT      O33505   8.128   8.544   4.753
11088WAT     H133506   8.221   8.515   4.732
11088WAT     H233507   8.074   8.546   4.669
11089WAT      O33508   1.920   0.101   1.551
11089WAT     H133509   1.914   0.127   1.648
11089WAT     H233510   1.829   0.096   1.512
11090WAT      O33511   9.549   8.046   0.412
11090WAT     H133512   9.506   8.126   0.455
11090WAT     H233513   9.642   8.070   0.383
11091WAT      O33514   3.229   6.661   7.829
11091WAT     H133515   3.225   6.760   7.815
11091WAT     H233516   3.185   6.615   7.752
11092WAT      O33517   8.981   9.057   3.307
11092WAT     H133518   9.062   9.013   3.344
11092WAT     H233519   8.909   9.060   3.376
11093WAT      O33520   1.302   0.987   9.407
11093WAT     H133521   1.290   0.893   9.440
11093WAT     H233522   1.386   0.992   9.354
11094WAT      O33523   0.171   3.776   4.888
11094WAT     H133524   0.265   3.809   4.874
11094WAT     H233525   0.173   3.678   4.903
11095WAT      O33526   7.609   1.753   3.042
11095WAT     H133527   7.708   1.749   3.031
11095WAT     H233528   7.566   1.760   2.952
11096WAT      O33529   7.849   4.312   1.074
11096WAT     H133530   7.764   4.337   1.121
11096WAT     H233531   7.902   4.250   1.131
11097WAT      O33532   8.715   6.947   3.504
11097WAT     H133533   8.635   6.889   3.498
11097WAT     H233534   8.759   6.935   3.594
11098WAT      O33535   0.882   7.739   0.346
11098WAT     H133536   0.897   7.646   0.313
11098WAT     H233537   0.942   7.802   0.296
11099WAT      O33538   7.141   4.119   4.359
11099WAT     H133539   7.086   4.035   4.359
11099WAT     H233540   7.144   4.156   4.266
11100WAT      O33541   1.923   5.085   5.275
11100WAT     H133542   1.872   5.007   5.311
11100WAT     H233543   1.985   5.053   5.203
11101WAT      O33544   5.523   4.466   9.660
11101WAT     H133545   5.435   4.418   9.664
11101WAT     H233546   5.590   4.420   9.718
11102WAT      O33547   9.738   6.207   9.005
11102WAT     H133548   9.779   6.268   8.937
11102WAT     H233549   9.810   6.170   9.063
11103WAT      O33550   1.290   7.172   2.223
11103WAT     H133551   1.321   7.248   2.166
11103WAT     H233552   1.208   7.199   2.274
11104WAT      O33553   1.310   1.730   7.699
11104WAT     H133554   1.216   1.706   7.674
11104WAT     H233555   1.372   1.655   7.672
11105WAT      O33556   2.953   3.796   6.055
11105WAT     H133557   2.905   3.763   6.137
11105WAT     H233558   2.886   3.828   5.988
11106WAT      O33559   9.412   3.021   7.512
11106WAT     H133560   9.394   2.926   7.538
11106WAT     H233561   9.359   3.043   7.430
11107WAT      O33562   8.277   8.508   7.127
11107WAT     H133563   8.252   8.598   7.162
11107WAT     H233564   8.350   8.518   7.059
11108WAT      O33565   1.531   6.364   5.911
11108WAT     H133566   1.535   6.464   5.914
11108WAT     H233567   1.561   6.327   5.999
11109WAT      O33568   5.484   1.800   7.562
11109WAT     H133569   5.454   1.853   7.483
11109WAT     H233570   5.579   1.774   7.550
11110WAT      O33571   5.467   7.086   5.293
11110WAT     H133572   5.519   7.163   5.329
11110WAT     H233573   5.513   7.049   5.212
11111WAT      O33574   6.815   6.349   7.913
11111WAT     H133575   6.872   6.389   7.842
11111WAT     H233576   6.850   6.259   7.938
11112WAT      O33577   9.333   0.626   1.060
11112WAT     H133578   9.254   0.638   1.000
11112WAT     H233579   9.359   0.530   1.062
11113WAT      O33580   0.335   6.784   2.511
11113WAT     H133581   0.296   6.873   2.490
11113WAT     H233582   0.388   6.790   2.595
11114WAT      O33583   2.188   6.856   3.118
11114WAT     H133584   2.263   6.835   3.057
11114WAT     H233585   2.142   6.771   3.146
11115WAT      O33586   1.533   3.045   1.292
11115WAT     H133587   1.577   2.967   1.336
11115WAT     H233588   1.489   3.102   1.362
11116WAT      O33589   4.212   2.483   5.372
11116WAT     H133590   4.298   2.476   5.422
11116WAT     H233591   4.185   2.392   5.338
11117WAT      O33592   1.887   5.431   0.251
11117WAT     H133593   1.940   5.512   0.276
11117WAT     H233594   1.790   5.456   0.241
11118WAT      O33595   8.781   9.657   9.600
11118WAT     H133596   8.695   9.703   9.580
11118WAT     H233597   8.857   9.710   9.563
11119WAT      O33598   1.293   9.456   0.095
11119WAT     H133599   1.371   9.399   0.123
11119WAT     H233600   1.221   9.449   0.164
11120WAT      O33601   5.601   2.069   2.610
11120WAT     H133602   5.545   2.146   2.580
11120WAT     H233603   5.641   2.024   2.531
11121WAT      O33604   0.676   0.423   4.202
11121WAT     H133605   0.753   0.365   4.176
11121WAT     H233606   0.624   0.380   4.276
11122WAT      O33607   0.753   3.947   0.890
11122WAT     H133608   0.665   3.912   0.922
11122WAT     H233609   0.824   3.880   0.908
11123WAT      O33610   6.326   0.635   1.949
11123WAT     H133611   6.393   0.564   1.930
11123WAT     H233612   6.278   0.658   1.864
11124WAT      O33613   6.620   5.985   0.372
11124WAT     H133614   6.558   5.938   0.309
11124WAT     H233615   6.576   5.993   0.462
11125WAT      O33616   2.064   2.524   2.952
11125WAT     H133617   2.038   2.464   2.877
11125WAT     H233618   2.099   2.611   2.916
11126WAT      O33619   2.061   1.393   9.677
11126WAT     H133620   2.088   1.335   9.754
11126WAT     H233621   2.063   1.339   9.593
11127WAT      O33622   9.187   6.767   9.112
11127WAT     H133623   9.245   6.849   9.108
11127WAT     H233624   9.234   6.691   9.068
11128WAT      O33625   2.506   8.134   8.310
11128WAT     H133626   2.411   8.150   8.334
11128WAT     H233627   2.524   8.035   8.309
11129WAT      O33628   8.475   9.229   2.392
11129WAT     H133629   8.476   9.249   2.294
11129WAT     H233630   8.421   9.299   2.440
11130WAT      O33631   5.707   5.809   1.438
11130WAT     H133632   5.642   5.774   1.505
11130WAT     H233633   5.720   5.742   1.365
11131WAT      O33634   0.730   9.764   4.527
11131WAT     H133635   0.732   9.859   4.495
11131WAT     H233636   0.671   9.757   4.607
11132WAT      O33637   9.251   6.007   4.201
11132WAT     H133638   9.294   6.050   4.122
11132WAT     H233639   9.170   6.059   4.228
11133WAT      O33640   4.581   8.541   7.455
11133WAT     H133641   4.574   8.636   7.484
11133WAT     H233642   4.553   8.481   7.531
11134WAT      O33643   8.261   4.613   9.323
11134WAT     H133644   8.354   4.635   9.354
11134WAT     H233645   8.202   4.600   9.403
11135WAT      O33646   1.654   5.095   6.326
11135WAT     H133647   1.720   5.167   6.307
11135WAT     H233648   1.562   5.134   6.333
11136WAT      O33649   0.522   6.005   4.910
11136WAT     H133650   0.462   6.019   4.988
11136WAT     H233651   0.543   6.093   4.868
11137WAT      O33652   3.474   6.434   7.408
11137WAT     H133653   3.475   6.532   7.428
11137WAT     H233654   3.396   6.412   7.349
11138WAT      O33655   9.456   4.145   4.280
11138WAT     H133656   9.496   4.053   4.281
11138WAT     H233657   9.519   4.209   4.237
11139WAT      O33658   9.493   5.101   7.533
11139WAT     H133659   9.430   5.179   7.529
11139WAT     H233660   9.558   5.107   7.456
11140WAT      O33661   0.763   8.356   1.231
11140WAT     H133662   0.746   8.434   1.291
11140WAT     H233663   0.676   8.319   1.199
11141WAT      O33664   7.846   0.948   0.237
11141WAT     H133665   7.781   0.977   0.307
11141WAT     H233666   7.813   0.864   0.194
11142WAT      O33667   0.214   3.921   0.080
11142WAT     H133668   0.209   3.865  -0.003
11142WAT     H233669   0.308   3.923   0.113
11143WAT      O33670   4.000   8.318   6.157
11143WAT     H133671   3.938   8.386   6.196
11143WAT     H233672   4.053   8.359   6.084
11144WAT      O33673   6.889   7.041   1.008
11144WAT     H133674   6.824   7.083   1.071
11144WAT     H233675   6.941   6.970   1.056
11145WAT      O33676   7.473   6.915   2.931
11145WAT     H133677   7.541   6.944   2.999
11145WAT     H233678   7.520   6.882   2.849
11146WAT      O33679   7.358   2.422   1.760
11146WAT     H133680   7.281   2.367   1.793
11146WAT     H233681   7.407   2.461   1.838
11147WAT      O33682   9.265   0.162   3.058
11147WAT     H133683   9.230   0.141   2.967
11147WAT     H233684   9.230   0.096   3.124
11148WAT      O33685   6.746   5.400   7.697
11148WAT     H133686   6.725   5.305   7.720
11148WAT     H233687   6.783   5.404   7.604
11149WAT      O33688   3.270   3.621   7.737
11149WAT     H133689   3.180   3.639   7.698
11149WAT     H233690   3.297   3.526   7.719
11150WAT      O33691   6.259   0.055   7.836
11150WAT     H133692   6.255   0.149   7.869
11150WAT     H233693   6.218   0.051   7.744
11151WAT      O33694   4.202   3.903   4.672
11151WAT     H133695   4.225   3.872   4.764
11151WAT     H233696   4.189   3.823   4.612
11152WAT      O33697   5.981   6.529   5.808
11152WAT     H133698   6.061   6.484   5.769
11152WAT     H233699   6.010   6.603   5.868
11153WAT      O33700   9.274   3.851   4.369
11153WAT     H133701   9.371   3.864   4.349
11153WAT     H233702   9.221   3.926   4.329
11154WAT      O33703   6.710   8.101   7.814
11154WAT     H133704   6.711   8.199   7.832
11154WAT     H233705   6.695   8.085   7.717
11155WAT      O33706   3.052   8.027   8.174
11155WAT     H133707   3.106   8.071   8.246
11155WAT     H233708   2.965   8.076   8.164
11156WAT      O33709   1.643   0.760   7.209
11156WAT     H133710   1.632   0.720   7.300
11156WAT     H233711   1.614   0.693   7.140
11157WAT      O33712   2.833   5.159   2.446
11157WAT     H133713   2.771   5.224   2.490
11157WAT     H233714   2.913   5.145   2.505
11158WAT      O33715   8.313   2.797   9.481
11158WAT     H133716   8.394   2.776   9.427
11158WAT     H233717   8.329   2.879   9.536
11159WAT      O33718   7.324   6.805   5.068
11159WAT     H133719   7.405   6.818   5.125
11159WAT     H233720   7.348   6.751   4.988
11160WAT      O33721   6.852   0.803   1.916
11160WAT     H133722   6.887   0.897   1.907
11160WAT     H233723   6.758   0.806   1.948
11161WAT      O33724   4.632   6.804   2.687
11161WAT     H133725   4.632   6.816   2.786
11161WAT     H233726   4.715   6.755   2.659
11162WAT      O33727   1.386   6.033   1.663
11162WAT     H133728   1.363   6.074   1.574
11162WAT     H233729   1.479   6.058   1.688
11163WAT      O33730   0.307   6.928   5.019
11163WAT     H133731   0.269   6.866   4.951
11163WAT     H233732   0.315   7.020   4.980
11164WAT      O33733   5.195   7.333   3.090
11164WAT     H133734   5.182   7.375   3.000
11164WAT     H233735   5.292   7.336   3.115
11165WAT      O33736   5.814   0.617   9.465
11165WAT     H133737   5.902   0.662   9.450
11165WAT     H233738   5.748   0.649   9.396
11166WAT      O33739   5.013   5.425   2.539
11166WAT     H133740   5.071   5.496   2.578
11166WAT     H233741   4.946   5.466   2.477
11167WAT      O33742   5.043   7.777   3.665
11167WAT     H133743   4.995   7.789   3.578
11167WAT     H233744   5.130   7.826   3.663
11168WAT      O33745   0.298   7.503   1.500
11168WAT     H133746   0.203   7.501   1.469
11168WAT     H233747   0.348   7.573   1.449
11169WAT      O33748   7.083   2.567   3.114
11169WAT     H133749   7.071   2.468   3.123
11169WAT     H233750   6.995   2.609   3.093
11170WAT      O33751   4.501   7.239   8.905
11170WAT     H133752   4.470   7.192   8.823
11170WAT     H233753   4.601   7.230   8.914
11171WAT      O33754   6.326   4.611   8.242
11171WAT     H133755   6.255   4.682   8.235
11171WAT     H233756   6.354   4.584   8.150
11172WAT      O33757   2.245   5.012   8.725
11172WAT     H133758   2.296   4.944   8.778
11172WAT     H233759   2.157   5.030   8.769
11173WAT      O33760   1.947   4.026   9.347
11173WAT     H133761   1.868   3.983   9.390
11173WAT     H233762   2.006   3.956   9.307
11174WAT      O33763   9.470   8.310   4.486
11174WAT     H133764   9.388   8.321   4.543
11174WAT     H233765   9.484   8.393   4.432
11175WAT      O33766   9.559   2.296   6.634
11175WAT     H133767   9.598   2.374   6.586
11175WAT     H233768   9.569   2.213   6.579
11176WAT      O33769   0.063   6.853   2.338
11176WAT     H133770   0.036   6.896   2.251
11176WAT     H233771   0.128   6.912   2.385
11177WAT      O33772   3.914   8.430   8.366
11177WAT     H133773   3.903   8.526   8.342
11177WAT     H233774   3.843   8.376   8.320
11178WAT      O33775   7.832   1.485   5.725
11178WAT     H133776   7.762   1.556   5.719
11178WAT     H233777   7.910   1.520   5.777
11179WAT      O33778   2.886   4.984   4.278
11179WAT     H133779   2.842   5.019   4.361
11179WAT     H233780   2.975   5.028   4.268
11180WAT      O33781   0.479   0.470   1.568
11180WAT     H133782   0.480   0.551   1.627
11180WAT     H233783   0.531   0.489   1.485
11181WAT      O33784   2.245   6.222   3.048
11181WAT     H133785   2.169   6.194   3.107
11181WAT     H233786   2.296   6.141   3.019
11182WAT      O33787   2.367   3.056   6.603
11182WAT     H133788   2.318   2.979   6.561
11182WAT     H233789   2.398   3.029   6.694
11183WAT      O33790   6.691   0.752   8.312
11183WAT     H133791   6.762   0.703   8.262
11183WAT     H233792   6.717   0.848   8.322
11184WAT      O33793   8.748   8.189   5.533
11184WAT     H133794   8.820   8.227   5.476
11184WAT     H233795   8.679   8.260   5.551
11185WAT      O33796   2.463   9.724   2.763
11185WAT     H133797   2.534   9.657   2.785
11185WAT     H233798   2.437   9.773   2.846
11186WAT      O33799   7.898   7.936   7.293
11186WAT     H133800   7.877   7.876   7.370
11186WAT     H233801   7.817   7.992   7.271
11187WAT      O33802   6.191   2.337   6.813
11187WAT     H133803   6.241   2.389   6.744
11187WAT     H233804   6.240   2.342   6.900
11188WAT      O33805   8.471   9.809   3.987
11188WAT     H133806   8.422   9.727   3.957
11188WAT     H233807   8.467   9.879   3.916
11189WAT      O33808   7.889   7.649   3.417
11189WAT     H133809   7.920   7.743   3.407
11189WAT     H233810   7.790   7.647   3.430
11190WAT      O33811   2.185   8.764   9.866
11190WAT     H133812   2.152   8.710   9.788
11190WAT     H233813   2.190   8.860   9.840
11191WAT      O33814   1.147   6.334   0.742
11191WAT     H133815   1.126   6.237   0.730
11191WAT     H233816   1.229   6.356   0.690
11192WAT      O33817   4.783   8.189   7.166
11192WAT     H133818   4.687   8.200   7.142
11192WAT     H233819   4.810   8.093   7.157
11193WAT      O33820   9.721   3.624   8.997
11193WAT     H133821   9.648   3.565   8.962
11193WAT     H233822   9.733   3.702   8.935
11194WAT      O33823   0.375   5.914   8.937
11194WAT     H133824   0.365   5.928   8.839
11194WAT     H233825   0.321   5.983   8.987
11195WAT      O33826   7.953   4.122   8.974
11195WAT     H133827   7.878   4.182   9.003
11195WAT     H233828   7.917   4.034   8.946
11196WAT      O33829   9.600   6.675   3.761
11196WAT     H133830   9.515   6.623   3.768
11196WAT     H233831   9.668   6.636   3.823
11197WAT      O33832   6.835   8.280   3.740
11197WAT     H133833   6.761   8.240   3.685
11197WAT     H233834   6.835   8.239   3.831
11198WAT      O33835   5.380   3.491   3.235
11198WAT     H133836   5.372   3.452   3.326
11198WAT     H233837   5.375   3.418   3.167
11199WAT      O33838   2.921   5.678   5.124
11199WAT     H133839   2.885   5.661   5.032
11199WAT     H233840   3.014   5.641   5.130
11200WAT      O33841   0.356   6.596   1.862
11200WAT     H133842   0.436   6.643   1.825
11200WAT     H233843   0.280   6.603   1.797
11201WAT      O33844   4.173   7.949   3.477
11201WAT     H133845   4.182   7.919   3.572
11201WAT     H233846   4.140   8.044   3.475
11202WAT      O33847   9.728   9.540   0.195
11202WAT     H133848   9.683   9.464   0.243
11202WAT     H233849   9.827   9.527   0.197
11203WAT      O33850   8.479   9.608   4.441
11203WAT     H133851   8.420   9.575   4.367
11203WAT     H233852   8.422   9.636   4.519
11204WAT      O33853   4.737   5.762   9.665
11204WAT     H133854   4.680   5.754   9.746
11204WAT     H233855   4.834   5.759   9.691
11205WAT      O33856   9.376   2.824   9.260
11205WAT     H133857   9.306   2.753   9.246
11205WAT     H233858   9.363   2.867   9.349
11206WAT      O33859   7.046   9.720   0.119
11206WAT     H133860   7.089   9.643   0.167
11206WAT     H233861   7.007   9.784   0.186
11207WAT      O33862   2.325   4.058   1.880
11207WAT     H133863   2.324   4.004   1.796
11207WAT     H233864   2.361   4.003   1.955
11208WAT      O33865   0.398   5.576   9.592
11208WAT     H133866   0.421   5.489   9.636
11208WAT     H233867   0.474   5.605   9.533
11209WAT      O33868   3.517   6.463   3.970
11209WAT     H133869   3.465   6.401   4.030
11209WAT     H233870   3.590   6.506   4.022
11210WAT      O33871   2.295   7.466   2.798
11210WAT     H133872   2.220   7.413   2.758
11210WAT     H233873   2.337   7.414   2.872
11211WAT      O33874   9.368   2.743   7.537
11211WAT     H133875   9.460   2.716   7.565
11211WAT     H233876   9.303   2.723   7.611
11212WAT      O33877   9.770   0.979   2.412
11212WAT     H133878   9.799   1.052   2.350
11212WAT     H233879   9.690   1.009   2.464
11213WAT      O33880   2.358   2.529   4.163
11213WAT     H133881   2.435   2.537   4.225
11213WAT     H233882   2.331   2.621   4.132
11214WAT      O33883   5.641   8.821   5.154
11214WAT     H133884   5.577   8.831   5.231
11214WAT     H233885   5.698   8.740   5.169
11215WAT      O33886   2.519   3.478   2.716
11215WAT     H133887   2.541   3.484   2.813
11215WAT     H233888   2.454   3.403   2.701
11216WAT      O33889   3.479   8.551   6.173
11216WAT     H133890   3.554   8.542   6.108
11216WAT     H233891   3.400   8.590   6.127
11217WAT      O33892   2.369   7.724   2.901
11217WAT     H133893   2.427   7.709   2.981
11217WAT     H233894   2.331   7.637   2.870
11218WAT      O33895   0.711   7.070   8.007
11218WAT     H133896   0.796   7.074   7.956
11218WAT     H233897   0.728   7.092   8.103
11219WAT      O33898   7.451   1.609   6.809
11219WAT     H133899   7.512   1.688   6.799
11219WAT     H233900   7.419   1.603   6.903
11220WAT      O33901   8.061   6.254   4.970
11220WAT     H133902   8.099   6.256   4.877
11220WAT     H233903   8.100   6.177   5.020
11221WAT      O33904   3.232   8.473   4.674
11221WAT     H133905   3.308   8.484   4.611
11221WAT     H233906   3.227   8.378   4.704
11222WAT      O33907   9.621   9.130   5.587
11222WAT     H133908   9.666   9.071   5.654
11222WAT     H233909   9.535   9.165   5.626
11223WAT      O33910   1.622   4.163   0.128
11223WAT     H133911   1.649   4.251   0.088
11223WAT     H233912   1.646   4.090   0.065
11224WAT      O33913   3.253   6.774   6.192
11224WAT     H133914   3.190   6.765   6.115
11224WAT     H233915   3.308   6.692   6.201
11225WAT      O33916   9.563   5.651   4.542
11225WAT     H133917   9.551   5.554   4.526
11225WAT     H233918   9.509   5.704   4.477
11226WAT      O33919   2.666   0.948   3.937
11226WAT     H133920   2.624   0.971   4.024
11226WAT     H233921   2.695   1.032   3.890
11227WAT      O33922   9.635   4.645   7.661
11227WAT     H133923   9.703   4.665   7.590
11227WAT     H233924   9.639   4.548   7.685
11228WAT      O33925   5.352   7.637   8.855
11228WAT     H133926   5.281   7.570   8.832
11228WAT     H233927   5.320   7.729   8.834
11229WAT      O33928   3.509   3.029   1.635
11229WAT     H133929   3.429   2.977   1.604
11229WAT     H233930   3.489   3.071   1.724
11230WAT      O33931   3.753   2.324   4.142
11230WAT     H133932   3.694   2.356   4.067
11230WAT     H233933   3.716   2.355   4.229
11231WAT      O33934   5.711   7.029   1.861
11231WAT     H133935   5.747   7.069   1.777
11231WAT     H233936   5.760   7.067   1.940
11232WAT      O33937   2.719   0.585   6.707
11232WAT     H133938   2.680   0.554   6.794
11232WAT     H233939   2.653   0.571   6.634
11233WAT      O33940   3.372   1.632   2.673
11233WAT     H133941   3.443   1.659   2.738
11233WAT     H233942   3.376   1.533   2.659
11234WAT      O33943   0.952   9.823   6.634
11234WAT     H133944   0.901   9.895   6.680
11234WAT     H233945   1.045   9.853   6.616
11235WAT      O33946   9.008   3.437   2.361
11235WAT     H133947   8.982   3.352   2.315
11235WAT     H233948   9.046   3.501   2.293
11236WAT      O33949   2.329   8.090   8.032
11236WAT     H133950   2.300   8.067   7.939
11236WAT     H233951   2.277   8.169   8.064
11237WAT      O33952   4.713   2.426   0.894
11237WAT     H133953   4.812   2.436   0.888
11237WAT     H233954   4.674   2.503   0.945
11238WAT      O33955   8.175   1.721   5.385
11238WAT     H133956   8.096   1.772   5.349
11238WAT     H233957   8.233   1.692   5.310
11239WAT      O33958   9.824   2.525   5.082
11239WAT     H133959   9.730   2.554   5.065
11239WAT     H233960   9.864   2.488   4.997
11240WAT      O33961   3.241   4.977   4.714
11240WAT     H133962   3.296   5.025   4.646
11240WAT     H233963   3.297   4.908   4.759
11241WAT      O33964   7.392   9.386   7.868
11241WAT     H133965   7.463   9.414   7.804
11241WAT     H233966   7.383   9.286   7.867
11242WAT      O33967   2.016   3.662   0.921
11242WAT     H133968   2.047   3.603   0.997
11242WAT     H233969   2.096   3.707   0.881
11243WAT      O33970   3.052   3.436   8.089
11243WAT     H133971   3.045   3.445   8.188
11243WAT     H233972   2.962   3.447   8.047
11244WAT      O33973   7.517   1.852   5.112
11244WAT     H133974   7.458   1.788   5.162
11244WAT     H233975   7.585   1.890   5.175
11245WAT      O33976   7.140   3.692   6.031
11245WAT     H133977   7.100   3.670   6.120
11245WAT     H233978   7.202   3.769   6.041
11246WAT      O33979   8.334   3.882   9.525
11246WAT     H133980   8.397   3.817   9.566
11246WAT     H233981   8.276   3.922   9.597
11247WAT      O33982   7.048   3.654   6.280
11247WAT     H133983   7.041   3.746   6.317
11247WAT     H233984   7.126   3.607   6.322
11248WAT      O33985   9.323   2.161   8.473
11248WAT     H133986   9.338   2.249   8.520
11248WAT     H233987   9.411   2.124   8.444
11249WAT      O33988   6.898   0.978   8.288
11249WAT     H133989   6.971   1.007   8.227
11249WAT     H233990   6.885   1.047   8.359
11250WAT      O33991   3.606   1.123   6.239
11250WAT     H133992   3.573   1.142   6.331
11250WAT     H233993   3.532   1.086   6.183
11251WAT      O33994   6.580   3.874   3.203
11251WAT     H133995   6.483   3.897   3.213
11251WAT     H233996   6.608   3.817   3.281
11252WAT      O33997   6.232   5.246   5.365
11252WAT     H133998   6.265   5.227   5.273
11252WAT     H233999   6.212   5.343   5.375
11253WAT      O34000   1.898   2.221   4.110
11253WAT     H134001   1.969   2.191   4.047
11253WAT     H234002   1.858   2.307   4.077
11254WAT      O34003   9.585   4.565   0.942
11254WAT     H134004   9.552   4.472   0.923
11254WAT     H234005   9.567   4.623   0.863
11255WAT      O34006   7.818   7.338   2.546
11255WAT     H134007   7.741   7.403   2.548
11255WAT     H234008   7.784   7.246   2.566
11256WAT      O34009   5.679   1.258   2.603
11256WAT     H134010   5.687   1.353   2.635
11256WAT     H234011   5.669   1.197   2.681
11257WAT      O34012   0.485   3.296   6.371
11257WAT     H134013   0.528   3.371   6.321
11257WAT     H234014   0.509   3.302   6.468
11258WAT      O34015   3.381   6.604   4.755
11258WAT     H134016   3.431   6.520   4.775
11258WAT     H234017   3.436   6.683   4.782
11259WAT      O34018   6.660   7.889   0.275
11259WAT     H134019   6.749   7.928   0.299
11259WAT     H234020   6.659   7.864   0.178
11260WAT      O34021   0.901   3.262   3.980
11260WAT     H134022   0.841   3.291   3.906
11260WAT     H234023   0.917   3.163   3.974
11261WAT      O34024   7.824   8.400   3.959
11261WAT     H134025   7.759   8.399   3.883
11261WAT     H234026   7.782   8.445   4.038
11262WAT      O34027   3.290   3.517   5.811
11262WAT     H134028   3.349   3.452   5.858
11262WAT     H234029   3.227   3.558   5.878
11263WAT      O34030   1.724   7.678   9.155
11263WAT     H134031   1.814   7.635   9.156
11263WAT     H234032   1.688   7.679   9.062
11264WAT      O34033   3.985   7.642   8.888
11264WAT     H134034   4.032   7.601   8.965
11264WAT     H234035   3.975   7.741   8.903
11265WAT      O34036   4.133   5.274   1.113
11265WAT     H134037   4.132   5.349   1.047
11265WAT     H234038   4.089   5.304   1.198
11266WAT      O34039   2.400   4.557   7.643
11266WAT     H134040   2.414   4.460   7.662
11266WAT     H234041   2.371   4.569   7.548
11267WAT      O34042   7.307   0.108   9.738
11267WAT     H134043   7.375   0.104   9.664
11267WAT     H234044   7.283   0.015   9.766
11268WAT      O34045   5.943   6.668   1.198
11268WAT     H134046   5.958   6.713   1.110
11268WAT     H234047   5.915   6.735   1.266
11269WAT      O34048   1.445   3.440   4.484
11269WAT     H134049   1.446   3.349   4.444
11269WAT     H234050   1.373   3.494   4.441
11270WAT      O34051   4.632   6.321   1.714
11270WAT     H134052   4.701   6.362   1.654
11270WAT     H234053   4.627   6.223   1.698
11271WAT      O34054   9.316   0.039   3.767
11271WAT     H134055   9.304   0.138   3.761
11271WAT     H234056   9.340   0.002   3.677
11272WAT      O34057   9.760   4.281   9.191
11272WAT     H134058   9.719   4.258   9.279
11272WAT     H234059   9.855   4.309   9.204
11273WAT      O34060   1.605   0.810   0.518
11273WAT     H134061   1.689   0.763   0.547
11273WAT     H234062   1.629   0.888   0.460
11274WAT      O34063   9.690   5.885   1.139
11274WAT     H134064   9.595   5.863   1.160
11274WAT     H234065   9.697   5.983   1.116
11275WAT      O34066   6.803   9.426   9.293
11275WAT     H134067   6.814   9.426   9.393
11275WAT     H234068   6.827   9.516   9.257
11276WAT      O34069   3.513   8.622   9.743
11276WAT     H134070   3.499   8.559   9.667
11276WAT     H234071   3.442   8.607   9.812
11277WAT      O34072   9.297   3.809   7.621
11277WAT     H134073   9.359   3.836   7.695
11277WAT     H234074   9.214   3.865   7.626
11278WAT      O34075   1.757   8.606   2.551
11278WAT     H134076   1.842   8.567   2.517
11278WAT     H234077   1.687   8.534   2.555
11279WAT      O34078   6.693   1.263   2.057
11279WAT     H134079   6.653   1.279   1.967
11279WAT     H234080   6.712   1.351   2.101
11280WAT      O34081   3.468   5.270   1.776
11280WAT     H134082   3.563   5.297   1.796
11280WAT     H234083   3.447   5.186   1.825
11281WAT      O34084   4.176   8.467   1.854
11281WAT     H134085   4.148   8.376   1.883
11281WAT     H234086   4.135   8.535   1.915
11282WAT      O34087   4.026   7.756   6.823
11282WAT     H134088   3.977   7.791   6.903
11282WAT     H234089   4.040   7.830   6.757
11283WAT      O34090   2.689   6.663   3.113
11283WAT     H134091   2.669   6.746   3.060
11283WAT     H234092   2.658   6.583   3.061
11284WAT      O34093   6.377   2.636   8.287
11284WAT     H134094   6.360   2.727   8.249
11284WAT     H234095   6.299   2.609   8.345
11285WAT      O34096   5.646   5.095   3.401
11285WAT     H134097   5.568   5.041   3.433
11285WAT     H234098   5.731   5.046   3.423
11286WAT      O34099   0.909   9.655   2.948
11286WAT     H134100   0.938   9.750   2.960
11286WAT     H234101   0.810   9.648   2.964
11287WAT      O34102   2.624   5.015   5.487
11287WAT     H134103   2.546   4.998   5.547
11287WAT     H234104   2.631   5.113   5.468
11288WAT      O34105   1.542   7.123   6.460
11288WAT     H134106   1.598   7.062   6.405
11288WAT     H234107   1.568   7.115   6.556
11289WAT      O34108   5.632   6.304   2.982
11289WAT     H134109   5.649   6.226   2.922
11289WAT     H234110   5.706   6.370   2.973
11290WAT      O34111   3.091   0.257   6.380
11290WAT     H134112   3.188   0.234   6.384
11290WAT     H234113   3.036   0.174   6.379
11291WAT      O34114   8.576   7.427   7.127
11291WAT     H134115   8.624   7.355   7.176
11291WAT     H234116   8.483   7.436   7.164
11292WAT      O34117   5.432   3.318   9.492
11292WAT     H134118   5.456   3.311   9.395
11292WAT     H234119   5.404   3.228   9.526
11293WAT      O34120   0.345   6.769   4.620
11293WAT     H134121   0.425   6.776   4.679
11293WAT     H234122   0.355   6.689   4.560
11294WAT      O34123   3.731   0.941   7.306
11294WAT     H134124   3.698   0.848   7.290
11294WAT     H234125   3.826   0.938   7.337
11295WAT      O34126   2.354   3.801   0.217
11295WAT     H134127   2.413   3.750   0.155
11295WAT     H234128   2.259   3.789   0.190
11296WAT      O34129   6.543   6.218   3.771
11296WAT     H134130   6.499   6.292   3.721
11296WAT     H234131   6.477   6.146   3.790
11297WAT      O34132   1.060   3.839   7.658
11297WAT     H134133   1.098   3.890   7.580
11297WAT     H234134   1.127   3.770   7.687
11298WAT      O34135   5.924   5.259   5.658
11298WAT     H134136   6.005   5.215   5.698
11298WAT     H234137   5.863   5.188   5.621
11299WAT      O34138   7.075   8.222   3.597
11299WAT     H134139   7.056   8.195   3.503
11299WAT     H234140   6.989   8.244   3.643
11300WAT      O34141   7.496   8.527   9.670
11300WAT     H134142   7.404   8.529   9.632
11300WAT     H234143   7.492   8.546   9.768
11301WAT      O34144   3.741   9.828   3.722
11301WAT     H134145   3.739   9.770   3.640
11301WAT     H234146   3.694   9.914   3.703
11302WAT      O34147   2.764   0.439   4.342
11302WAT     H134148   2.676   0.392   4.350
11302WAT     H234149   2.836   0.372   4.323
11303WAT      O34150   5.642   4.854   4.556
11303WAT     H134151   5.728   4.888   4.593
11303WAT     H234152   5.607   4.918   4.488
11304WAT      O34153   9.781   5.386   5.527
11304WAT     H134154   9.852   5.318   5.507
11304WAT     H234155   9.800   5.470   5.477
11305WAT      O34156   1.572   7.932   2.233
11305WAT     H134157   1.549   8.005   2.169
11305WAT     H234158   1.551   7.961   2.326
11306WAT      O34159   6.679   4.815   2.144
11306WAT     H134160   6.706   4.829   2.239
11306WAT     H234161   6.619   4.735   2.138
11307WAT      O34162   0.023   9.070   1.683
11307WAT     H134163   0.050   9.114   1.597
11307WAT     H234164  -0.076   9.069   1.691
11308WAT      O34165   1.396   7.457   6.587
11308WAT     H134166   1.376   7.383   6.523
11308WAT     H234167   1.421   7.539   6.537
11309WAT      O34168   5.655   8.611   2.088
11309WAT     H134169   5.657   8.522   2.042
11309WAT     H234170   5.612   8.602   2.178
11310WAT      O34171   7.770   5.016   7.113
11310WAT     H134172   7.830   5.038   7.036
11310WAT     H234173   7.816   4.951   7.174
11311WAT      O34174   5.573   3.033   8.192
11311WAT     H134175   5.490   2.979   8.204
11311WAT     H234176   5.556   3.105   8.124
11312WAT      O34177   5.038   2.628   9.381
11312WAT     H134178   5.113   2.680   9.340
11312WAT     H234179   4.972   2.691   9.422
11313WAT      O34180   7.533   9.630   8.048
11313WAT     H134181   7.600   9.703   8.029
11313WAT     H234182   7.441   9.670   8.050
11314WAT      O34183   5.088   9.361   9.102
11314WAT     H134184   5.072   9.448   9.055
11314WAT     H234185   5.072   9.285   9.038
11315WAT      O34186   2.873   0.437   9.139
11315WAT     H134187   2.852   0.350   9.185
11315WAT     H234188   2.903   0.504   9.206
11316WAT      O34189   3.696   1.731   1.497
11316WAT     H134190   3.726   1.639   1.522
11316WAT     H234191   3.633   1.726   1.419
11317WAT      O34192   7.845   6.074   9.450
11317WAT     H134193   7.900   6.150   9.416
11317WAT     H234194   7.795   6.104   9.532
11318WAT      O34195   3.332   6.705   7.105
11318WAT     H134196   3.417   6.744   7.142
11318WAT     H234197   3.254   6.740   7.157
11319WAT      O34198   4.321   9.255   5.519
11319WAT     H134199   4.253   9.304   5.464
11319WAT     H234200   4.377   9.321   5.568
11320WAT      O34201   8.561   4.340   2.452
11320WAT     H134202   8.527   4.246   2.446
11320WAT     H234203   8.578   4.364   2.547
11321WAT      O34204   8.831   5.868   4.830
11321WAT     H134205   8.777   5.818   4.762
11321WAT     H234206   8.831   5.966   4.807
11322WAT      O34207   7.236   0.086   6.313
11322WAT     H134208   7.216  -0.005   6.276
11322WAT     H234209   7.151   0.132   6.339
11323WAT      O34210   6.000   7.747   9.225
11323WAT     H134211   5.973   7.679   9.292
11323WAT     H234212   5.922   7.767   9.165
11324WAT      O34213   1.332   4.006   8.952
11324WAT     H134214   1.276   4.085   8.978
11324WAT     H234215   1.357   4.014   8.856
11325WAT      O34216   2.397   8.851   4.851
11325WAT     H134217   2.352   8.763   4.838
11325WAT     H234218   2.365   8.915   4.781
11326WAT      O34219   3.007   9.713   1.526
11326WAT     H134220   2.929   9.727   1.587
11326WAT     H234221   3.079   9.664   1.575
11327WAT      O34222   0.821   3.806   8.707
11327WAT     H134223   0.903   3.857   8.731
11327WAT     H234224   0.750   3.869   8.675
11328WAT      O34225   4.638   8.328   8.303
11328WAT     H134226   4.737   8.337   8.317
11328WAT     H234227   4.612   8.232   8.312
11329WAT      O34228   8.539   3.145   4.669
11329WAT     H134229   8.585   3.062   4.637
11329WAT     H234230   8.450   3.154   4.625
11330WAT      O34231   1.075   8.827   4.698
11330WAT     H134232   1.080   8.861   4.792
11330WAT     H234233   1.065   8.905   4.636
11331WAT      O34234   9.681   6.534   6.509
11331WAT     H134235   9.635   6.517   6.422
11331WAT     H234236   9.763   6.478   6.515
11332WAT      O34237   6.675   4.203   5.770
11332WAT     H134238   6.773   4.202   5.788
11332WAT     H234239   6.647   4.295   5.743
11333WAT      O34240   3.501   4.012   4.248
11333WAT     H134241   3.408   4.010   4.210
11333WAT     H234242   3.567   3.984   4.179
11334WAT      O34243   9.600   7.203   4.651
11334WAT     H134244   9.547   7.125   4.683
11334WAT     H234245   9.689   7.204   4.697
11335WAT      O34246   5.107   8.493   6.242
11335WAT     H134247   5.061   8.486   6.330
11335WAT     H234248   5.201   8.460   6.250
11336WAT      O34249   0.234   3.016   3.694
11336WAT     H134250   0.255   3.089   3.629
11336WAT     H234251   0.138   3.023   3.721
11337WAT      O34252   1.019   0.308   1.737
11337WAT     H134253   1.025   0.268   1.645
11337WAT     H234254   0.982   0.240   1.800
11338WAT      O34255   2.363   9.297   2.310
11338WAT     H134256   2.291   9.284   2.242
11338WAT     H234257   2.389   9.209   2.349
11339WAT      O34258   7.205   0.979   0.047
11339WAT     H134259   7.296   0.943   0.065
11339WAT     H234260   7.166   1.016   0.131
11340WAT      O34261   6.518   8.778   9.633
11340WAT     H134262   6.574   8.842   9.580
11340WAT     H234263   6.424   8.813   9.637
11341WAT      O34264   6.660   6.870   4.402
11341WAT     H134265   6.587   6.803   4.415
11341WAT     H234266   6.740   6.844   4.456
11342WAT      O34267   3.445   4.677   2.935
11342WAT     H134268   3.494   4.657   3.020
11342WAT     H234269   3.505   4.658   2.858
11343WAT      O34270   1.786   1.548   4.629
11343WAT     H134271   1.694   1.518   4.604
11343WAT     H234272   1.825   1.603   4.555
11344WAT      O34273   0.120   9.722   6.247
11344WAT     H134274   0.179   9.704   6.326
11344WAT     H234275   0.026   9.699   6.270
11345WAT      O34276   6.200   3.975   5.578
11345WAT     H134277   6.198   3.890   5.525
11345WAT     H234278   6.109   3.995   5.614
11346WAT      O34279   1.315   8.711   1.030
11346WAT     H134280   1.405   8.742   1.060
11346WAT     H234281   1.243   8.761   1.079
11347WAT      O34282   0.486   8.340   2.473
11347WAT     H134283   0.497   8.325   2.375
11347WAT     H234284   0.544   8.275   2.523
11348WAT      O34285   4.279   0.024   8.979
11348WAT     H134286   4.233  -0.063   8.997
11348WAT     H234287   4.366   0.007   8.933
11349WAT      O34288   2.788   4.668   8.361
11349WAT     H134289   2.731   4.750   8.368
11349WAT     H234290   2.736   4.594   8.319
11350WAT      O34291   2.766   0.687   4.045
11350WAT     H134292   2.790   0.698   4.142
11350WAT     H234293   2.746   0.776   4.006
11351WAT      O34294   5.326   5.531   7.775
11351WAT     H134295   5.398   5.524   7.706
11351WAT     H234296   5.241   5.561   7.732
11352WAT      O34297   8.552   3.070   1.268
11352WAT     H134298   8.590   3.008   1.337
11352WAT     H234299   8.476   3.026   1.222
11353WAT      O34300   1.946   4.064   6.510
11353WAT     H134301   1.982   4.042   6.420
11353WAT     H234302   1.857   4.021   6.523
11354WAT      O34303   7.106   4.958   2.555
11354WAT     H134304   7.063   4.901   2.626
11354WAT     H234305   7.203   4.934   2.547
11355WAT      O34306   2.659   2.874   0.296
11355WAT     H134307   2.616   2.960   0.324
11355WAT     H234308   2.685   2.822   0.377
11356WAT      O34309   5.128   8.278   1.627
11356WAT     H134310   5.185   8.360   1.619
11356WAT     H234311   5.090   8.255   1.537
11357WAT      O34312   8.904   5.059   4.801
11357WAT     H134313   8.929   5.140   4.855
11357WAT     H234314   8.970   5.047   4.727
11358WAT      O34315   9.050   6.292   3.788
11358WAT     H134316   9.104   6.361   3.739
11358WAT     H234317   9.101   6.206   3.791
11359WAT      O34318   4.354   2.041   0.082
11359WAT     H134319   4.385   1.986   0.159
11359WAT     H234320   4.398   2.131   0.086
11360WAT      O34321   9.022   0.381   1.178
11360WAT     H134322   9.019   0.408   1.082
11360WAT     H234323   8.993   0.285   1.187
11361WAT      O34324   3.607   5.725   4.486
11361WAT     H134325   3.698   5.766   4.494
11361WAT     H234326   3.583   5.678   4.571
11362WAT      O34327   3.592   5.023   3.071
11362WAT     H134328   3.585   5.081   3.151
11362WAT     H234329   3.542   5.064   2.994
11363WAT      O34330   8.531   8.176   5.936
11363WAT     H134331   8.564   8.083   5.922
11363WAT     H234332   8.484   8.183   6.024
11364WAT      O34333   8.264   1.969   8.426
11364WAT     H134334   8.300   1.996   8.515
11364WAT     H234335   8.175   1.926   8.438
11365WAT      O34336   8.289   5.252   1.589
11365WAT     H134337   8.264   5.279   1.682
11365WAT     H234338   8.384   5.221   1.587
11366WAT      O34339   2.174   3.698   2.438
11366WAT     H134340   2.131   3.762   2.502
11366WAT     H234341   2.218   3.624   2.490
11367WAT      O34342   3.524   0.851   5.927
11367WAT     H134343   3.577   0.802   5.997
11367WAT     H234344   3.579   0.924   5.888
11368WAT      O34345   6.530   7.604   1.852
11368WAT     H134346   6.525   7.593   1.753
11368WAT     H234347   6.593   7.679   1.874
11369WAT      O34348   3.541   0.467   6.280
11369WAT     H134349   3.591   0.553   6.268
11369WAT     H234350   3.517   0.455   6.376
11370WAT      O34351   9.586   8.809   9.293
11370WAT     H134352   9.567   8.907   9.286
11370WAT     H234353   9.554   8.763   9.210
11371WAT      O34354   8.814   1.866   1.698
11371WAT     H134355   8.753   1.918   1.757
11371WAT     H234356   8.805   1.897   1.604
11372WAT      O34357   4.991   1.223   0.973
11372WAT     H134358   4.992   1.313   1.017
11372WAT     H234359   4.917   1.168   1.012
11373WAT      O34360   8.848   1.282   1.882
11373WAT     H134361   8.818   1.290   1.787
11373WAT     H234362   8.874   1.371   1.917
11374WAT      O34363   1.889   1.158   9.208
11374WAT     H134364   1.899   1.255   9.231
11374WAT     H234365   1.960   1.131   9.143
11375WAT      O34366   0.602   1.637   4.680
11375WAT     H134367   0.685   1.590   4.649
11375WAT     H234368   0.628   1.715   4.738
11376WAT      O34369   9.152   3.789   3.804
11376WAT     H134370   9.201   3.747   3.881
11376WAT     H234371   9.089   3.722   3.765
11377WAT      O34372   9.360   7.192   2.511
11377WAT     H134373   9.361   7.093   2.501
11377WAT     H234374   9.368   7.216   2.608
11378WAT      O34375   5.552   1.816   5.191
11378WAT     H134376   5.610   1.897   5.179
11378WAT     H234377   5.469   1.842   5.240
11379WAT      O34378   1.503   4.445   6.778
11379WAT     H134379   1.445   4.489   6.709
11379WAT     H234380   1.561   4.515   6.821
11380WAT      O34381   7.173   1.972   6.203
11380WAT     H134382   7.186   2.013   6.293
11380WAT     H234383   7.257   1.981   6.149
11381WAT      O34384   9.689   2.550   6.609
11381WAT     H134385   9.725   2.641   6.628
11381WAT     H234386   9.601   2.557   6.562
11382WAT      O34387   7.359   3.111   1.887
11382WAT     H134388   7.424   3.156   1.826
11382WAT     H234389   7.316   3.035   1.840
11383WAT      O34390   6.008   7.057   6.282
11383WAT     H134391   6.065   7.022   6.356
11383WAT     H234392   5.999   7.156   6.291
11384WAT      O34393   5.462   1.822   0.176
11384WAT     H134394   5.367   1.795   0.191
11384WAT     H234395   5.471   1.868   0.088
11385WAT      O34396   0.807   7.777   3.526
11385WAT     H134397   0.900   7.797   3.496
11385WAT     H234398   0.809   7.720   3.609
11386WAT      O34399   7.676   1.580   4.539
11386WAT     H134400   7.654   1.673   4.567
11386WAT     H234401   7.771   1.576   4.506
11387WAT      O34402   5.748   6.563   7.374
11387WAT     H134403   5.677   6.633   7.367
11387WAT     H234404   5.739   6.516   7.462
11388WAT      O34405   6.212   6.128   3.792
11388WAT     H134406   6.204   6.139   3.892
11388WAT     H234407   6.190   6.034   3.767
11389WAT      O34408   0.762   4.962   4.390
11389WAT     H134409   0.844   4.941   4.443
11389WAT     H234410   0.699   5.016   4.446
11390WAT      O34411   1.696   8.918   7.018
11390WAT     H134412   1.720   8.970   6.936
11390WAT     H234413   1.599   8.893   7.014
11391WAT      O34414   6.032   8.546   6.281
11391WAT     H134415   6.095   8.565   6.206
11391WAT     H234416   6.022   8.447   6.291
11392WAT      O34417   3.491   8.987   5.324
11392WAT     H134418   3.512   8.893   5.298
11392WAT     H234419   3.419   8.987   5.393
11393WAT      O34420   1.792   5.768   8.013
11393WAT     H134421   1.830   5.795   8.102
11393WAT     H234422   1.702   5.727   8.027
11394WAT      O34423   2.088   0.967   1.227
11394WAT     H134424   2.133   1.016   1.152
11394WAT     H234425   2.084   0.869   1.206
11395WAT      O34426   1.805   6.547   2.175
11395WAT     H134427   1.795   6.642   2.202
11395WAT     H234428   1.902   6.527   2.157
11396WAT      O34429   8.634   3.577   0.668
11396WAT     H134430   8.662   3.673   0.671
11396WAT     H234431   8.688   3.529   0.599
11397WAT      O34432   1.326   6.014   5.123
11397WAT     H134433   1.385   5.952   5.071
11397WAT     H234434   1.343   6.108   5.095
11398WAT      O34435   0.589   8.191   4.374
11398WAT     H134436   0.680   8.197   4.415
11398WAT     H234437   0.532   8.266   4.408
11399WAT      O34438   1.523   3.975   1.388
11399WAT     H134439   1.605   3.928   1.357
11399WAT     H234440   1.444   3.915   1.376
11400WAT      O34441   3.903   1.386   2.024
11400WAT     H134442   3.864   1.423   2.108
11400WAT     H234443   3.911   1.459   1.956
11401WAT      O34444   6.006   1.560   9.117
11401WAT     H134445   6.074   1.486   9.124
11401WAT     H234446   5.915   1.520   9.104
11402WAT      O34447   4.290   6.667   6.403
11402WAT     H134448   4.310   6.754   6.448
11402WAT     H234449   4.278   6.595   6.472
11403WAT      O34450   6.644   0.098   9.037
11403WAT     H134451   6.717   0.145   9.087
11403WAT     H234452   6.682   0.021   8.987
11404WAT      O34453   8.761   7.082   5.440
11404WAT     H134454   8.823   7.136   5.383
11404WAT     H234455   8.668   7.087   5.402
11405WAT      O34456   1.695   0.312   1.976
11405WAT     H134457   1.654   0.232   2.019
11405WAT     H234458   1.679   0.392   2.034
11406WAT      O34459   8.591   4.116   1.338
11406WAT     H134460   8.635   4.130   1.250
11406WAT     H234461   8.497   4.149   1.335
11407WAT      O34462   7.882   5.698   2.837
11407WAT     H134463   7.945   5.691   2.914
11407WAT     H234464   7.788   5.708   2.871
11408WAT      O34465   9.601   2.955   2.558
11408WAT     H134466   9.686   2.970   2.508
11408WAT     H234467   9.563   2.866   2.532
11409WAT      O34468   4.123   0.305   4.674
11409WAT     H134469   4.089   0.339   4.586
11409WAT     H234470   4.182   0.226   4.658
11410WAT      O34471   6.807   8.116   1.371
11410WAT     H134472   6.845   8.141   1.282
11410WAT     H234473   6.721   8.166   1.386
11411WAT      O34474   2.257   5.268   7.989
11411WAT     H134475   2.181   5.316   7.945
11411WAT     H234476   2.254   5.171   7.965
11412WAT      O34477   7.727   5.081   0.375
11412WAT     H134478   7.812   5.090   0.427
11412WAT     H234479   7.661   5.027   0.428
11413WAT      O34480   2.193   2.549   5.944
11413WAT     H134481   2.275   2.603   5.926
11413WAT     H234482   2.136   2.547   5.861
11414WAT      O34483   1.557   3.897   8.989
11414WAT     H134484   1.485   3.963   9.012
11414WAT     H234485   1.520   3.830   8.924
11415WAT      O34486   1.466   1.881   6.035
11415WAT     H134487   1.400   1.809   6.056
11415WAT     H234488   1.430   1.941   5.963
11416WAT      O34489   9.552   9.447   5.232
11416WAT     H134490   9.618   9.522   5.226
11416WAT     H234491   9.483   9.468   5.301
11417WAT      O34492   7.769   6.077   3.632
11417WAT     H134493   7.723   6.149   3.685
11417WAT     H234494   7.703   6.006   3.609
11418WAT      O34495   2.606   0.865   4.602
11418WAT     H134496   2.524   0.921   4.612
11418WAT     H234497   2.623   0.816   4.687
11419WAT      O34498   3.092   8.673   7.944
11419WAT     H134499   3.058   8.766   7.931
11419WAT     H234500   3.081   8.621   7.859
11420WAT      O34501   7.780   3.712   7.654
11420WAT     H134502   7.687   3.688   7.682
11420WAT     H234503   7.836   3.629   7.654
11421WAT      O34504   2.825   6.140   6.248
11421WAT     H134505   2.911   6.190   6.241
11421WAT     H234506   2.800   6.103   6.158
11422WAT      O34507   3.650   1.069   5.758
11422WAT     H134508   3.644   1.137   5.831
11422WAT     H234509   3.746   1.056   5.733
11423WAT      O34510   9.600   0.851   8.987
11423WAT     H134511   9.551   0.905   8.919
11423WAT     H234512   9.554   0.763   9.000
11424WAT      O34513   5.357   6.675   0.371
11424WAT     H134514   5.306   6.718   0.297
11424WAT     H234515   5.301   6.674   0.454
11425WAT      O34516   8.320   5.200   7.650
11425WAT     H134517   8.233   5.214   7.698
11425WAT     H234518   8.308   5.219   7.552
11426WAT      O34519   8.217   2.640   9.195
11426WAT     H134520   8.180   2.722   9.239
11426WAT     H234521   8.142   2.575   9.177
11427WAT      O34522   8.213   2.598   8.002
11427WAT     H134523   8.129   2.614   7.951
11427WAT     H234524   8.194   2.603   8.100
11428WAT      O34525   2.046   7.136   0.149
11428WAT     H134526   2.040   7.208   0.080
11428WAT     H234527   2.014   7.171   0.237
11429WAT      O34528   7.682   0.727   0.203
11429WAT     H134529   7.612   0.781   0.248
11429WAT     H234530   7.706   0.649   0.260
11430WAT      O34531   6.610   5.913   5.796
11430WAT     H134532   6.527   5.910   5.852
11430WAT     H234533   6.658   5.999   5.812
11431WAT      O34534   7.123   1.429   2.727
11431WAT     H134535   7.210   1.446   2.682
11431WAT     H234536   7.099   1.332   2.716
11432WAT      O34537   0.325   8.936   2.508
11432WAT     H134538   0.235   8.975   2.491
11432WAT     H234539   0.394   9.008   2.502
11433WAT      O34540   0.112   4.784   5.881
11433WAT     H134541   0.098   4.736   5.968
11433WAT     H234542   0.029   4.776   5.825
11434WAT      O34543   0.363   5.817   1.238
11434WAT     H134544   0.265   5.800   1.249
11434WAT     H234545   0.398   5.765   1.161
11435WAT      O34546   2.747   9.351   1.242
11435WAT     H134547   2.824   9.358   1.178
11435WAT     H234548   2.664   9.384   1.197
11436WAT      O34549   2.276   5.683   3.751
11436WAT     H134550   2.372   5.692   3.778
11436WAT     H234551   2.220   5.744   3.806
11437WAT      O34552   3.432   7.590   7.682
11437WAT     H134553   3.500   7.600   7.756
11437WAT     H234554   3.379   7.674   7.674
11438WAT      O34555   3.448   5.417   1.338
11438WAT     H134556   3.422   5.321   1.351
11438WAT     H234557   3.523   5.439   1.400
11439WAT      O34558   9.322   6.058   0.659
11439WAT     H134559   9.309   5.981   0.596
11439WAT     H234560   9.362   6.025   0.744
11440WAT      O34561   4.738   8.140   9.641
11440WAT     H134562   4.669   8.163   9.710
11440WAT     H234563   4.708   8.172   9.551
11441WAT      O34564   8.100   1.092   3.749
11441WAT     H134565   8.073   1.041   3.831
11441WAT     H234566   8.128   1.184   3.776
11442WAT      O34567   4.594   2.989   8.443
11442WAT     H134568   4.621   3.085   8.439
11442WAT     H234569   4.609   2.954   8.536
11443WAT      O34570   1.451   3.035   0.532
11443WAT     H134571   1.519   3.107   0.534
11443WAT     H234572   1.359   3.075   0.539
11444WAT      O34573   1.663   1.017   0.352
11444WAT     H134574   1.682   1.111   0.382
11444WAT     H234575   1.744   0.979   0.307
11445WAT      O34576   8.541   0.874   7.412
11445WAT     H134577   8.465   0.833   7.362
11445WAT     H234578   8.551   0.970   7.385
11446WAT      O34579   1.526   9.105   2.175
11446WAT     H134580   1.619   9.132   2.197
11446WAT     H234581   1.468   9.186   2.165
11447WAT      O34582   1.235   0.991   9.111
11447WAT     H134583   1.169   0.933   9.158
11447WAT     H234584   1.228   1.084   9.146
11448WAT      O34585   8.476   9.816   3.575
11448WAT     H134586   8.389   9.822   3.526
11448WAT     H234587   8.513   9.723   3.567
11449WAT      O34588   5.062   2.249   6.601
11449WAT     H134589   5.077   2.152   6.584
11449WAT     H234590   4.968   2.273   6.578
11450WAT      O34591   2.094   6.283   4.655
11450WAT     H134592   2.175   6.295   4.597
11450WAT     H234593   2.121   6.292   4.751
11451WAT      O34594   5.206   6.164   8.580
11451WAT     H134595   5.202   6.237   8.648
11451WAT     H234596   5.123   6.108   8.585
11452WAT      O34597   4.837   7.145   2.650
11452WAT     H134598   4.862   7.054   2.682
11452WAT     H234599   4.920   7.197   2.629
11453WAT      O34600   0.936   7.874   1.314
11453WAT     H134601   0.914   7.824   1.230
11453WAT     H234602   0.982   7.959   1.291
11454WAT      O34603   5.940   9.474   8.239
11454WAT     H134604   5.961   9.447   8.334
11454WAT     H234605   5.900   9.396   8.191
11455WAT      O34606   9.316   2.850   2.008
11455WAT     H134607   9.295   2.753   1.998
11455WAT     H234608   9.352   2.885   1.921
11456WAT      O34609   8.832   7.899   4.337
11456WAT     H134610   8.756   7.863   4.390
11456WAT     H234611   8.883   7.823   4.295
11457WAT      O34612   7.569   1.961   8.217
11457WAT     H134613   7.563   1.885   8.152
11457WAT     H234614   7.504   2.032   8.191
11458WAT      O34615   8.102   4.637   8.976
11458WAT     H134616   8.028   4.699   9.003
11458WAT     H234617   8.163   4.684   8.911
11459WAT      O34618   2.771   1.665   0.442
11459WAT     H134619   2.835   1.732   0.406
11459WAT     H234620   2.772   1.583   0.383
11460WAT      O34621   9.353   5.533   1.202
11460WAT     H134622   9.411   5.456   1.229
11460WAT     H234623   9.274   5.499   1.152
11461WAT      O34624   3.119   0.714   6.143
11461WAT     H134625   3.210   0.692   6.109
11461WAT     H234626   3.079   0.634   6.188
11462WAT      O34627   1.951   6.226   7.758
11462WAT     H134628   2.022   6.253   7.824
11462WAT     H234629   1.995   6.197   7.673
11463WAT      O34630   5.930   1.231   7.631
11463WAT     H134631   5.953   1.323   7.663
11463WAT     H234632   5.905   1.174   7.710
11464WAT      O34633   9.023   8.738   4.969
11464WAT     H134634   9.053   8.785   4.886
11464WAT     H234635   9.031   8.639   4.956
11465WAT      O34636   2.904   2.860   4.953
11465WAT     H134637   2.994   2.817   4.956
11465WAT     H234638   2.899   2.932   5.022
11466WAT      O34639   3.155   3.139   7.109
11466WAT     H134640   3.214   3.198   7.054
11466WAT     H234641   3.143   3.052   7.061
11467WAT      O34642   8.556   2.858   8.697
11467WAT     H134643   8.582   2.916   8.619
11467WAT     H234644   8.473   2.895   8.739
11468WAT      O34645   6.669   7.115   8.058
11468WAT     H134646   6.634   7.155   8.142
11468WAT     H234647   6.726   7.180   8.010
11469WAT      O34648   0.365   5.647   8.783
11469WAT     H134649   0.282   5.592   8.772
11469WAT     H234650   0.339   5.742   8.799
11470WAT      O34651   8.245   8.368   6.163
11470WAT     H134652   8.267   8.443   6.101
11470WAT     H234653   8.328   8.316   6.183
11471WAT      O34654   9.769   2.590   0.631
11471WAT     H134655   9.708   2.527   0.582
11471WAT     H234656   9.834   2.538   0.687
11472WAT      O34657   2.619   1.088   9.459
11472WAT     H134658   2.582   1.174   9.423
11472WAT     H234659   2.691   1.055   9.398
11473WAT      O34660   4.399   3.767   9.874
11473WAT     H134661   4.374   3.839   9.940
11473WAT     H234662   4.358   3.788   9.786
11474WAT      O34663   2.953   0.844   8.792
11474WAT     H134664   2.926   0.934   8.758
11474WAT     H234665   3.049   0.828   8.771
11475WAT      O34666   2.008   6.010   3.449
11475WAT     H134667   1.925   6.065   3.453
11475WAT     H234668   2.084   6.067   3.419
11476WAT      O34669   5.443   5.184   1.621
11476WAT     H134670   5.500   5.221   1.694
11476WAT     H234671   5.488   5.105   1.580
11477WAT      O34672   6.166   6.597   0.445
11477WAT     H134673   6.162   6.541   0.528
11477WAT     H234674   6.081   6.587   0.394
11478WAT      O34675   5.845   2.906   7.150
11478WAT     H134676   5.804   2.820   7.180
11478WAT     H234677   5.932   2.887   7.105
11479WAT      O34678   7.238   3.542   1.756
11479WAT     H134679   7.310   3.534   1.825
11479WAT     H234680   7.222   3.453   1.714
11480WAT      O34681   9.717   6.371   7.351
11480WAT     H134682   9.643   6.326   7.401
11480WAT     H234683   9.679   6.437   7.286
11481WAT      O34684   8.167   5.972   0.324
11481WAT     H134685   8.180   6.012   0.233
11481WAT     H234686   8.229   5.895   0.335
11482WAT      O34687   8.554   2.346   4.067
11482WAT     H134688   8.572   2.249   4.056
11482WAT     H234689   8.622   2.399   4.016
11483WAT      O34690   7.777   6.906   2.524
11483WAT     H134691   7.868   6.914   2.566
11483WAT     H234692   7.788   6.888   2.426
11484WAT      O34693   3.672   2.109   0.430
11484WAT     H134694   3.680   2.012   0.456
11484WAT     H234695   3.762   2.145   0.407
11485WAT      O34696   1.994   2.762   3.330
11485WAT     H134697   1.997   2.670   3.292
11485WAT     H234698   1.960   2.758   3.424
11486WAT      O34699   8.492   3.973   9.793
11486WAT     H134700   8.553   3.907   9.748
11486WAT     H234701   8.415   3.924   9.833
11487WAT      O34702   6.170   2.399   6.018
11487WAT     H134703   6.149   2.380   6.114
11487WAT     H234704   6.264   2.373   5.999
11488WAT      O34705   6.982   1.711   8.111
11488WAT     H134706   7.059   1.672   8.060
11488WAT     H234707   6.908   1.734   8.047
11489WAT      O34708   0.093   9.126   9.382
11489WAT     H134709   0.053   9.035   9.394
11489WAT     H234710   0.191   9.117   9.361
11490WAT      O34711   0.661   2.519   1.411
11490WAT     H134712   0.628   2.494   1.320
11490WAT     H234713   0.658   2.618   1.421
11491WAT      O34714   5.917   4.911   9.477
11491WAT     H134715   5.937   4.901   9.379
11491WAT     H234716   5.819   4.924   9.490
11492WAT      O34717   1.507   5.195   3.495
11492WAT     H134718   1.562   5.232   3.420
11492WAT     H234719   1.502   5.263   3.568
11493WAT      O34720   9.755   0.259   3.012
11493WAT     H134721   9.659   0.244   2.988
11493WAT     H234722   9.766   0.351   3.049
11494WAT      O34723   1.170   8.910   3.768
11494WAT     H134724   1.198   8.947   3.680
11494WAT     H234725   1.147   8.813   3.758
11495WAT      O34726   7.544   7.489   3.176
11495WAT     H134727   7.589   7.553   3.114
11495WAT     H234728   7.590   7.400   3.173
11496WAT      O34729   3.814   6.359   4.185
11496WAT     H134730   3.792   6.287   4.119
11496WAT     H234731   3.768   6.443   4.159
11497WAT      O34732   0.858   5.045   5.475
11497WAT     H134733   0.777   5.078   5.523
11497WAT     H234734   0.855   4.945   5.470
11498WAT      O34735   1.858   1.040   5.992
11498WAT     H134736   1.956   1.057   5.985
11498WAT     H234737   1.812   1.074   5.910
11499WAT      O34738   2.958   8.525   4.630
11499WAT     H134739   3.056   8.508   4.622
11499WAT     H234740   2.937   8.556   4.722
11500WAT      O34741   6.739   4.096   4.347
11500WAT     H134742   6.768   4.148   4.267
11500WAT     H234743   6.650   4.130   4.378
11501WAT      O34744   9.863   3.058   7.275
11501WAT     H134745   9.884   3.114   7.194
11501WAT     H234746   9.796   3.106   7.331
11502WAT      O34747   5.713   2.538   0.488
11502WAT     H134748   5.684   2.463   0.428
11502WAT     H234749   5.635   2.572   0.540
11503WAT      O34750   3.580   7.607   0.352
11503WAT     H134751   3.677   7.586   0.340
11503WAT     H234752   3.535   7.607   0.263
11504WAT      O34753   7.205   8.001   0.309
11504WAT     H134754   7.230   8.022   0.214
11504WAT     H234755   7.111   8.029   0.325
11505WAT      O34756   4.203   5.874   0.259
11505WAT     H134757   4.253   5.961   0.257
11505WAT     H234758   4.235   5.819   0.336
11506WAT      O34759   8.136   3.290   1.269
11506WAT     H134760   8.235   3.293   1.252
11506WAT     H234761   8.114   3.350   1.345
11507WAT      O34762   7.877   0.910   2.686
11507WAT     H134763   7.786   0.927   2.650
11507WAT     H234764   7.937   0.987   2.662
11508WAT      O34765   4.176   3.248   0.197
11508WAT     H134766   4.236   3.169   0.211
11508WAT     H234767   4.172   3.302   0.281
11509WAT      O34768   7.831   4.393   5.887
11509WAT     H134769   7.765   4.467   5.899
11509WAT     H234770   7.912   4.412   5.942
11510WAT      O34771   2.612   8.847   4.670
11510WAT     H134772   2.530   8.843   4.727
11510WAT     H234773   2.586   8.875   4.578
11511WAT      O34774   2.557   6.455   5.817
11511WAT     H134775   2.596   6.490   5.902
11511WAT     H234776   2.623   6.395   5.772
11512WAT      O34777   0.327   0.488   1.134
11512WAT     H134778   0.266   0.446   1.067
11512WAT     H234779   0.406   0.428   1.149
11513WAT      O34780   7.826   8.111   8.682
11513WAT     H134781   7.888   8.110   8.604
11513WAT     H234782   7.742   8.063   8.658
11514WAT      O34783   8.854   2.138   2.776
11514WAT     H134784   8.924   2.116   2.709
11514WAT     H234785   8.801   2.056   2.797
11515WAT      O34786   3.430   6.456   9.407
11515WAT     H134787   3.510   6.402   9.435
11515WAT     H234788   3.354   6.438   9.470
11516WAT      O34789   4.838   4.036   6.372
11516WAT     H134790   4.787   4.089   6.439
11516WAT     H234791   4.826   4.077   6.281
11517WAT      O34792   8.762   6.832   1.451
11517WAT     H134793   8.704   6.757   1.419
11517WAT     H234794   8.706   6.913   1.466
11518WAT      O34795   5.312   0.800   3.242
11518WAT     H134796   5.216   0.810   3.216
11518WAT     H234797   5.360   0.749   3.172
11519WAT      O34798   1.261   0.362   7.645
11519WAT     H134799   1.256   0.337   7.548
11519WAT     H234800   1.221   0.289   7.701
11520WAT      O34801   9.702   6.455   9.848
11520WAT     H134802   9.754   6.370   9.855
11520WAT     H234803   9.693   6.481   9.751
11521WAT      O34804   4.643   4.112   9.855
11521WAT     H134805   4.544   4.122   9.852
11521WAT     H234806   4.667   4.030   9.907
11522WAT      O34807   0.153   0.746   8.193
11522WAT     H134808   0.246   0.736   8.158
11522WAT     H234809   0.133   0.843   8.208
11523WAT      O34810   7.727   9.396   7.353
11523WAT     H134811   7.785   9.350   7.422
11523WAT     H234812   7.719   9.493   7.376
11524WAT      O34813   8.454   0.651   6.603
11524WAT     H134814   8.392   0.712   6.555
11524WAT     H234815   8.427   0.556   6.587
11525WAT      O34816   0.360   5.844   1.661
11525WAT     H134817   0.266   5.824   1.689
11525WAT     H234818   0.424   5.797   1.723
11526WAT      O34819   3.418   7.588   6.364
11526WAT     H134820   3.344   7.621   6.422
11526WAT     H234821   3.380   7.540   6.285
11527WAT      O34822   5.917   1.962   6.234
11527WAT     H134823   5.930   2.060   6.251
11527WAT     H234824   5.839   1.949   6.172
11528WAT      O34825   2.901   3.099   5.132
11528WAT     H134826   2.921   3.159   5.055
11528WAT     H234827   2.818   3.130   5.178
11529WAT      O34828   8.759   5.729   4.034
11529WAT     H134829   8.808   5.652   4.074
11529WAT     H234830   8.770   5.728   3.935
11530WAT      O34831   9.835   1.481   7.494
11530WAT     H134832   9.746   1.509   7.531
11530WAT     H234833   9.882   1.424   7.561
11531WAT      O34834   1.813   3.573   2.574
11531WAT     H134835   1.810   3.622   2.662
11531WAT     H234836   1.749   3.616   2.511
11532WAT      O34837   1.491   7.658   7.201
11532WAT     H134838   1.407   7.661   7.255
11532WAT     H234839   1.473   7.613   7.113
11533WAT      O34840   6.250   7.650   5.515
11533WAT     H134841   6.346   7.656   5.486
11533WAT     H234842   6.246   7.626   5.612
11534WAT      O34843   3.466   0.112   2.300
11534WAT     H134844   3.422   0.108   2.210
11534WAT     H234845   3.417   0.053   2.364
11535WAT      O34846   3.714   2.219   1.608
11535WAT     H134847   3.790   2.157   1.623
11535WAT     H234848   3.628   2.169   1.617
11536WAT      O34849   8.106   4.314   9.867
11536WAT     H134850   8.205   4.321   9.878
11536WAT     H234851   8.084   4.264   9.784
11537WAT      O34852   3.706   6.649   8.833
11537WAT     H134853   3.647   6.712   8.782
11537WAT     H234854   3.668   6.557   8.829
11538WAT      O34855   7.853   5.348   6.183
11538WAT     H134856   7.875   5.258   6.221
11538WAT     H234857   7.755   5.363   6.185
11539WAT      O34858   8.893   7.644   8.280
11539WAT     H134859   8.886   7.571   8.212
11539WAT     H234860   8.973   7.701   8.260
11540WAT      O34861   6.965   4.926   8.719
11540WAT     H134862   6.934   4.957   8.629
11540WAT     H234863   6.994   4.830   8.712
11541WAT      O34864   7.683   5.379   6.731
11541WAT     H134865   7.689   5.370   6.632
11541WAT     H234866   7.763   5.336   6.774
11542WAT      O34867   5.350   9.678   3.845
11542WAT     H134868   5.284   9.750   3.825
11542WAT     H234869   5.323   9.594   3.798
11543WAT      O34870   5.438   4.881   0.391
11543WAT     H134871   5.402   4.812   0.329
11543WAT     H234872   5.453   4.841   0.481
11544WAT      O34873   2.644   3.878   9.351
11544WAT     H134874   2.559   3.911   9.392
11544WAT     H234875   2.668   3.788   9.390
11545WAT      O34876   4.055   6.111   6.012
11545WAT     H134877   4.099   6.022   6.005
11545WAT     H234878   4.048   6.152   5.921
11546WAT      O34879   1.092   3.350   3.021
11546WAT     H134880   1.102   3.268   3.078
11546WAT     H234881   1.005   3.345   2.971
11547WAT      O34882   0.604   8.309   5.018
11547WAT     H134883   0.689   8.359   5.033
11547WAT     H234884   0.618   8.239   4.947
11548WAT      O34885   8.884   1.815   9.056
11548WAT     H134886   8.876   1.720   9.085
11548WAT     H234887   8.972   1.829   9.011
11549WAT      O34888   7.947   8.900   6.186
11549WAT     H134889   7.950   8.936   6.279
11549WAT     H234890   7.917   8.805   6.188
11550WAT      O34891   3.581   2.007   3.898
11550WAT     H134892   3.500   2.046   3.941
11550WAT     H234893   3.574   1.907   3.897
11551WAT      O34894   0.589   0.622   0.557
11551WAT     H134895   0.546   0.684   0.623
11551WAT     H234896   0.687   0.639   0.554
11552WAT      O34897   0.112   9.390   9.339
11552WAT     H134898   0.112   9.290   9.345
11552WAT     H234899   0.032   9.426   9.386
11553WAT      O34900   7.134   7.634   4.624
11553WAT     H134901   7.133   7.575   4.705
11553WAT     H234902   7.089   7.720   4.645
11554WAT      O34903   5.875   4.613   0.134
11554WAT     H134904   5.902   4.654   0.047
11554WAT     H234905   5.906   4.518   0.137
11555WAT      O34906   8.151   8.701   8.856
11555WAT     H134907   8.207   8.621   8.836
11555WAT     H234908   8.137   8.754   8.773
11556WAT      O34909   0.999   6.176   5.800
11556WAT     H134910   0.936   6.204   5.872
11556WAT     H234911   0.962   6.200   5.711
11557WAT      O34912   4.892   8.280   9.032
11557WAT     H134913   4.933   8.239   9.114
11557WAT     H234914   4.872   8.376   9.049
11558WAT      O34915   7.658   9.532   4.948
11558WAT     H134916   7.678   9.604   4.881
11558WAT     H234917   7.661   9.571   5.040
11559WAT      O34918   1.447   7.859   6.162
11559WAT     H134919   1.527   7.909   6.194
11559WAT     H234920   1.465   7.761   6.165
11560WAT      O34921   5.104   5.806   9.226
11560WAT     H134922   5.092   5.755   9.141
11560WAT     H234923   5.018   5.849   9.252
11561WAT      O34924   9.158   4.815   7.120
11561WAT     H134925   9.065   4.820   7.156
11561WAT     H234926   9.223   4.829   7.195
11562WAT      O34927   6.126   8.679   1.477
11562WAT     H134928   6.170   8.714   1.560
11562WAT     H234929   6.182   8.605   1.439
11563WAT      O34930   2.768   1.554   8.798
11563WAT     H134931   2.779   1.642   8.846
11563WAT     H234932   2.858   1.513   8.784
11564WAT      O34933   6.294   1.462   8.477
11564WAT     H134934   6.390   1.474   8.502
11564WAT     H234935   6.251   1.551   8.464
11565WAT      O34936   8.162   0.043   7.944
11565WAT     H134937   8.207  -0.031   7.894
11565WAT     H234938   8.116   0.104   7.879
11566WAT      O34939   1.807   8.654   6.728
11566WAT     H134940   1.794   8.670   6.631
11566WAT     H234941   1.722   8.621   6.769
11567WAT      O34942   3.518   4.433   8.046
11567WAT     H134943   3.434   4.388   8.077
11567WAT     H234944   3.517   4.442   7.946
11568WAT      O34945   4.740   0.693   1.958
11568WAT     H134946   4.790   0.691   1.871
11568WAT     H234947   4.797   0.739   2.028
11569WAT      O34948   9.182   0.453   7.015
11569WAT     H134949   9.109   0.514   6.982
11569WAT     H234950   9.193   0.377   6.952
11570WAT      O34951   2.850   0.300   0.141
11570WAT     H134952   2.840   0.367   0.067
11570WAT     H234953   2.793   0.221   0.121
11571WAT      O34954   3.508   8.754   4.781
11571WAT     H134955   3.536   8.776   4.687
11571WAT     H234956   3.409   8.751   4.786
11572WAT      O34957   9.047   6.143   9.626
11572WAT     H134958   8.980   6.079   9.589
11572WAT     H234959   9.038   6.147   9.726
11573WAT      O34960   2.299   4.691   1.769
11573WAT     H134961   2.390   4.726   1.790
11573WAT     H234962   2.237   4.707   1.846
11574WAT      O34963   5.879   1.686   0.614
11574WAT     H134964   5.939   1.757   0.578
11574WAT     H234965   5.802   1.672   0.551
11575WAT      O34966   1.233   9.136   3.294
11575WAT     H134967   1.194   9.216   3.340
11575WAT     H234968   1.320   9.163   3.252
11576WAT      O34969   8.272   6.844   2.733
11576WAT     H134970   8.283   6.937   2.697
11576WAT     H234971   8.310   6.778   2.668
11577WAT      O34972   1.227   3.341   8.348
11577WAT     H134973   1.226   3.362   8.251
11577WAT     H234974   1.205   3.424   8.400
11578WAT      O34975   0.293   8.069   5.837
11578WAT     H134976   0.299   8.030   5.744
11578WAT     H234977   0.203   8.111   5.850
11579WAT      O34978   9.037   7.203   7.720
11579WAT     H134979   9.125   7.211   7.767
11579WAT     H234980   8.969   7.165   7.783
11580WAT      O34981   5.225   5.836   4.785
11580WAT     H134982   5.219   5.744   4.823
11580WAT     H234983   5.303   5.884   4.824
11581WAT      O34984   4.940   7.854   6.605
11581WAT     H134985   4.883   7.926   6.566
11581WAT     H234986   4.901   7.825   6.693
11582WAT      O34987   0.984   8.099   8.190
11582WAT     H134988   1.083   8.084   8.188
11582WAT     H234989   0.962   8.182   8.138
11583WAT      O34990   2.320   6.413   4.516
11583WAT     H134991   2.417   6.399   4.495
11583WAT     H234992   2.311   6.484   4.586
11584WAT      O34993   5.287   5.787   6.623
11584WAT     H134994   5.241   5.747   6.544
11584WAT     H234995   5.220   5.839   6.677
11585WAT      O34996   7.543   8.792   4.559
11585WAT     H134997   7.546   8.881   4.606
11585WAT     H234998   7.454   8.780   4.515
11586WAT      O34999   5.995   3.302   5.731
11586WAT     H135000   5.987   3.239   5.808
11586WAT     H235001   6.072   3.364   5.746
11587WAT      O35002   3.255   0.267   4.159
11587WAT     H135003   3.239   0.281   4.061
11587WAT     H235004   3.315   0.188   4.172
11588WAT      O35005   6.690   1.903   3.735
11588WAT     H135006   6.615   1.966   3.754
11588WAT     H235007   6.679   1.820   3.790
11589WAT      O35008   5.886   5.959   9.262
11589WAT     H135009   5.889   5.931   9.166
11589WAT     H235010   5.864   5.880   9.319
11590WAT      O35011   4.281   7.965   3.235
11590WAT     H135012   4.221   7.987   3.311
11590WAT     H235013   4.313   8.049   3.192
11591WAT      O35014   6.352   2.653   4.443
11591WAT     H135015   6.395   2.603   4.517
11591WAT     H235016   6.298   2.590   4.387
11592WAT      O35017   4.447   2.790   7.867
11592WAT     H135018   4.461   2.857   7.939
11592WAT     H235019   4.364   2.738   7.885
11593WAT      O35020   4.810   8.578   1.514
11593WAT     H135021   4.762   8.493   1.494
11593WAT     H235022   4.882   8.593   1.446
11594WAT      O35023   6.525   3.240   3.369
11594WAT     H135024   6.446   3.235   3.308
11594WAT     H235025   6.572   3.328   3.355
11595WAT      O35026   1.234   2.332   4.553
11595WAT     H135027   1.320   2.331   4.502
11595WAT     H235028   1.159   2.356   4.491
11596WAT      O35029   1.114   5.759   3.052
11596WAT     H135030   1.190   5.820   3.032
11596WAT     H235031   1.144   5.689   3.117
11597WAT      O35032   4.085   6.843   7.990
11597WAT     H135033   4.057   6.939   7.988
11597WAT     H235034   4.003   6.786   8.000
11598WAT      O35035   5.772   2.008   6.624
11598WAT     H135036   5.790   2.104   6.605
11598WAT     H235037   5.688   1.980   6.579
11599WAT      O35038   7.720   4.106   2.715
11599WAT     H135039   7.660   4.031   2.688
11599WAT     H235040   7.766   4.143   2.634
11600WAT      O35041   6.976   6.792   6.317
11600WAT     H135042   6.938   6.854   6.248
11600WAT     H235043   6.963   6.831   6.408
11601WAT      O35044   1.235   8.994   9.768
11601WAT     H135045   1.271   9.058   9.835
11601WAT     H235046   1.188   9.044   9.695
11602WAT      O35047   3.492   2.920   6.435
11602WAT     H135048   3.501   2.888   6.341
11602WAT     H235049   3.520   2.847   6.498
11603WAT      O35050   8.663   8.783   3.014
11603WAT     H135051   8.722   8.847   3.062
11603WAT     H235052   8.602   8.834   2.952
11604WAT      O35053   0.278   7.618   6.475
11604WAT     H135054   0.358   7.561   6.456
11604WAT     H235055   0.288   7.707   6.433
11605WAT      O35056   6.468   9.139   0.969
11605WAT     H135057   6.543   9.203   0.961
11605WAT     H235058   6.390   9.183   1.014
11606WAT      O35059   5.162   7.405   7.770
11606WAT     H135060   5.116   7.392   7.858
11606WAT     H235061   5.260   7.386   7.781
11607WAT      O35062   2.402   2.800   1.677
11607WAT     H135063   2.382   2.834   1.769
11607WAT     H235064   2.329   2.828   1.615
11608WAT      O35065   5.017   2.627   8.639
11608WAT     H135066   4.991   2.551   8.698
11608WAT     H235067   4.982   2.610   8.547
11609WAT      O35068   1.614   1.290   6.111
11609WAT     H135069   1.677   1.364   6.086
11609WAT     H235070   1.667   1.211   6.143
11610WAT      O35071   6.895   6.744   6.756
11610WAT     H135072   6.904   6.725   6.854
11610WAT     H235073   6.802   6.774   6.737
11611WAT      O35074   7.794   0.826   1.776
11611WAT     H135075   7.732   0.750   1.756
11611WAT     H235076   7.820   0.823   1.872
11612WAT      O35077   0.827   4.552   4.917
11612WAT     H135078   0.903   4.577   4.857
11612WAT     H235079   0.777   4.634   4.945
11613WAT      O35080   2.391   0.021   2.978
11613WAT     H135081   2.439   0.088   3.035
11613WAT     H235082   2.294   0.047   2.972
11614WAT      O35083   3.035   7.316   6.320
11614WAT     H135084   3.110   7.251   6.331
11614WAT     H235085   2.948   7.267   6.320
11615WAT      O35086   4.886   2.016   7.704
11615WAT     H135087   4.895   2.112   7.678
11615WAT     H235088   4.949   1.996   7.779
11616WAT      O35089   0.390   4.376   6.990
11616WAT     H135090   0.450   4.434   6.935
11616WAT     H235091   0.445   4.312   7.043
11617WAT      O35092   0.632   6.043   3.899
11617WAT     H135093   0.578   5.976   3.948
11617WAT     H235094   0.718   6.059   3.947
11618WAT      O35095   4.096   1.879   5.819
11618WAT     H135096   4.162   1.830   5.875
11618WAT     H235097   4.076   1.968   5.861
11619WAT      O35098   0.204   7.889   5.243
11619WAT     H135099   0.147   7.846   5.173
11619WAT     H235100   0.155   7.886   5.331
11620WAT      O35101   5.717   3.919   0.204
11620WAT     H135102   5.808   3.961   0.213
11620WAT     H235103   5.716   3.858   0.125
11621WAT      O35104   1.131   4.726   2.965
11621WAT     H135105   1.033   4.717   2.983
11621WAT     H235106   1.169   4.800   3.022
11622WAT      O35107   1.935   4.380   6.959
11622WAT     H135108   2.017   4.333   6.992
11622WAT     H235109   1.908   4.451   7.024
11623WAT      O35110   2.222   3.779   3.693
11623WAT     H135111   2.228   3.862   3.638
11623WAT     H235112   2.153   3.791   3.764
11624WAT      O35113   6.229   1.965   8.144
11624WAT     H135114   6.165   2.042   8.147
11624WAT     H235115   6.280   1.961   8.230
11625WAT      O35116   6.096   6.167   1.924
11625WAT     H135117   6.015   6.119   1.889
11625WAT     H235118   6.177   6.112   1.907
11626WAT      O35119   8.515   5.970   4.401
11626WAT     H135120   8.535   5.872   4.401
11626WAT     H235121   8.496   6.000   4.308
11627WAT      O35122   6.681   6.576   8.701
11627WAT     H135123   6.720   6.667   8.709
11627WAT     H235124   6.581   6.582   8.701
11628WAT      O35125   1.719   7.727   3.888
11628WAT     H135126   1.783   7.650   3.883
11628WAT     H235127   1.743   7.785   3.965
11629WAT      O35128   8.069   2.330   7.962
11629WAT     H135129   8.036   2.424   7.948
11629WAT     H235130   8.056   2.304   8.057
11630WAT      O35131   6.579   2.484   8.223
11630WAT     H135132   6.517   2.560   8.241
11630WAT     H235133   6.544   2.400   8.266
11631WAT      O35134   7.717   5.939   5.878
11631WAT     H135135   7.664   6.021   5.901
11631WAT     H235136   7.728   5.883   5.961
11632WAT      O35137   1.431   9.739   7.278
11632WAT     H135138   1.446   9.838   7.272
11632WAT     H235139   1.513   9.696   7.316
11633WAT      O35140   4.358   2.085   9.489
11633WAT     H135141   4.321   2.034   9.411
11633WAT     H235142   4.307   2.063   9.572
11634WAT      O35143   2.437   3.329   4.129
11634WAT     H135144   2.421   3.230   4.125
11634WAT     H235145   2.447   3.357   4.224
11635WAT      O35146   7.921   5.111   6.347
11635WAT     H135147   8.000   5.121   6.406
11635WAT     H235148   7.864   5.035   6.380
11636WAT      O35149   9.039   4.343   4.714
11636WAT     H135150   9.071   4.252   4.687
11636WAT     H235151   9.108   4.387   4.771
11637WAT      O35152   1.943   8.625   8.439
11637WAT     H135153   1.850   8.650   8.412
11637WAT     H235154   1.940   8.542   8.494
11638WAT      O35155   7.529   4.756   7.137
11638WAT     H135156   7.558   4.848   7.164
11638WAT     H235157   7.604   4.691   7.152
11639WAT      O35158   6.050   3.954   8.460
11639WAT     H135159   6.140   3.967   8.501
11639WAT     H235160   6.033   4.027   8.393
11640WAT      O35161   6.629   1.643   4.472
11640WAT     H135162   6.585   1.627   4.560
11640WAT     H235163   6.582   1.718   4.424
11641WAT      O35164   5.952   1.184   8.206
11641WAT     H135165   6.013   1.133   8.146
11641WAT     H235166   6.006   1.225   8.280
11642WAT      O35167   1.152   1.505   8.598
11642WAT     H135168   1.167   1.441   8.673
11642WAT     H235169   1.058   1.540   8.603
11643WAT      O35170   8.451   2.505   5.600
11643WAT     H135171   8.412   2.454   5.676
11643WAT     H235172   8.451   2.447   5.518
11644WAT      O35173   9.415   5.295   5.079
11644WAT     H135174   9.340   5.291   5.013
11644WAT     H235175   9.403   5.223   5.147
11645WAT      O35176   2.221   8.983   5.007
11645WAT     H135177   2.283   8.916   4.967
11645WAT     H235178   2.229   8.980   5.107
11646WAT      O35179   6.941   6.857   9.349
11646WAT     H135180   6.903   6.783   9.294
11646WAT     H235181   6.946   6.940   9.294
11647WAT      O35182   1.188   9.325   3.925
11647WAT     H135183   1.262   9.258   3.932
11647WAT     H235184   1.101   9.280   3.947
11648WAT      O35185   2.702   1.820   6.407
11648WAT     H135186   2.693   1.802   6.505
11648WAT     H235187   2.621   1.786   6.359
11649WAT      O35188   4.475   6.229   2.322
11649WAT     H135189   4.499   6.176   2.241
11649WAT     H235190   4.558   6.266   2.365
11650WAT      O35191   8.917   1.859   7.300
11650WAT     H135192   8.929   1.764   7.332
11650WAT     H235193   9.000   1.888   7.252
11651WAT      O35194   2.150   6.536   6.997
11651WAT     H135195   2.095   6.570   7.073
11651WAT     H235196   2.144   6.599   6.920
11652WAT      O35197   5.141   6.235   9.160
11652WAT     H135198   5.042   6.236   9.147
11652WAT     H235199   5.163   6.270   9.251
11653WAT      O35200   3.814   4.026   4.843
11653WAT     H135201   3.716   4.011   4.849
11653WAT     H235202   3.855   4.011   4.933
11654WAT      O35203   4.485   5.863   9.228
11654WAT     H135204   4.493   5.953   9.184
11654WAT     H235205   4.505   5.873   9.326
11655WAT      O35206   7.346   3.626   9.110
11655WAT     H135207   7.277   3.698   9.094
11655WAT     H235208   7.300   3.541   9.134
11656WAT      O35209   6.516   0.499   4.753
11656WAT     H135210   6.508   0.529   4.848
11656WAT     H235211   6.457   0.556   4.695
11657WAT      O35212   6.151   4.286   5.093
11657WAT     H135213   6.067   4.330   5.062
11657WAT     H235214   6.128   4.204   5.146
11658WAT      O35215   5.714   9.625   3.848
11658WAT     H135216   5.749   9.583   3.932
11658WAT     H235217   5.615   9.634   3.854
11659WAT      O35218   5.080   7.108   3.513
11659WAT     H135219   5.077   7.016   3.552
11659WAT     H235220   5.079   7.102   3.413
11660WAT      O35221   0.176   4.431   4.493
11660WAT     H135222   0.185   4.431   4.592
11660WAT     H235223   0.082   4.409   4.467
11661WAT      O35224   2.420   6.890   6.099
11661WAT     H135225   2.413   6.846   6.189
11661WAT     H235226   2.515   6.893   6.070
11662WAT      O35227   9.043   5.639   3.852
11662WAT     H135228   8.966   5.678   3.801
11662WAT     H235229   9.008   5.591   3.933
11663WAT      O35230   1.488   1.739   9.180
11663WAT     H135231   1.478   1.741   9.279
11663WAT     H235232   1.486   1.833   9.144
11664WAT      O35233   1.890   2.708   4.209
11664WAT     H135234   1.793   2.688   4.227
11664WAT     H235235   1.906   2.706   4.110
11665WAT      O35236   5.527   5.434   9.312
11665WAT     H135237   5.605   5.429   9.249
11665WAT     H235238   5.448   5.471   9.263
11666WAT      O35239   9.148   9.823   7.580
11666WAT     H135240   9.212   9.880   7.528
11666WAT     H235241   9.087   9.776   7.517
11667WAT      O35242   4.956   5.445   9.345
11667WAT     H135243   4.900   5.528   9.342
11667WAT     H235244   5.004   5.434   9.258
11668WAT      O35245   4.428   4.337   3.628
11668WAT     H135246   4.363   4.339   3.704
11668WAT     H235247   4.457   4.430   3.606
11669WAT      O35248   1.971   6.618   2.935
11669WAT     H135249   1.939   6.708   2.964
11669WAT     H235250   1.898   6.570   2.887
11670WAT      O35251   4.163   8.098   0.391
11670WAT     H135252   4.210   8.082   0.304
11670WAT     H235253   4.085   8.158   0.376
11671WAT      O35254   6.204   2.447   0.879
11671WAT     H135255   6.239   2.540   0.879
11671WAT     H235256   6.109   2.446   0.847
11672WAT      O35257   8.612   0.954   5.149
11672WAT     H135258   8.702   0.940   5.190
11672WAT     H235259   8.570   0.865   5.130
11673WAT      O35260   8.609   6.600   6.549
11673WAT     H135261   8.570   6.589   6.458
11673WAT     H235262   8.664   6.684   6.552
11674WAT      O35263   1.082   8.983   6.341
11674WAT     H135264   1.156   9.003   6.405
11674WAT     H235265   1.068   8.885   6.336
11675WAT      O35266   8.881   3.507   6.124
11675WAT     H135267   8.933   3.462   6.196
11675WAT     H235268   8.790   3.466   6.117
11676WAT      O35269   0.044   1.738   4.257
11676WAT     H135270   0.002   1.743   4.347
11676WAT     H235271   0.007   1.811   4.199
11677WAT      O35272   9.453   7.498   8.624
11677WAT     H135273   9.393   7.570   8.659
11677WAT     H235274   9.410   7.455   8.545
11678WAT      O35275   1.531   5.492   8.700
11678WAT     H135276   1.490   5.518   8.788
11678WAT     H235277   1.537   5.393   8.694
11679WAT      O35278   2.210   9.503   3.578
11679WAT     H135279   2.194   9.489   3.676
11679WAT     H235280   2.161   9.584   3.547
11680WAT      O35281   0.582   8.629   6.003
11680WAT     H135282   0.568   8.655   5.907
11680WAT     H235283   0.639   8.697   6.048
11681WAT      O35284   2.037   8.725   2.694
11681WAT     H135285   1.997   8.731   2.602
11681WAT     H235286   1.984   8.661   2.749
11682WAT      O35287   0.320   6.283   8.888
11682WAT     H135288   0.302   6.233   8.972
11682WAT     H235289   0.332   6.380   8.909
11683WAT      O35290   2.750   8.755   6.428
11683WAT     H135291   2.684   8.732   6.356
11683WAT     H235292   2.843   8.743   6.392
11684WAT      O35293   1.255   6.670   1.303
11684WAT     H135294   1.220   6.589   1.349
11684WAT     H235295   1.265   6.744   1.369
11685WAT      O35296   1.196   3.907   7.425
11685WAT     H135297   1.275   3.960   7.393
11685WAT     H235298   1.178   3.832   7.362
11686WAT      O35299   6.107   9.654   4.139
11686WAT     H135300   6.012   9.645   4.170
11686WAT     H235301   6.140   9.746   4.159
11687WAT      O35302   6.125   4.603   1.996
11687WAT     H135303   6.138   4.507   2.020
11687WAT     H235304   6.201   4.634   1.940
11688WAT      O35305   4.490   6.262   3.046
11688WAT     H135306   4.423   6.197   3.012
11688WAT     H235307   4.547   6.218   3.115
11689WAT      O35308   2.797   0.097   4.820
11689WAT     H135309   2.756   0.164   4.882
11689WAT     H235310   2.812   0.012   4.870
11690WAT      O35311   1.752   0.633   9.713
11690WAT     H135312   1.668   0.682   9.736
11690WAT     H235313   1.829   0.697   9.711
11691WAT      O35314   0.108   7.196   4.005
11691WAT     H135315   0.027   7.235   3.961
11691WAT     H235316   0.128   7.107   3.965
11692WAT      O35317   1.811   5.118   0.993
11692WAT     H135318   1.892   5.060   1.009
11692WAT     H235319   1.731   5.075   1.035
11693WAT      O35320   6.201   0.716   1.401
11693WAT     H135321   6.215   0.682   1.494
11693WAT     H235322   6.257   0.797   1.387
11694WAT      O35323   3.833   1.368   8.158
11694WAT     H135324   3.736   1.348   8.165
11694WAT     H235325   3.883   1.315   8.227
11695WAT      O35326   6.015   2.855   9.405
11695WAT     H135327   5.969   2.813   9.327
11695WAT     H235328   6.098   2.804   9.427
11696WAT      O35329   5.955   4.919   0.831
11696WAT     H135330   5.872   4.974   0.820
11696WAT     H235331   6.004   4.915   0.744
11697WAT      O35332   9.043   4.925   5.581
11697WAT     H135333   8.943   4.929   5.574
11697WAT     H235334   9.068   4.855   5.649
11698WAT      O35335   7.504   3.191   2.130
11698WAT     H135336   7.576   3.122   2.137
11698WAT     H235337   7.454   3.179   2.045
11699WAT      O35338   9.347   8.881   8.832
11699WAT     H135339   9.341   8.852   8.928
11699WAT     H235340   9.353   8.801   8.773
11700WAT      O35341   6.070   8.161   2.074
11700WAT     H135342   6.013   8.084   2.104
11700WAT     H235343   6.082   8.157   1.975
11701WAT      O35344   1.439   5.564   4.182
11701WAT     H135345   1.390   5.479   4.204
11701WAT     H235346   1.392   5.642   4.224
11702WAT      O35347   0.332   0.628   8.991
11702WAT     H135348   0.398   0.695   9.024
11702WAT     H235349   0.302   0.654   8.899
11703WAT      O35350   4.360   7.811   6.254
11703WAT     H135351   4.357   7.881   6.183
11703WAT     H235352   4.273   7.762   6.257
11704WAT      O35353   6.926   5.071   0.016
11704WAT     H135354   6.911   5.094  -0.080
11704WAT     H235355   6.844   5.026   0.053
11705WAT      O35356   8.848   2.198   8.586
11705WAT     H135357   8.929   2.244   8.624
11705WAT     H235358   8.813   2.133   8.653
11706WAT      O35359   9.787   4.993   4.743
11706WAT     H135360   9.748   4.952   4.660
11706WAT     H235361   9.874   5.037   4.720
11707WAT      O35362   6.147   9.301   1.609
11707WAT     H135363   6.084   9.324   1.683
11707WAT     H235364   6.119   9.350   1.526
11708WAT      O35365   1.641   2.225   4.684
11708WAT     H135366   1.654   2.126   4.673
11708WAT     H235367   1.555   2.243   4.731
11709WAT      O35368   4.041   1.626   1.823
11709WAT     H135369   3.990   1.712   1.816
11709WAT     H235370   4.136   1.646   1.845
11710WAT      O35371   2.945   2.715   6.981
11710WAT     H135372   2.934   2.691   7.078
11710WAT     H235373   2.855   2.722   6.938
11711WAT      O35374   0.712   4.606   1.713
11711WAT     H135375   0.671   4.678   1.768
11711WAT     H235376   0.645   4.571   1.648
11712WAT      O35377   9.034   6.816   2.047
11712WAT     H135378   9.124   6.774   2.048
11712WAT     H235379   8.963   6.745   2.045
11713WAT      O35380   0.694   8.019   7.920
11713WAT     H135381   0.782   8.043   7.962
11713WAT     H235382   0.667   7.927   7.950
11714WAT      O35383   3.244   3.528   1.089
11714WAT     H135384   3.245   3.575   1.002
11714WAT     H235385   3.268   3.591   1.163
11715WAT      O35386   5.775   1.548   2.698
11715WAT     H135387   5.754   1.635   2.742
11715WAT     H235388   5.831   1.492   2.759
11716WAT      O35389   5.088   3.105   8.486
11716WAT     H135390   5.178   3.063   8.478
11716WAT     H235391   5.074   3.138   8.579
11717WAT      O35392   6.617   5.816   1.502
11717WAT     H135393   6.577   5.732   1.537
11717WAT     H235394   6.713   5.822   1.531
11718WAT      O35395   5.418   9.611   1.859
11718WAT     H135396   5.379   9.602   1.951
11718WAT     H235397   5.409   9.705   1.827
11719WAT      O35398   9.170   2.924   9.019
11719WAT     H135399   9.235   2.909   8.944
11719WAT     H235400   9.203   2.877   9.101
11720WAT      O35401   8.299   8.756   4.633
11720WAT     H135402   8.282   8.657   4.632
11720WAT     H235403   8.260   8.795   4.717
11721WAT      O35404   4.644   8.021   6.200
11721WAT     H135405   4.624   8.002   6.104
11721WAT     H235406   4.695   8.107   6.207
11722WAT      O35407   7.151   4.527   0.294
11722WAT     H135408   7.149   4.613   0.344
11722WAT     H235409   7.058   4.495   0.278
11723WAT      O35410   0.086   3.527   8.680
11723WAT     H135411   0.077   3.515   8.779
11723WAT     H235412   0.138   3.610   8.661
11724WAT      O35413   2.823   7.685   3.716
11724WAT     H135414   2.750   7.700   3.650
11724WAT     H235415   2.907   7.730   3.684
11725WAT      O35416   2.238   5.736   5.543
11725WAT     H135417   2.258   5.834   5.535
11725WAT     H235418   2.319   5.683   5.518
11726WAT      O35419   8.551   3.022   6.282
11726WAT     H135420   8.617   3.093   6.256
11726WAT     H235421   8.461   3.063   6.296
11727WAT      O35422   0.984   6.733   9.588
11727WAT     H135423   0.899   6.690   9.559
11727WAT     H235424   1.000   6.815   9.531
11728WAT      O35425   7.438   4.040   9.676
11728WAT     H135426   7.367   4.061   9.608
11728WAT     H235427   7.526   4.072   9.642
11729WAT      O35428   2.561   6.439   2.340
11729WAT     H135429   2.507   6.447   2.423
11729WAT     H235430   2.658   6.443   2.362
11730WAT      O35431   3.561   6.161   4.994
11730WAT     H135432   3.494   6.179   5.066
11730WAT     H235433   3.620   6.241   4.982
11731WAT      O35434   9.184   3.904   6.473
11731WAT     H135435   9.195   3.826   6.411
11731WAT     H235436   9.266   3.960   6.470
11732WAT      O35437   6.396   5.374   1.649
11732WAT     H135438   6.413   5.314   1.727
11732WAT     H235439   6.463   5.355   1.577
11733WAT      O35440   4.036   5.450   0.042
11733WAT     H135441   3.981   5.437   0.124
11733WAT     H235442   3.991   5.516  -0.018
11734WAT      O35443   8.362   5.736   7.417
11734WAT     H135444   8.449   5.758   7.373
11734WAT     H235445   8.291   5.726   7.347
11735WAT      O35446   7.311   4.535   5.745
11735WAT     H135447   7.387   4.484   5.705
11735WAT     H235448   7.282   4.606   5.681
11736WAT      O35449   2.627   3.594   4.048
11736WAT     H135450   2.583   3.671   4.002
11736WAT     H235451   2.557   3.530   4.079
11737WAT      O35452   2.249   4.641   2.841
11737WAT     H135453   2.340   4.663   2.805
11737WAT     H235454   2.210   4.566   2.788
11738WAT      O35455   3.262   0.225   9.377
11738WAT     H135456   3.179   0.272   9.408
11738WAT     H235457   3.246   0.186   9.286
11739WAT      O35458   2.683   2.336   9.425
11739WAT     H135459   2.646   2.385   9.503
11739WAT     H235460   2.656   2.381   9.340
11740WAT      O35461   8.305   6.126   7.314
11740WAT     H135462   8.220   6.073   7.317
11740WAT     H235463   8.299   6.201   7.381
11741WAT      O35464   2.965   3.370   9.125
11741WAT     H135465   3.053   3.408   9.095
11741WAT     H235466   2.906   3.357   9.045
11742WAT      O35467   9.204   0.540   7.791
11742WAT     H135468   9.173   0.632   7.815
11742WAT     H235469   9.146   0.503   7.719
11743WAT      O35470   2.577   8.558   7.196
11743WAT     H135471   2.594   8.462   7.216
11743WAT     H235472   2.504   8.565   7.127
11744WAT      O35473   6.852   6.082   2.014
11744WAT     H135474   6.920   6.009   2.027
11744WAT     H235475   6.897   6.171   2.025
11745WAT      O35476   7.797   1.167   3.442
11745WAT     H135477   7.767   1.205   3.530
11745WAT     H235478   7.888   1.128   3.452
11746WAT      O35479   6.288   5.812   4.636
11746WAT     H135480   6.386   5.825   4.654
11746WAT     H235481   6.235   5.857   4.708
11747WAT      O35482   0.392   0.847   2.059
11747WAT     H135483   0.476   0.822   2.011
11747WAT     H235484   0.332   0.898   1.997
11748WAT      O35485   1.240   8.458   1.134
11748WAT     H135486   1.159   8.459   1.193
11748WAT     H235487   1.268   8.551   1.114
11749WAT      O35488   2.958   3.462   8.700
11749WAT     H135489   2.998   3.397   8.636
11749WAT     H235490   2.975   3.555   8.669
11750WAT      O35491   9.848   0.378   8.537
11750WAT     H135492   9.844   0.306   8.467
11750WAT     H235493   9.849   0.335   8.627
11751WAT      O35494   4.541   3.622   1.045
11751WAT     H135495   4.586   3.555   1.104
11751WAT     H235496   4.450   3.590   1.021
11752WAT      O35497   8.394   8.760   9.203
11752WAT     H135498   8.392   8.669   9.246
11752WAT     H235499   8.302   8.785   9.175
11753WAT      O35500   8.078   1.392   7.334
11753WAT     H135501   8.173   1.361   7.342
11753WAT     H235502   8.025   1.324   7.283
11754WAT      O35503   6.167   9.476   5.011
11754WAT     H135504   6.125   9.394   4.973
11754WAT     H235505   6.097   9.530   5.059
11755WAT      O35506   8.172   1.703   0.414
11755WAT     H135507   8.242   1.680   0.347
11755WAT     H235508   8.140   1.619   0.459
11756WAT      O35509   5.971   7.056   1.539
11756WAT     H135510   5.966   7.103   1.451
11756WAT     H235511   5.915   7.105   1.606
11757WAT      O35512   9.735   0.087   1.168
11757WAT     H135513   9.764   0.115   1.077
11757WAT     H235514   9.707   0.167   1.220
11758WAT      O35515   2.599   2.241   1.156
11758WAT     H135516   2.517   2.186   1.169
11758WAT     H235517   2.612   2.301   1.235
11759WAT      O35518   5.775   9.718   9.776
11759WAT     H135519   5.747   9.812   9.754
11759WAT     H235520   5.747   9.657   9.703
11760WAT      O35521   4.102   4.401   1.754
11760WAT     H135522   4.189   4.450   1.747
11760WAT     H235523   4.119   4.303   1.767
11761WAT      O35524   0.959   9.766   7.416
11761WAT     H135525   0.958   9.709   7.334
11761WAT     H235526   0.883   9.740   7.475
11762WAT      O35527   9.039   9.021   0.207
11762WAT     H135528   9.070   9.116   0.210
11762WAT     H235529   9.088   8.968   0.276
11763WAT      O35530   2.936   4.837   7.743
11763WAT     H135531   2.950   4.764   7.676
11763WAT     H235532   2.870   4.903   7.707
11764WAT      O35533   1.370   5.017   1.972
11764WAT     H135534   1.308   5.093   1.989
11764WAT     H235535   1.448   5.049   1.918
11765WAT      O35536   2.629   5.891   1.299
11765WAT     H135537   2.604   5.835   1.378
11765WAT     H235538   2.695   5.842   1.242
11766WAT      O35539   2.807   5.739   4.621
11766WAT     H135540   2.820   5.810   4.551
11766WAT     H235541   2.810   5.781   4.712
11767WAT      O35542   1.897   3.976   4.702
11767WAT     H135543   1.804   3.943   4.717
11767WAT     H235544   1.954   3.952   4.781
11768WAT      O35545   0.064   4.664   6.112
11768WAT     H135546   0.114   4.710   6.185
11768WAT     H235547  -0.023   4.630   6.147
11769WAT      O35548   9.869   1.193   3.566
11769WAT     H135549   9.821   1.241   3.493
11769WAT     H235550   9.943   1.138   3.528
11770WAT      O35551   6.454   8.285   4.403
11770WAT     H135552   6.364   8.286   4.361
11770WAT     H235553   6.517   8.230   4.347
11771WAT      O35554   8.044   1.434   4.986
11771WAT     H135555   8.051   1.350   5.039
11771WAT     H235556   8.099   1.425   4.903
11772WAT      O35557   6.255   5.779   0.877
11772WAT     H135558   6.171   5.773   0.931
11772WAT     H235559   6.242   5.844   0.802
11773WAT      O35560   8.624   0.335   6.269
11773WAT     H135561   8.676   0.409   6.224
11773WAT     H235562   8.527   0.355   6.264
11774WAT      O35563   4.525   0.996   2.804
11774WAT     H135564   4.472   0.925   2.851
11774WAT     H235565   4.509   0.990   2.706
11775WAT      O35566   1.866   0.388   7.968
11775WAT     H135567   1.918   0.315   8.011
11775WAT     H235568   1.896   0.400   7.873
11776WAT      O35569   4.762   4.017   2.209
11776WAT     H135570   4.685   3.971   2.254
11776WAT     H235571   4.811   3.951   2.152
11777WAT      O35572   6.978   0.010   3.361
11777WAT     H135573   7.030  -0.065   3.319
11777WAT     H235574   7.023   0.097   3.341
11778WAT      O35575   7.733   7.550   7.199
11778WAT     H135576   7.667   7.617   7.234
11778WAT     H235577   7.694   7.458   7.210
11779WAT      O35578   5.828   5.437   5.493
11779WAT     H135579   5.881   5.385   5.561
11779WAT     H235580   5.874   5.432   5.405
11780WAT      O35581   9.563   7.244   5.547
11780WAT     H135582   9.605   7.271   5.460
11780WAT     H235583   9.528   7.151   5.540
11781WAT      O35584   7.822   0.552   0.332
11781WAT     H135585   7.901   0.600   0.371
11781WAT     H235586   7.853   0.482   0.268
11782WAT      O35587   2.776   6.580   9.721
11782WAT     H135588   2.690   6.555   9.676
11782WAT     H235589   2.755   6.627   9.807
11783WAT      O35590   2.670   8.290   6.469
11783WAT     H135591   2.713   8.205   6.438
11783WAT     H235592   2.741   8.355   6.495
11784WAT      O35593   9.660   3.038   0.004
11784WAT     H135594   9.714   3.122  -0.003
11784WAT     H235595   9.678   2.993   0.091
11785WAT      O35596   4.824   5.780   2.731
11785WAT     H135597   4.803   5.775   2.633
11785WAT     H235598   4.858   5.872   2.752
11786WAT      O35599   3.015   0.517   2.377
11786WAT     H135600   2.935   0.499   2.320
11786WAT     H235601   3.046   0.611   2.361
11787WAT      O35602   1.285   6.835   8.291
11787WAT     H135603   1.312   6.798   8.202
11787WAT     H235604   1.364   6.875   8.336
11788WAT      O35605   5.980   9.513   3.656
11788WAT     H135606   6.016   9.595   3.612
11788WAT     H235607   5.905   9.538   3.717
11789WAT      O35608   1.847   7.025   4.549
11789WAT     H135609   1.881   6.976   4.629
11789WAT     H235610   1.904   7.001   4.470
11790WAT      O35611   9.306   3.552   4.708
11790WAT     H135612   9.258   3.522   4.790
11790WAT     H235613   9.298   3.651   4.699
11791WAT      O35614   1.985   3.826   1.199
11791WAT     H135615   2.038   3.855   1.279
11791WAT     H235616   1.992   3.727   1.189
11792WAT      O35617   0.536   7.536   6.662
11792WAT     H135618   0.622   7.507   6.704
11792WAT     H235619   0.539   7.519   6.563
11793WAT      O35620   2.711   3.068   4.105
11793WAT     H135621   2.710   2.970   4.125
11793WAT     H235622   2.686   3.118   4.188
11794WAT      O35623   3.512   0.713   4.760
11794WAT     H135624   3.423   0.667   4.761
11794WAT     H235625   3.529   0.755   4.848
11795WAT      O35626   0.918   1.394   1.926
11795WAT     H135627   0.825   1.379   1.891
11795WAT     H235628   0.981   1.405   1.849
11796WAT      O35629   4.346   4.434   1.498
11796WAT     H135630   4.376   4.487   1.577
11796WAT     H235631   4.253   4.401   1.514
11797WAT      O35632   8.593   3.698   3.610
11797WAT     H135633   8.611   3.797   3.613
11797WAT     H235634   8.659   3.654   3.549
11798WAT      O35635   3.583   4.701   3.463
11798WAT     H135636   3.499   4.743   3.430
11798WAT     H235637   3.564   4.608   3.494
11799WAT      O35638   2.923   1.078   7.446
11799WAT     H135639   2.967   1.015   7.382
11799WAT     H235640   2.989   1.146   7.477
11800WAT      O35641   3.530   3.387   6.958
11800WAT     H135642   3.589   3.329   6.902
11800WAT     H235643   3.565   3.392   7.051
11801WAT      O35644   8.244   2.997   4.392
11801WAT     H135645   8.262   3.043   4.479
11801WAT     H235646   8.276   2.903   4.396
11802WAT      O35647   8.864   6.966   2.928
11802WAT     H135648   8.876   6.900   3.001
11802WAT     H235649   8.783   7.022   2.946
11803WAT      O35650   6.255   6.063   3.390
11803WAT     H135651   6.330   6.075   3.324
11803WAT     H235652   6.210   6.151   3.406
11804WAT      O35653   0.660   4.752   8.667
11804WAT     H135654   0.605   4.723   8.588
11804WAT     H235655   0.630   4.842   8.696
11805WAT      O35656   8.135   7.595   3.744
11805WAT     H135657   8.197   7.673   3.751
11805WAT     H235658   8.181   7.521   3.694
11806WAT      O35659   1.341   7.114   3.107
11806WAT     H135660   1.437   7.106   3.080
11806WAT     H235661   1.291   7.165   3.038
11807WAT      O35662   6.247   2.153   8.704
11807WAT     H135663   6.326   2.213   8.712
11807WAT     H235664   6.236   2.125   8.608
11808WAT      O35665   7.652   7.693   4.621
11808WAT     H135666   7.705   7.623   4.670
11808WAT     H235667   7.593   7.649   4.554
11809WAT      O35668   5.205   2.283   3.182
11809WAT     H135669   5.206   2.305   3.279
11809WAT     H235670   5.298   2.284   3.146
11810WAT      O35671   6.782   1.517   8.931
11810WAT     H135672   6.815   1.455   9.003
11810WAT     H235673   6.683   1.506   8.922
11811WAT      O35674   3.287   8.997   0.734
11811WAT     H135675   3.351   8.953   0.671
11811WAT     H235676   3.282   9.094   0.714
11812WAT      O35677   1.383   2.405   2.817
11812WAT     H135678   1.383   2.351   2.900
11812WAT     H235679   1.425   2.353   2.742
11813WAT      O35680   7.646   3.406   0.126
11813WAT     H135681   7.553   3.388   0.094
11813WAT     H235682   7.694   3.319   0.140
11814WAT      O35683   5.700   7.945   5.143
11814WAT     H135684   5.762   7.913   5.215
11814WAT     H235685   5.609   7.959   5.182
11815WAT      O35686   1.075   3.459   4.048
11815WAT     H135687   1.019   3.380   4.027
11815WAT     H235688   1.152   3.465   3.984
11816WAT      O35689   2.375   3.737   4.754
11816WAT     H135690   2.320   3.672   4.807
11816WAT     H235691   2.441   3.781   4.815
11817WAT      O35692   7.708   5.000   0.119
11817WAT     H135693   7.610   4.991   0.101
11817WAT     H235694   7.722   5.046   0.206
11818WAT      O35695   9.571   0.908   3.313
11818WAT     H135696   9.502   0.970   3.351
11818WAT     H235697   9.646   0.961   3.273
11819WAT      O35698   9.221   0.397   6.733
11819WAT     H135699   9.142   0.449   6.700
11819WAT     H235700   9.295   0.460   6.756
11820WAT      O35701   8.544   9.064   7.290
11820WAT     H135702   8.576   8.981   7.336
11820WAT     H235703   8.597   9.078   7.206
11821WAT      O35704   3.597   5.353   3.698
11821WAT     H135705   3.655   5.362   3.779
11821WAT     H235706   3.644   5.392   3.618
11822WAT      O35707   2.023   7.166   5.162
11822WAT     H135708   1.943   7.129   5.114
11822WAT     H235709   2.093   7.094   5.169
11823WAT      O35710   8.529   9.832   6.640
11823WAT     H135711   8.499   9.861   6.549
11823WAT     H235712   8.450   9.802   6.693
11824WAT      O35713   9.328   7.104   1.117
11824WAT     H135714   9.295   7.074   1.206
11824WAT     H235715   9.419   7.065   1.100
11825WAT      O35716   2.907   6.836   6.509
11825WAT     H135717   2.965   6.898   6.563
11825WAT     H235718   2.935   6.742   6.524
11826WAT      O35719   0.261   3.042   6.099
11826WAT     H135720   0.359   3.033   6.081
11826WAT     H235721   0.222   2.951   6.115
11827WAT      O35722   0.981   2.008   4.283
11827WAT     H135723   0.925   1.925   4.282
11827WAT     H235724   0.933   2.081   4.233
11828WAT      O35725   7.781   4.464   3.898
11828WAT     H135726   7.859   4.483   3.838
11828WAT     H235727   7.794   4.512   3.985
11829WAT      O35728   3.840   2.408   2.511
11829WAT     H135729   3.751   2.445   2.536
11829WAT     H235730   3.851   2.317   2.550
11830WAT      O35731   7.947   7.143   0.273
11830WAT     H135732   7.935   7.067   0.210
11830WAT     H235733   8.044   7.152   0.296
11831WAT      O35734   9.706   5.251   4.731
11831WAT     H135735   9.654   5.279   4.650
11831WAT     H235736   9.724   5.152   4.726
11832WAT      O35737   4.727   7.024   5.406
11832WAT     H135738   4.662   7.071   5.466
11832WAT     H235739   4.820   7.041   5.439
11833WAT      O35740   0.528   4.739   7.040
11833WAT     H135741   0.484   4.810   7.095
11833WAT     H235742   0.548   4.660   7.098
11834WAT      O35743   7.603   2.395   8.516
11834WAT     H135744   7.689   2.437   8.544
11834WAT     H235745   7.619   2.299   8.491
11835WAT      O35746   1.815   2.896   6.456
11835WAT     H135747   1.827   2.903   6.555
11835WAT     H235748   1.784   2.804   6.433
11836WAT      O35749   9.598   8.932   4.405
11836WAT     H135750   9.544   9.007   4.443
11836WAT     H235751   9.612   8.947   4.307
11837WAT      O35752   6.161   6.688   6.951
11837WAT     H135753   6.119   6.597   6.957
11837WAT     H235754   6.170   6.715   6.855
11838WAT      O35755   7.236   1.726   7.934
11838WAT     H135756   7.236   1.821   7.966
11838WAT     H235757   7.182   1.720   7.850
11839WAT      O35758   9.793   0.728   5.295
11839WAT     H135759   9.713   0.736   5.236
11839WAT     H235760   9.805   0.814   5.346
11840WAT      O35761   7.305   4.656   0.751
11840WAT     H135762   7.313   4.745   0.705
11840WAT     H235763   7.323   4.668   0.849
11841WAT      O35764   6.748   0.863   3.625
11841WAT     H135765   6.761   0.953   3.583
11841WAT     H235766   6.678   0.870   3.696
11842WAT      O35767   6.090   4.665   6.537
11842WAT     H135768   6.045   4.744   6.495
11842WAT     H235769   6.143   4.617   6.467
11843WAT      O35770   9.410   4.866   6.475
11843WAT     H135771   9.464   4.943   6.440
11843WAT     H235772   9.472   4.794   6.507
11844WAT      O35773   6.045   8.023   8.109
11844WAT     H135774   6.044   8.118   8.138
11844WAT     H235775   5.951   7.989   8.101
11845WAT      O35776   9.352   0.017   6.997
11845WAT     H135777   9.306  -0.024   7.076
11845WAT     H235778   9.284   0.042   6.928
11846WAT      O35779   0.556   4.747   2.364
11846WAT     H135780   0.634   4.785   2.414
11846WAT     H235781   0.555   4.648   2.376
11847WAT      O35782   9.667   0.171   7.467
11847WAT     H135783   9.746   0.158   7.527
11847WAT     H235784   9.584   0.182   7.522
11848WAT      O35785   6.077   8.074   4.707
11848WAT     H135786   6.006   8.132   4.668
11848WAT     H235787   6.050   8.043   4.798
11849WAT      O35788   8.168   4.079   4.860
11849WAT     H135789   8.112   4.008   4.819
11849WAT     H235790   8.189   4.149   4.791
11850WAT      O35791   4.900   0.507   5.371
11850WAT     H135792   4.849   0.427   5.339
11850WAT     H235793   4.866   0.589   5.326
11851WAT      O35794   4.828   4.666   6.102
11851WAT     H135795   4.754   4.722   6.063
11851WAT     H235796   4.895   4.726   6.146
11852WAT      O35797   1.666   9.731   5.604
11852WAT     H135798   1.732   9.757   5.674
11852WAT     H235799   1.685   9.782   5.520
11853WAT      O35800   5.155   7.831   8.510
11853WAT     H135801   5.087   7.880   8.564
11853WAT     H235802   5.144   7.732   8.524
11854WAT      O35803   4.275   8.123   0.642
11854WAT     H135804   4.251   8.118   0.545
11854WAT     H235805   4.339   8.198   0.657
11855WAT      O35806   4.996   5.769   5.568
11855WAT     H135807   4.910   5.719   5.561
11855WAT     H235808   5.029   5.766   5.663
11856WAT      O35809   8.709   2.715   2.063
11856WAT     H135810   8.752   2.635   2.104
11856WAT     H235811   8.671   2.774   2.135
11857WAT      O35812   1.742   4.313   7.253
11857WAT     H135813   1.674   4.262   7.199
11857WAT     H235814   1.773   4.393   7.201
11858WAT      O35815   8.575   6.151   9.271
11858WAT     H135816   8.612   6.200   9.350
11858WAT     H235817   8.650   6.114   9.217
11859WAT      O35818   0.474   9.405   0.750
11859WAT     H135819   0.499   9.463   0.827
11859WAT     H235820   0.486   9.455   0.665
11860WAT      O35821   3.189   1.718   0.087
11860WAT     H135822   3.091   1.697   0.084
11860WAT     H235823   3.201   1.815   0.111
11861WAT      O35824   3.575   1.558   6.058
11861WAT     H135825   3.576   1.656   6.040
11861WAT     H235826   3.657   1.516   6.019
11862WAT      O35827   5.358   6.170   3.615
11862WAT     H135828   5.389   6.218   3.533
11862WAT     H235829   5.330   6.077   3.590
11863WAT      O35830   0.114   9.735   7.775
11863WAT     H135831   0.086   9.752   7.869
11863WAT     H235832   0.214   9.735   7.769
11864WAT      O35833   3.938   8.860   1.413
11864WAT     H135834   3.927   8.785   1.348
11864WAT     H235835   3.865   8.855   1.482
11865WAT      O35836   7.878   2.521   4.033
11865WAT     H135837   7.795   2.474   4.005
11865WAT     H235838   7.870   2.619   4.014
11866WAT      O35839   7.839   4.387   4.271
11866WAT     H135840   7.745   4.351   4.274
11866WAT     H235841   7.839   4.475   4.225
11867WAT      O35842   3.072   5.582   9.178
11867WAT     H135843   3.120   5.632   9.250
11867WAT     H235844   2.990   5.632   9.151
11868WAT      O35845   7.466   8.136   6.371
11868WAT     H135846   7.429   8.206   6.431
11868WAT     H235847   7.547   8.095   6.414
11869WAT      O35848   5.064   6.383   7.255
11869WAT     H135849   5.103   6.448   7.189
11869WAT     H235850   5.094   6.290   7.232
11870WAT      O35851   6.440   9.554   4.725
11870WAT     H135852   6.413   9.621   4.794
11870WAT     H235853   6.509   9.493   4.764
11871WAT      O35854   2.539   5.022   1.356
11871WAT     H135855   2.523   5.115   1.323
11871WAT     H235856   2.463   4.963   1.329
11872WAT      O35857   5.724   8.289   2.215
11872WAT     H135858   5.760   8.269   2.307
11872WAT     H235859   5.775   8.235   2.148
11873WAT      O35860   2.061   7.275   2.073
11873WAT     H135861   2.071   7.224   2.158
11873WAT     H235862   2.150   7.283   2.028
11874WAT      O35863   1.233   2.607   3.184
11874WAT     H135864   1.259   2.677   3.251
11874WAT     H235865   1.291   2.526   3.196
11875WAT      O35866   9.004   8.906   6.677
11875WAT     H135867   8.992   8.973   6.750
11875WAT     H235868   8.992   8.951   6.589
11876WAT      O35869   7.559   5.491   2.979
11876WAT     H135870   7.634   5.425   2.992
11876WAT     H235871   7.473   5.442   2.964
11877WAT      O35872   1.727   6.757   1.827
11877WAT     H135873   1.663   6.783   1.900
11877WAT     H235874   1.817   6.795   1.847
11878WAT      O35875   4.094   0.537   0.938
11878WAT     H135876   4.114   0.584   0.851
11878WAT     H235877   4.180   0.516   0.984
11879WAT      O35878   9.302   0.813   2.762
11879WAT     H135879   9.358   0.890   2.791
11879WAT     H235880   9.207   0.842   2.754
11880WAT      O35881   4.602   1.561   2.360
11880WAT     H135882   4.570   1.469   2.336
11880WAT     H235883   4.680   1.586   2.303
11881WAT      O35884   8.624   1.706   0.893
11881WAT     H135885   8.638   1.729   0.797
11881WAT     H235886   8.698   1.744   0.947
11882WAT      O35887   6.090   0.762   6.434
11882WAT     H135888   6.180   0.795   6.406
11882WAT     H235889   6.097   0.667   6.464
11883WAT      O35890   6.272   6.127   2.168
11883WAT     H135891   6.224   6.179   2.097
11883WAT     H235892   6.209   6.061   2.209
11884WAT      O35893   7.529   4.485   8.732
11884WAT     H135894   7.436   4.452   8.713
11884WAT     H235895   7.552   4.558   8.668
11885WAT      O35896   6.849   3.328   7.987
11885WAT     H135897   6.809   3.293   7.903
11885WAT     H235898   6.887   3.252   8.040
11886WAT      O35899   2.242   7.346   0.613
11886WAT     H135900   2.244   7.445   0.625
11886WAT     H235901   2.234   7.325   0.516
11887WAT      O35902   3.418   5.388   4.255
11887WAT     H135903   3.407   5.474   4.205
11887WAT     H235904   3.452   5.318   4.193
11888WAT      O35905   8.893   9.573   0.081
11888WAT     H135906   8.932   9.515   0.153
11888WAT     H235907   8.963   9.637   0.048
11889WAT      O35908   8.277   4.861   1.052
11889WAT     H135909   8.184   4.827   1.070
11889WAT     H235910   8.323   4.878   1.139
11890WAT      O35911   3.922   6.322   4.547
11890WAT     H135912   3.833   6.283   4.522
11890WAT     H235913   3.918   6.421   4.540
11891WAT      O35914   8.029   0.698   3.346
11891WAT     H135915   8.011   0.671   3.440
11891WAT     H235916   8.112   0.754   3.342
11892WAT      O35917   1.838   4.792   9.302
11892WAT     H135918   1.788   4.772   9.386
11892WAT     H235919   1.914   4.727   9.292
11893WAT      O35920   4.358   2.440   0.577
11893WAT     H135921   4.339   2.531   0.539
11893WAT     H235922   4.398   2.382   0.506
11894WAT      O35923   1.094   0.916   9.787
11894WAT     H135924   1.014   0.959   9.745
11894WAT     H235925   1.067   0.878   9.876
11895WAT      O35926   3.732   0.770   0.089
11895WAT     H135927   3.641   0.789   0.127
11895WAT     H235928   3.792   0.848   0.104
11896WAT      O35929   8.957   0.914   6.857
11896WAT     H135930   9.047   0.951   6.876
11896WAT     H235931   8.904   0.908   6.941
11897WAT      O35932   0.796   3.273   6.095
11897WAT     H135933   0.737   3.231   6.165
11897WAT     H235934   0.856   3.339   6.139
11898WAT      O35935   7.103   1.856   8.347
11898WAT     H135936   7.134   1.771   8.388
11898WAT     H235937   7.063   1.837   8.257
11899WAT      O35938   2.825   3.045   1.214
11899WAT     H135939   2.813   2.965   1.272
11899WAT     H235940   2.757   3.044   1.141
11900WAT      O35941   2.802   9.816   5.907
11900WAT     H135942   2.806   9.870   5.823
11900WAT     H235943   2.716   9.836   5.955
11901WAT      O35944   2.151   0.107   1.197
11901WAT     H135945   2.234   0.112   1.142
11901WAT     H235946   2.161   0.164   1.279
11902WAT      O35947   5.079   7.704   5.213
11902WAT     H135948   5.099   7.754   5.129
11902WAT     H235949   5.137   7.623   5.219
11903WAT      O35950   8.345   9.104   8.474
11903WAT     H135951   8.325   9.032   8.541
11903WAT     H235952   8.427   9.079   8.422
11904WAT      O35953   4.280   4.149   4.648
11904WAT     H135954   4.379   4.150   4.637
11904WAT     H235955   4.246   4.055   4.642
11905WAT      O35956   9.070   3.260   7.063
11905WAT     H135957   9.022   3.266   6.975
11905WAT     H235958   9.168   3.257   7.047
11906WAT      O35959   6.257   5.123   6.905
11906WAT     H135960   6.252   5.031   6.866
11906WAT     H235961   6.334   5.129   6.969
11907WAT      O35962   2.616   3.427   5.423
11907WAT     H135963   2.693   3.411   5.485
11907WAT     H235964   2.624   3.518   5.382
11908WAT      O35965   5.604   7.149   3.329
11908WAT     H135966   5.567   7.242   3.337
11908WAT     H235967   5.542   7.093   3.274
11909WAT      O35968   8.130   2.259   0.916
11909WAT     H135969   8.126   2.169   0.958
11909WAT     H235970   8.164   2.251   0.822
11910WAT      O35971   8.151   6.001   9.327
11910WAT     H135972   8.147   6.049   9.415
11910WAT     H235973   8.161   5.903   9.343
11911WAT      O35974   7.894   7.253   1.660
11911WAT     H135975   7.966   7.282   1.723
11911WAT     H235976   7.928   7.178   1.603
11912WAT      O35977   1.398   6.487   1.955
11912WAT     H135978   1.454   6.527   1.881
11912WAT     H235979   1.326   6.432   1.915
11913WAT      O35980   3.713   7.041   5.103
11913WAT     H135981   3.685   7.098   5.026
11913WAT     H235982   3.795   7.081   5.145
11914WAT      O35983   3.768   7.548   9.800
11914WAT     H135984   3.720   7.496   9.870
11914WAT     H235985   3.730   7.641   9.795
11915WAT      O35986   0.269   4.867   8.447
11915WAT     H135987   0.231   4.907   8.530
11915WAT     H235988   0.316   4.938   8.395
11916WAT      O35989   4.399   6.188   6.535
11916WAT     H135990   4.457   6.200   6.615
11916WAT     H235991   4.345   6.105   6.545
11917WAT      O35992   0.009   4.624   6.540
11917WAT     H135993   0.036   4.684   6.465
11917WAT     H235994   0.048   4.657   6.626
11918WAT      O35995   0.757   4.711   6.241
11918WAT     H135996   0.714   4.729   6.330
11918WAT     H235997   0.791   4.617   6.239
11919WAT      O35998   7.632   0.395   5.262
11919WAT     H135999   7.714   0.354   5.223
11919WAT     H236000   7.564   0.410   5.190
11920WAT      O36001   0.982   4.131   5.687
11920WAT     H136002   0.989   4.091   5.596
11920WAT     H236003   1.069   4.174   5.712
11921WAT      O36004   4.714   1.480   6.421
11921WAT     H136005   4.690   1.476   6.518
11921WAT     H236006   4.786   1.414   6.402
11922WAT      O36007   2.811   1.981   4.409
11922WAT     H136008   2.874   2.057   4.422
11922WAT     H236009   2.730   2.013   4.361
11923WAT      O36010   3.376   9.309   8.055
11923WAT     H136011   3.339   9.402   8.063
11923WAT     H236012   3.301   9.244   8.050
11924WAT      O36013   9.363   3.347   7.135
11924WAT     H136014   9.340   3.426   7.191
11924WAT     H236015   9.462   3.337   7.129
11925WAT      O36016   8.124   9.096   7.551
11925WAT     H136017   8.187   9.172   7.561
11925WAT     H236018   8.127   9.038   7.632
11926WAT      O36019   6.725   8.822   2.336
11926WAT     H136020   6.778   8.766   2.400
11926WAT     H236021   6.733   8.784   2.244
11927WAT      O36022   2.921   1.526   5.971
11927WAT     H136023   2.825   1.552   5.958
11927WAT     H236024   2.953   1.563   6.058
11928WAT      O36025   6.982   8.641   8.889
11928WAT     H136026   6.952   8.594   8.972
11928WAT     H236027   7.044   8.716   8.914
11929WAT      O36028   1.109   5.172   5.503
11929WAT     H136029   1.168   5.216   5.435
11929WAT     H236030   1.024   5.142   5.459
11930WAT      O36031   6.142   1.178   9.505
11930WAT     H136032   6.213   1.227   9.454
11930WAT     H236033   6.055   1.227   9.497
11931WAT      O36034   2.745   0.434   2.986
11931WAT     H136035   2.786   0.522   2.962
11931WAT     H236036   2.760   0.368   2.912
11932WAT      O36037   8.227   2.046   4.013
11932WAT     H136038   8.210   2.019   4.108
11932WAT     H236039   8.291   2.123   4.011
11933WAT      O36040   4.946   4.445   2.378
11933WAT     H136041   4.848   4.463   2.368
11933WAT     H236042   4.962   4.347   2.388
11934WAT      O36043   8.222   6.438   5.911
11934WAT     H136044   8.185   6.348   5.933
11934WAT     H236045   8.321   6.439   5.929
11935WAT      O36046   7.503   4.897   1.042
11935WAT     H136047   7.522   4.956   0.963
11935WAT     H236048   7.416   4.849   1.027
11936WAT      O36049   0.914   4.757   4.073
11936WAT     H136050   0.906   4.677   4.013
11936WAT     H236051   1.001   4.753   4.123
11937WAT      O36052   4.685   0.773   6.238
11937WAT     H136053   4.596   0.764   6.194
11937WAT     H236054   4.683   0.727   6.327
11938WAT      O36055   2.975   2.275   5.415
11938WAT     H136056   3.014   2.262   5.324
11938WAT     H236057   2.898   2.339   5.410
11939WAT      O36058   6.578   0.963   4.704
11939WAT     H136059   6.580   1.062   4.715
11939WAT     H236060   6.552   0.920   4.791
11940WAT      O36061   3.275   4.175   6.999
11940WAT     H136062   3.275   4.250   7.064
11940WAT     H236063   3.291   4.089   7.047
11941WAT      O36064   5.598   7.789   2.988
11941WAT     H136065   5.671   7.857   2.996
11941WAT     H236066   5.515   7.824   3.032
11942WAT      O36067   8.172   1.741   8.058
11942WAT     H136068   8.259   1.763   8.103
11942WAT     H236069   8.190   1.720   7.962
11943WAT      O36070   7.023   4.864   0.181
11943WAT     H136071   7.008   4.954   0.141
11943WAT     H236072   7.004   4.793   0.113
11944WAT      O36073   5.474   1.261   0.586
11944WAT     H136074   5.441   1.355   0.579
11944WAT     H236075   5.447   1.223   0.675
11945WAT      O36076   9.538   9.830   5.540
11945WAT     H136077   9.516   9.868   5.630
11945WAT     H236078   9.521   9.899   5.470
11946WAT      O36079   6.663   8.372   7.797
11946WAT     H136080   6.736   8.420   7.845
11946WAT     H236081   6.677   8.378   7.698
11947WAT      O36082   0.297   4.337   2.080
11947WAT     H136083   0.340   4.367   1.996
11947WAT     H236084   0.198   4.355   2.075
11948WAT      O36085   9.155   1.549   1.785
11948WAT     H136086   9.090   1.532   1.711
11948WAT     H236087   9.111   1.604   1.855
11949WAT      O36088   5.048   1.848   1.589
11949WAT     H136089   5.107   1.891   1.657
11949WAT     H236090   4.955   1.885   1.597
11950WAT      O36091   7.308   7.893   9.627
11950WAT     H136092   7.299   7.931   9.534
11950WAT     H236093   7.218   7.888   9.669
11951WAT      O36094   3.207   1.519   1.283
11951WAT     H136095   3.229   1.605   1.329
11951WAT     H236096   3.127   1.532   1.225
11952WAT      O36097   3.699   8.379   5.675
11952WAT     H136098   3.747   8.327   5.605
11952WAT     H236099   3.705   8.331   5.763
11953WAT      O36100   6.055   3.692   8.872
11953WAT     H136101   6.133   3.751   8.895
11953WAT     H236102   5.971   3.745   8.875
11954WAT      O36103   0.004   6.894   6.866
11954WAT     H136104   0.095   6.901   6.906
11954WAT     H236105  -0.026   6.799   6.868
11955WAT      O36106   2.293   9.765   9.175
11955WAT     H136107   2.310   9.667   9.171
11955WAT     H236108   2.336   9.809   9.096
11956WAT      O36109   4.035   6.752   5.657
11956WAT     H136110   3.955   6.721   5.707
11956WAT     H236111   4.085   6.673   5.623
11957WAT      O36112   2.624   9.185   3.630
11957WAT     H136113   2.625   9.280   3.598
11957WAT     H236114   2.629   9.184   3.730
11958WAT      O36115   5.943   4.759   2.564
11958WAT     H136116   5.994   4.737   2.647
11958WAT     H236117   5.951   4.857   2.545
11959WAT      O36118   5.674   1.293   6.487
11959WAT     H136119   5.636   1.319   6.575
11959WAT     H236120   5.771   1.317   6.484
11960WAT      O36121   7.578   6.809   2.695
11960WAT     H136122   7.573   6.712   2.721
11960WAT     H236123   7.646   6.820   2.622
11961WAT      O36124   8.453   0.860   5.451
11961WAT     H136125   8.355   0.859   5.472
11961WAT     H236126   8.471   0.923   5.376
11962WAT      O36127   1.529   1.282   4.047
11962WAT     H136128   1.601   1.290   3.978
11962WAT     H236129   1.530   1.362   4.107
11963WAT      O36130   1.198   7.086   7.708
11963WAT     H136131   1.132   7.081   7.633
11963WAT     H236132   1.274   7.024   7.690
11964WAT      O36133   3.014   8.359   0.701
11964WAT     H136134   2.919   8.342   0.675
11964WAT     H236135   3.028   8.456   0.719
11965WAT      O36136   8.421   9.260   8.837
11965WAT     H136137   8.443   9.173   8.881
11965WAT     H236138   8.434   9.252   8.738
11966WAT      O36139   6.331   0.142   5.454
11966WAT     H136140   6.358   0.167   5.547
11966WAT     H236141   6.260   0.205   5.422
11967WAT      O36142   6.291   9.204   8.793
11967WAT     H136143   6.359   9.274   8.817
11967WAT     H236144   6.327   9.114   8.818
11968WAT      O36145   3.436   3.885   1.745
11968WAT     H136146   3.468   3.852   1.834
11968WAT     H236147   3.395   3.809   1.694
11969WAT      O36148   9.427   6.827   8.350
11969WAT     H136149   9.334   6.796   8.330
11969WAT     H236150   9.435   6.924   8.330
11970WAT      O36151   6.773   3.908   2.195
11970WAT     H136152   6.717   3.833   2.229
11970WAT     H236153   6.817   3.955   2.272
11971WAT      O36154   9.646   7.352   5.310
11971WAT     H136155   9.685   7.329   5.221
11971WAT     H236156   9.601   7.441   5.305
11972WAT      O36157   5.535   3.236   7.979
11972WAT     H136158   5.624   3.201   7.950
11972WAT     H236159   5.474   3.241   7.900
11973WAT      O36160   1.916   9.560   8.019
11973WAT     H136161   1.835   9.539   8.074
11973WAT     H236162   1.936   9.484   7.958
11974WAT      O36163   9.490   7.470   2.773
11974WAT     H136164   9.584   7.468   2.809
11974WAT     H236165   9.457   7.376   2.763
11975WAT      O36166   1.572   3.497   5.173
11975WAT     H136167   1.540   3.592   5.171
11975WAT     H236168   1.606   3.471   5.083
11976WAT      O36169   3.738   8.855   5.651
11976WAT     H136170   3.684   8.933   5.685
11976WAT     H236171   3.826   8.854   5.698
11977WAT      O36172   7.044   1.059   1.462
11977WAT     H136173   7.144   1.059   1.461
11977WAT     H236174   7.011   1.152   1.442
11978WAT      O36175   3.646   6.165   5.466
11978WAT     H136176   3.685   6.100   5.531
11978WAT     H236177   3.704   6.169   5.384
11979WAT      O36178   3.784   7.760   3.251
11979WAT     H136179   3.882   7.776   3.261
11979WAT     H236180   3.767   7.661   3.244
11980WAT      O36181   3.014   4.302   7.627
11980WAT     H136182   3.102   4.280   7.584
11980WAT     H236183   2.943   4.309   7.557
11981WAT      O36184   0.982   5.000   5.880
11981WAT     H136185   0.945   4.937   5.948
11981WAT     H236186   0.930   4.993   5.795
11982WAT      O36187   0.016   5.552   1.210
11982WAT     H136188   0.046   5.647   1.205
11982WAT     H236189   0.025   5.519   1.304
11983WAT      O36190   3.344   4.938   3.750
11983WAT     H136191   3.261   4.956   3.698
11983WAT     H236192   3.382   5.023   3.784
11984WAT      O36193   2.969   1.172   2.870
11984WAT     H136194   2.920   1.116   2.804
11984WAT     H236195   2.936   1.151   2.962
11985WAT      O36196   5.012   4.246   3.336
11985WAT     H136197   5.054   4.165   3.294
11985WAT     H236198   5.023   4.324   3.274
11986WAT      O36199   7.674   7.244   7.534
11986WAT     H136200   7.667   7.341   7.557
11986WAT     H236201   7.713   7.194   7.612
11987WAT      O36202   8.136   7.299   9.765
11987WAT     H136203   8.202   7.369   9.738
11987WAT     H236204   8.147   7.278   9.862
11988WAT      O36205   7.756   8.751   8.195
11988WAT     H136206   7.701   8.756   8.112
11988WAT     H236207   7.702   8.713   8.270
11989WAT      O36208   9.692   7.814   9.469
11989WAT     H136209   9.686   7.793   9.566
11989WAT     H236210   9.788   7.816   9.440
11990WAT      O36211   1.909   6.472   0.106
11990WAT     H136212   1.946   6.510   0.190
11990WAT     H236213   1.818   6.508   0.090
11991WAT      O36214   0.437   0.197   7.507
11991WAT     H136215   0.389   0.273   7.550
11991WAT     H236216   0.532   0.222   7.489
11992WAT      O36217   7.298   5.534   8.418
11992WAT     H136218   7.314   5.517   8.321
11992WAT     H236219   7.377   5.582   8.456
11993WAT      O36220   1.755   5.954   4.968
11993WAT     H136221   1.732   6.013   4.890
11993WAT     H236222   1.829   5.892   4.942
11994WAT      O36223   9.626   3.352   7.131
11994WAT     H136224   9.623   3.285   7.205
11994WAT     H236225   9.637   3.443   7.169
11995WAT      O36226   4.431   7.033   4.014
11995WAT     H136227   4.377   6.980   3.948
11995WAT     H236228   4.495   7.091   3.965
11996WAT      O36229   2.055   3.184   4.603
11996WAT     H136230   2.065   3.090   4.571
11996WAT     H236231   2.109   3.245   4.546
11997WAT      O36232   0.772   2.377   1.781
11997WAT     H136233   0.750   2.319   1.860
11997WAT     H236234   0.844   2.442   1.807
11998WAT      O36235   7.647   1.451   0.755
11998WAT     H136236   7.607   1.359   0.762
11998WAT     H236237   7.581   1.512   0.711
11999WAT      O36238   1.119   4.158   8.754
11999WAT     H136239   1.218   4.171   8.758
11999WAT     H236240   1.076   4.240   8.718
12000WAT      O36241   1.386   4.080   7.314
12000WAT     H136242   1.367   4.160   7.370
12000WAT     H236243   1.321   4.076   7.238
12001WAT      O36244   1.322   1.511   6.237
12001WAT     H136245   1.325   1.415   6.265
12001WAT     H236246   1.380   1.523   6.156
12002WAT      O36247   5.464   4.833   2.714
12002WAT     H136248   5.508   4.915   2.677
12002WAT     H236249   5.482   4.756   2.653
12003WAT      O36250   8.871   4.830   8.669
12003WAT     H136251   8.916   4.753   8.714
12003WAT     H236252   8.777   4.806   8.645
12004WAT      O36253   5.139   9.581   5.243
12004WAT     H136254   5.073   9.547   5.176
12004WAT     H236255   5.151   9.679   5.232
12005WAT      O36256   2.277   8.148   6.506
12005WAT     H136257   2.287   8.246   6.491
12005WAT     H236258   2.291   8.127   6.602
12006WAT      O36259   7.224   3.339   7.401
12006WAT     H136260   7.145   3.301   7.451
12006WAT     H236261   7.279   3.265   7.364
12007WAT      O36262   6.162   7.059   8.766
12007WAT     H136263   6.210   7.016   8.689
12007WAT     H236264   6.086   7.114   8.732
12008WAT      O36265   0.838   5.594   8.816
12008WAT     H136266   0.819   5.503   8.850
12008WAT     H236267   0.758   5.653   8.830
12009WAT      O36268   3.583   5.447   7.473
12009WAT     H136269   3.553   5.408   7.560
12009WAT     H236270   3.656   5.514   7.489
12010WAT      O36271   9.697   2.900   6.162
12010WAT     H136272   9.623   2.884   6.097
12010WAT     H236273   9.707   2.999   6.176
12011WAT      O36274   3.076   2.773   4.644
12011WAT     H136275   3.011   2.814   4.580
12011WAT     H236276   3.135   2.844   4.681
12012WAT      O36277   1.570   0.968   5.843
12012WAT     H136278   1.643   1.018   5.795
12012WAT     H236279   1.553   0.882   5.795
12013WAT      O36280   1.745   8.176   9.183
12013WAT     H136281   1.708   8.265   9.207
12013WAT     H236282   1.770   8.126   9.266
12014WAT      O36283   1.769   3.108   9.424
12014WAT     H136284   1.694   3.174   9.423
12014WAT     H236285   1.856   3.157   9.423
12015WAT      O36286   0.758   4.622   3.618
12015WAT     H136287   0.804   4.533   3.623
12015WAT     H236288   0.708   4.638   3.703
12016WAT      O36289   7.882   1.630   4.858
12016WAT     H136290   7.805   1.567   4.853
12016WAT     H236291   7.956   1.590   4.911
12017WAT      O36292   1.731   4.161   2.000
12017WAT     H136293   1.667   4.085   2.011
12017WAT     H236294   1.783   4.148   1.916
12018WAT      O36295   8.071   6.180   2.990
12018WAT     H136296   8.023   6.093   3.001
12018WAT     H236297   8.078   6.203   2.893
12019WAT      O36298   4.685   5.069   9.219
12019WAT     H136299   4.626   5.140   9.257
12019WAT     H236300   4.630   4.994   9.183
12020WAT      O36301   6.637   0.011   2.094
12020WAT     H136302   6.680   0.016   2.003
12020WAT     H236303   6.668  -0.071   2.141
12021WAT      O36304   7.184   7.012   7.120
12021WAT     H136305   7.166   7.110   7.132
12021WAT     H236306   7.254   6.983   7.185
12022WAT      O36307   1.110   5.292   9.070
12022WAT     H136308   1.148   5.340   8.992
12022WAT     H236309   1.040   5.349   9.114
12023WAT      O36310   6.800   5.425   5.810
12023WAT     H136311   6.860   5.455   5.885
12023WAT     H236312   6.724   5.488   5.801
12024WAT      O36313   6.299   1.974   3.928
12024WAT     H136314   6.229   1.947   3.862
12024WAT     H236315   6.267   2.053   3.980
12025WAT      O36316   1.328   3.334   0.083
12025WAT     H136317   1.327   3.254   0.024
12025WAT     H236318   1.291   3.309   0.173
12026WAT      O36319   6.356   6.043   5.403
12026WAT     H136320   6.276   6.052   5.345
12026WAT     H236321   6.437   6.026   5.347
12027WAT      O36322   6.453   7.702   7.896
12027WAT     H136323   6.542   7.719   7.854
12027WAT     H236324   6.399   7.786   7.894
12028WAT      O36325   5.985   3.666   5.929
12028WAT     H136326   5.988   3.645   5.831
12028WAT     H236327   6.033   3.752   5.947
12029WAT      O36328   3.045   0.780   8.394
12029WAT     H136329   2.984   0.714   8.437
12029WAT     H236330   3.140   0.755   8.413
12030WAT      O36331   3.379   4.498   1.484
12030WAT     H136332   3.432   4.418   1.457
12030WAT     H236333   3.412   4.578   1.433
12031WAT      O36334   0.419   2.394   8.314
12031WAT     H136335   0.348   2.401   8.384
12031WAT     H236336   0.505   2.430   8.351
12032WAT      O36337   8.994   0.399   9.171
12032WAT     H136338   9.012   0.397   9.073
12032WAT     H236339   9.010   0.308   9.210
12033WAT      O36340   7.651   4.977   4.007
12033WAT     H136341   7.699   5.019   4.084
12033WAT     H236342   7.691   5.010   3.921
12034WAT      O36343   2.465   6.488   7.458
12034WAT     H136344   2.410   6.550   7.515
12034WAT     H236345   2.407   6.446   7.389
12035WAT      O36346   6.398   9.761   6.294
12035WAT     H136347   6.464   9.831   6.269
12035WAT     H236348   6.367   9.777   6.388
12036WAT      O36349   3.379   5.985   1.419
12036WAT     H136350   3.413   6.064   1.367
12036WAT     H236351   3.301   5.945   1.372
12037WAT      O36352   8.010   9.695   6.681
12037WAT     H136353   7.999   9.674   6.778
12037WAT     H236354   7.947   9.768   6.655
12038WAT      O36355   9.024   5.911   3.587
12038WAT     H136356   8.969   5.992   3.566
12038WAT     H236357   9.080   5.887   3.508
12039WAT      O36358   3.524   9.146   9.859
12039WAT     H136359   3.442   9.189   9.822
12039WAT     H236360   3.543   9.061   9.809
12040WAT      O36361   1.876   6.178   8.705
12040WAT     H136362   1.948   6.109   8.703
12040WAT     H236363   1.911   6.263   8.667
12041WAT      O36364   1.963   7.666   3.495
12041WAT     H136365   1.905   7.665   3.576
12041WAT     H236366   1.962   7.576   3.452
12042WAT      O36367   3.118   5.302   2.723
12042WAT     H136368   3.166   5.347   2.647
12042WAT     H236369   3.087   5.211   2.694
12043WAT      O36370   3.305   7.376   5.056
12043WAT     H136371   3.248   7.370   4.974
12043WAT     H236372   3.385   7.433   5.037
12044WAT      O36373   6.489   6.972   0.983
12044WAT     H136374   6.463   6.876   0.994
12044WAT     H236375   6.414   7.022   0.940
12045WAT      O36376   3.063   0.205   2.237
12045WAT     H136377   3.146   0.260   2.246
12045WAT     H236378   3.084   0.110   2.260
12046WAT      O36379   4.901   2.154   1.233
12046WAT     H136380   4.957   2.217   1.179
12046WAT     H236381   4.905   2.063   1.192
12047WAT      O36382   6.677   2.690   3.597
12047WAT     H136383   6.629   2.697   3.685
12047WAT     H236384   6.748   2.619   3.603
12048WAT      O36385   7.771   1.568   4.004
12048WAT     H136386   7.865   1.546   4.029
12048WAT     H236387   7.765   1.580   3.905
12049WAT      O36388   7.811   9.819   8.665
12049WAT     H136389   7.718   9.786   8.679
12049WAT     H236390   7.828   9.832   8.567
12050WAT      O36391   6.996   1.801   1.777
12050WAT     H136392   7.070   1.764   1.721
12050WAT     H236393   7.030   1.817   1.870
12051WAT      O36394   2.125   5.212   2.372
12051WAT     H136395   2.142   5.119   2.339
12051WAT     H236396   2.154   5.219   2.467
12052WAT      O36397   7.020   5.482   0.286
12052WAT     H136398   7.043   5.387   0.309
12052WAT     H236399   7.006   5.488   0.187
12053WAT      O36400   5.795   0.549   3.073
12053WAT     H136401   5.769   0.646   3.072
12053WAT     H236402   5.714   0.493   3.055
12054WAT      O36403   3.926   9.318   8.475
12054WAT     H136404   3.853   9.262   8.436
12054WAT     H236405   3.995   9.259   8.516
12055WAT      O36406   7.308   2.876   2.911
12055WAT     H136407   7.225   2.904   2.862
12055WAT     H236408   7.359   2.957   2.939
12056WAT      O36409   8.389   3.413   1.242
12056WAT     H136410   8.415   3.510   1.234
12056WAT     H236411   8.457   3.366   1.299
12057WAT      O36412   8.393   0.766   4.047
12057WAT     H136413   8.380   0.853   4.094
12057WAT     H236414   8.434   0.700   4.109
12058WAT      O36415   3.548   8.000   3.646
12058WAT     H136416   3.630   7.950   3.615
12058WAT     H236417   3.486   8.012   3.568
12059WAT      O36418   6.367   0.758   8.598
12059WAT     H136419   6.380   0.699   8.518
12059WAT     H236420   6.282   0.733   8.644
12060WAT      O36421   9.729   1.746   0.260
12060WAT     H136422   9.682   1.686   0.324
12060WAT     H236423   9.823   1.715   0.248
12061WAT      O36424   5.913   9.205   8.222
12061WAT     H136425   5.958   9.136   8.165
12061WAT     H236426   5.918   9.176   8.318
12062WAT      O36427   5.667   5.854   5.461
12062WAT     H136428   5.634   5.847   5.366
12062WAT     H236429   5.620   5.931   5.506
12063WAT      O36430   8.209   9.028   8.837
12063WAT     H136431   8.168   9.085   8.766
12063WAT     H236432   8.152   9.031   8.919
12064WAT      O36433   4.937   2.787   0.526
12064WAT     H136434   5.022   2.751   0.563
12064WAT     H236435   4.916   2.740   0.439
12065WAT      O36436   3.897   3.142   5.651
12065WAT     H136437   3.869   3.192   5.569
12065WAT     H236438   3.966   3.195   5.700
12066WAT      O36439   8.591   6.007   7.932
12066WAT     H136440   8.570   5.911   7.911
12066WAT     H236441   8.690   6.021   7.927
12067WAT      O36442   3.369   1.941   8.028
12067WAT     H136443   3.443   2.004   8.053
12067WAT     H236444   3.298   1.943   8.098
12068WAT      O36445   1.069   2.334   4.127
12068WAT     H136446   0.970   2.346   4.123
12068WAT     H236447   1.099   2.334   4.222
12069WAT      O36448   7.244   4.427   4.900
12069WAT     H136449   7.298   4.353   4.861
12069WAT     H236450   7.214   4.402   4.992
12070WAT      O36451   7.859   2.308   7.288
12070WAT     H136452   7.866   2.401   7.324
12070WAT     H236453   7.903   2.303   7.199
12071WAT      O36454   1.512   7.179   4.917
12071WAT     H136455   1.438   7.137   4.970
12071WAT     H236456   1.482   7.268   4.885
12072WAT      O36457   9.541   4.094   5.314
12072WAT     H136458   9.488   4.074   5.397
12072WAT     H236459   9.607   4.166   5.333
12073WAT      O36460   8.342   5.767   1.218
12073WAT     H136461   8.363   5.677   1.180
12073WAT     H236462   8.293   5.822   1.151
12074WAT      O36463   4.381   5.397   0.280
12074WAT     H136464   4.325   5.349   0.348
12074WAT     H236465   4.420   5.331   0.216
12075WAT      O36466   3.201   6.472   8.987
12075WAT     H136467   3.146   6.421   9.053
12075WAT     H236468   3.141   6.532   8.933
12076WAT      O36469   6.975   5.701   7.993
12076WAT     H136470   7.062   5.750   8.002
12076WAT     H236471   6.982   5.634   7.919
12077WAT      O36472   5.371   6.195   7.392
12077WAT     H136473   5.447   6.166   7.451
12077WAT     H236474   5.284   6.178   7.439
12078WAT      O36475   2.183   2.412   6.762
12078WAT     H136476   2.092   2.391   6.796
12078WAT     H236477   2.197   2.370   6.673
12079WAT      O36478   7.075   7.621   8.247
12079WAT     H136479   7.033   7.639   8.158
12079WAT     H236480   7.123   7.703   8.278
12080WAT      O36481   4.928   1.872   1.170
12080WAT     H136482   4.986   1.843   1.094
12080WAT     H236483   4.953   1.823   1.253
12081WAT      O36484   5.644   0.153   9.353
12081WAT     H136485   5.619   0.250   9.363
12081WAT     H236486   5.566   0.096   9.378
12082WAT      O36487   3.288   0.516   4.290
12082WAT     H136488   3.267   0.418   4.283
12082WAT     H236489   3.250   0.564   4.210
12083WAT      O36490   0.742   0.996   0.974
12083WAT     H136491   0.653   1.006   1.019
12083WAT     H236492   0.750   1.063   0.901
12084WAT      O36493   6.086   0.506   3.657
12084WAT     H136494   6.167   0.463   3.618
12084WAT     H236495   6.089   0.502   3.757
12085WAT      O36496   6.381   1.455   2.899
12085WAT     H136497   6.332   1.443   2.813
12085WAT     H236498   6.412   1.365   2.932
12086WAT      O36499   2.285   7.654   5.071
12086WAT     H136500   2.300   7.563   5.031
12086WAT     H236501   2.191   7.682   5.054
12087WAT      O36502   8.921   5.741   0.834
12087WAT     H136503   8.909   5.820   0.774
12087WAT     H236504   8.862   5.750   0.914
12088WAT      O36505   1.245   8.000   8.151
12088WAT     H136506   1.334   8.040   8.129
12088WAT     H236507   1.201   7.967   8.067
12089WAT      O36508   3.638   0.132   9.107
12089WAT     H136509   3.693   0.181   9.039
12089WAT     H236510   3.541   0.140   9.083
12090WAT      O36511   3.579   8.682   7.912
12090WAT     H136512   3.616   8.634   7.991
12090WAT     H236513   3.624   8.770   7.902
12091WAT      O36514   9.611   3.847   5.203
12091WAT     H136515   9.709   3.842   5.188
12091WAT     H236516   9.584   3.943   5.217
12092WAT      O36517   6.279   2.612   8.722
12092WAT     H136518   6.194   2.563   8.744
12092WAT     H236519   6.295   2.683   8.789
12093WAT      O36520   7.656   5.912   6.935
12093WAT     H136521   7.720   5.908   6.858
12093WAT     H236522   7.566   5.879   6.906
12094WAT      O36523   2.325   3.555   3.530
12094WAT     H136524   2.267   3.605   3.594
12094WAT     H236525   2.309   3.590   3.437
12095WAT      O36526   3.987   7.250   5.995
12095WAT     H136527   4.037   7.337   5.999
12095WAT     H236528   4.051   7.174   6.002
12096WAT      O36529   2.559   5.269   7.121
12096WAT     H136530   2.597   5.299   7.209
12096WAT     H236531   2.460   5.260   7.129
12097WAT      O36532   6.551   8.870   0.586
12097WAT     H136533   6.505   8.943   0.635
12097WAT     H236534   6.546   8.785   0.639
12098WAT      O36535   9.455   3.277   3.925
12098WAT     H136536   9.427   3.250   4.017
12098WAT     H236537   9.501   3.200   3.881
12099WAT      O36538   1.283   3.955   1.726
12099WAT     H136539   1.245   3.978   1.816
12099WAT     H236540   1.346   4.027   1.697
12100WAT      O36541   4.304   3.506   2.222
12100WAT     H136542   4.250   3.422   2.220
12100WAT     H236543   4.372   3.504   2.149
12101WAT      O36544   2.113   6.680   6.764
12101WAT     H136545   2.160   6.762   6.734
12101WAT     H236546   2.047   6.651   6.694
12102WAT      O36547   9.066   5.946   7.793
12102WAT     H136548   9.093   6.003   7.871
12102WAT     H236549   9.143   5.888   7.766
12103WAT      O36550   6.847   9.172   9.153
12103WAT     H136551   6.761   9.173   9.103
12103WAT     H236552   6.853   9.252   9.213
12104WAT      O36553   7.188   0.351   0.860
12104WAT     H136554   7.126   0.407   0.805
12104WAT     H236555   7.137   0.305   0.932
12105WAT      O36556   2.150   1.692   0.129
12105WAT     H136557   2.184   1.672   0.037
12105WAT     H236558   2.192   1.629   0.194
12106WAT      O36559   2.772   8.305   5.841
12106WAT     H136560   2.741   8.320   5.747
12106WAT     H236561   2.864   8.342   5.852
12107WAT      O36562   3.578   9.270   2.690
12107WAT     H136563   3.600   9.321   2.774
12107WAT     H236564   3.488   9.299   2.656
12108WAT      O36565   3.790   5.720   1.035
12108WAT     H136566   3.715   5.786   1.026
12108WAT     H236567   3.756   5.628   1.012
12109WAT      O36568   4.681   4.456   7.654
12109WAT     H136569   4.683   4.456   7.554
12109WAT     H236570   4.765   4.498   7.689
12110WAT      O36571   9.343   6.955   1.457
12110WAT     H136572   9.303   6.892   1.391
12110WAT     H236573   9.381   6.903   1.534
12111WAT      O36574   5.667   3.188   3.776
12111WAT     H136575   5.571   3.206   3.755
12111WAT     H236576   5.715   3.275   3.785
12112WAT      O36577   3.812   3.013   4.732
12112WAT     H136578   3.886   2.953   4.762
12112WAT     H236579   3.804   3.010   4.633
12113WAT      O36580   7.482   8.628   4.199
12113WAT     H136581   7.507   8.531   4.209
12113WAT     H236582   7.392   8.643   4.241
12114WAT      O36583   7.847   2.661   2.532
12114WAT     H136584   7.831   2.575   2.483
12114WAT     H236585   7.842   2.645   2.631
12115WAT      O36586   7.574   0.761   1.094
12115WAT     H136587   7.641   0.698   1.054
12115WAT     H236588   7.587   0.765   1.193
12116WAT      O36589   3.171   5.790   0.326
12116WAT     H136590   3.163   5.826   0.419
12116WAT     H236591   3.201   5.862   0.264
12117WAT      O36592   6.132   6.715   5.549
12117WAT     H136593   6.213   6.771   5.567
12117WAT     H236594   6.156   6.618   5.560
12118WAT      O36595   9.440   3.023   1.062
12118WAT     H136596   9.480   3.071   1.140
12118WAT     H236597   9.501   2.949   1.034
12119WAT      O36598   0.442   5.264   0.109
12119WAT     H136599   0.515   5.299   0.168
12119WAT     H236600   0.369   5.226   0.166
12120WAT      O36601   3.477   2.493   0.415
12120WAT     H136602   3.396   2.551   0.402
12120WAT     H236603   3.541   2.538   0.477
12121WAT      O36604   2.774   9.237   6.279
12121WAT     H136605   2.809   9.285   6.199
12121WAT     H236606   2.696   9.288   6.316
12122WAT      O36607   1.198   2.432   3.646
12122WAT     H136608   1.132   2.432   3.571
12122WAT     H236609   1.177   2.505   3.709
12123WAT      O36610   7.328   8.885   3.542
12123WAT     H136611   7.412   8.880   3.488
12123WAT     H236612   7.278   8.799   3.533
12124WAT      O36613   9.672   0.087   7.801
12124WAT     H136614   9.752   0.060   7.747
12124WAT     H236615   9.667   0.187   7.805
12125WAT      O36616   1.850   0.264   3.365
12125WAT     H136617   1.776   0.301   3.421
12125WAT     H236618   1.823   0.176   3.327
12126WAT      O36619   1.100   9.240   0.581
12126WAT     H136620   1.004   9.262   0.598
12126WAT     H236621   1.124   9.157   0.630
12127WAT      O36622   6.383   7.740   2.711
12127WAT     H136623   6.387   7.699   2.802
12127WAT     H236624   6.323   7.686   2.653
12128WAT      O36625   7.958   9.146   4.045
12128WAT     H136626   7.900   9.221   4.075
12128WAT     H236627   8.043   9.182   4.006
12129WAT      O36628   4.684   0.075   4.259
12129WAT     H136629   4.630   0.146   4.304
12129WAT     H236630   4.780   0.103   4.256
12130WAT      O36631   1.116   4.320   4.803
12130WAT     H136632   1.059   4.253   4.755
12130WAT     H236633   1.184   4.356   4.740
12131WAT      O36634   0.025   3.883   1.360
12131WAT     H136635  -0.001   3.839   1.446
12131WAT     H236636   0.029   3.982   1.373
12132WAT      O36637   0.483   0.436   0.188
12132WAT     H136638   0.486   0.389   0.100
12132WAT     H236639   0.494   0.534   0.175
12133WAT      O36640   6.125   0.374   9.323
12133WAT     H136641   6.094   0.354   9.416
12133WAT     H236642   6.153   0.289   9.278
12134WAT      O36643   5.119   5.243   4.729
12134WAT     H136644   5.217   5.256   4.713
12134WAT     H236645   5.069   5.324   4.696
12135WAT      O36646   4.309   9.179   7.920
12135WAT     H136647   4.389   9.192   7.979
12135WAT     H236648   4.309   9.247   7.848
12136WAT      O36649   6.855   2.772   7.248
12136WAT     H136650   6.882   2.705   7.316
12136WAT     H236651   6.759   2.758   7.224
12137WAT      O36652   7.461   5.270   8.173
12137WAT     H136653   7.521   5.343   8.205
12137WAT     H236654   7.516   5.198   8.129
12138WAT      O36655   7.978   7.391   6.872
12138WAT     H136656   7.954   7.361   6.779
12138WAT     H236657   7.949   7.322   6.938
12139WAT      O36658   1.872   0.728   7.581
12139WAT     H136659   1.970   0.726   7.562
12139WAT     H236660   1.857   0.742   7.679
12140WAT      O36661   6.750   5.250   2.623
12140WAT     H136662   6.842   5.222   2.596
12140WAT     H236663   6.684   5.182   2.590
12141WAT      O36664   3.574   2.498   2.558
12141WAT     H136665   3.532   2.587   2.541
12141WAT     H236666   3.515   2.444   2.617
12142WAT      O36667   8.677   6.542   3.395
12142WAT     H136668   8.687   6.564   3.492
12142WAT     H236669   8.594   6.487   3.382
12143WAT      O36670   8.918   9.517   5.509
12143WAT     H136671   8.927   9.436   5.451
12143WAT     H236672   8.835   9.510   5.563
12144WAT      O36673   2.835   6.290   3.098
12144WAT     H136674   2.925   6.321   3.128
12144WAT     H236675   2.825   6.307   3.000
12145WAT      O36676   4.909   0.628   6.140
12145WAT     H136677   4.964   0.634   6.057
12145WAT     H236678   4.845   0.705   6.144
12146WAT      O36679   3.537   2.264   8.514
12146WAT     H136680   3.518   2.196   8.586
12146WAT     H236681   3.635   2.271   8.501
12147WAT      O36682   1.153   9.471   2.391
12147WAT     H136683   1.249   9.484   2.418
12147WAT     H236684   1.132   9.527   2.311
12148WAT      O36685   4.365   6.995   5.196
12148WAT     H136686   4.286   6.972   5.139
12148WAT     H236687   4.347   7.080   5.245
12149WAT      O36688   9.773   3.845   3.649
12149WAT     H136689   9.721   3.865   3.566
12149WAT     H236690   9.784   3.928   3.702
12150WAT      O36691   8.889   7.518   1.847
12150WAT     H136692   8.836   7.499   1.930
12150WAT     H236693   8.841   7.479   1.768
12151WAT      O36694   1.848   6.512   0.845
12151WAT     H136695   1.762   6.469   0.871
12151WAT     H236696   1.880   6.571   0.919
12152WAT      O36697   0.239   0.132   8.489
12152WAT     H136698   0.315   0.197   8.479
12152WAT     H236699   0.266   0.043   8.452
12153WAT      O36700   6.678   7.340   6.155
12153WAT     H136701   6.755   7.296   6.201
12153WAT     H236702   6.594   7.289   6.173
12154WAT      O36703   4.419   8.026   6.897
12154WAT     H136704   4.426   7.994   6.803
12154WAT     H236705   4.388   7.952   6.956
12155WAT      O36706   4.411   0.273   2.231
12155WAT     H136707   4.471   0.195   2.211
12155WAT     H236708   4.383   0.270   2.327
12156WAT      O36709   6.797   4.665   1.421
12156WAT     H136710   6.752   4.576   1.414
12156WAT     H236711   6.807   4.706   1.330
12157WAT      O36712   5.609   9.170   3.554
12157WAT     H136713   5.542   9.146   3.625
12157WAT     H236714   5.700   9.170   3.594
12158WAT      O36715   1.974   1.070   5.516
12158WAT     H136716   2.041   1.120   5.572
12158WAT     H236717   1.944   1.129   5.441
12159WAT      O36718   4.888   9.259   0.819
12159WAT     H136719   4.843   9.178   0.857
12159WAT     H236720   4.961   9.230   0.757
12160WAT      O36721   2.523   6.380   7.067
12160WAT     H136722   2.493   6.360   7.160
12160WAT     H236723   2.617   6.347   7.055
12161WAT      O36724   5.843   5.044   7.929
12161WAT     H136725   5.872   5.023   8.022
12161WAT     H236726   5.845   4.960   7.874
12162WAT      O36727   8.401   7.776   5.697
12162WAT     H136728   8.447   7.843   5.756
12162WAT     H236729   8.459   7.755   5.619
12163WAT      O36730   3.277   6.660   8.538
12163WAT     H136731   3.316   6.599   8.606
12163WAT     H236732   3.343   6.676   8.465
12164WAT      O36733   9.097   3.591   9.435
12164WAT     H136734   9.055   3.535   9.507
12164WAT     H236735   9.119   3.532   9.357
12165WAT      O36736   4.802   9.345   3.523
12165WAT     H136737   4.780   9.441   3.510
12165WAT     H236738   4.753   9.290   3.456
12166WAT      O36739   0.857   6.896   6.421
12166WAT     H136740   0.876   6.980   6.371
12166WAT     H236741   0.767   6.862   6.397
12167WAT      O36742   2.205   8.361   6.215
12167WAT     H136743   2.170   8.301   6.143
12167WAT     H236744   2.293   8.325   6.248
12168WAT      O36745   2.189   4.987   1.128
12168WAT     H136746   2.149   5.078   1.134
12168WAT     H236747   2.146   4.937   1.053
12169WAT      O36748   0.639   0.461   4.973
12169WAT     H136749   0.727   0.485   4.934
12169WAT     H236750   0.642   0.472   5.073
12170WAT      O36751   3.139   6.411   3.088
12170WAT     H136752   3.173   6.325   3.124
12170WAT     H236753   3.217   6.469   3.062
12171WAT      O36754   2.261   1.400   1.526
12171WAT     H136755   2.354   1.388   1.491
12171WAT     H236756   2.210   1.460   1.465
12172WAT      O36757   6.705   0.671   3.457
12172WAT     H136758   6.713   0.738   3.530
12172WAT     H236759   6.739   0.711   3.372
12173WAT      O36760   4.193   3.830   8.552
12173WAT     H136761   4.261   3.854   8.621
12173WAT     H236762   4.206   3.735   8.524
12174WAT      O36763   7.295   9.818   4.562
12174WAT     H136764   7.270   9.907   4.600
12174WAT     H236765   7.346   9.766   4.631
12175WAT      O36766   7.190   3.374   3.776
12175WAT     H136767   7.177   3.363   3.678
12175WAT     H236768   7.102   3.369   3.823
12176WAT      O36769   9.727   0.320   1.356
12176WAT     H136770   9.713   0.417   1.336
12176WAT     H236771   9.823   0.305   1.380
12177WAT      O36772   0.477   4.574   2.707
12177WAT     H136773   0.414   4.513   2.756
12177WAT     H236774   0.426   4.649   2.665
12178WAT      O36775   3.271   3.525   7.023
12178WAT     H136776   3.266   3.433   6.984
12178WAT     H236777   3.366   3.554   7.027
12179WAT      O36778   5.697   0.618   2.456
12179WAT     H136779   5.691   0.714   2.482
12179WAT     H236780   5.619   0.568   2.492
12180WAT      O36781   6.200   2.934   2.800
12180WAT     H136782   6.218   2.975   2.711
12180WAT     H236783   6.103   2.915   2.809
12181WAT      O36784   3.106   7.150   8.802
12181WAT     H136785   3.195   7.156   8.847
12181WAT     H236786   3.072   7.056   8.809
12182WAT      O36787   6.237   9.506   1.155
12182WAT     H136788   6.305   9.486   1.226
12182WAT     H236789   6.239   9.433   1.086
12183WAT      O36790   0.166   1.276   2.724
12183WAT     H136791   0.192   1.372   2.735
12183WAT     H236792   0.091   1.255   2.787
12184WAT      O36793   4.804   5.262   7.267
12184WAT     H136794   4.836   5.276   7.174
12184WAT     H236795   4.825   5.169   7.296
12185WAT      O36796   3.620   9.534   4.747
12185WAT     H136797   3.612   9.460   4.814
12185WAT     H236798   3.702   9.520   4.691
12186WAT      O36799   8.870   0.737   5.512
12186WAT     H136800   8.788   0.782   5.546
12186WAT     H236801   8.871   0.641   5.543
12187WAT      O36802   7.124   4.424   7.530
12187WAT     H136803   7.137   4.416   7.431
12187WAT     H236804   7.069   4.347   7.563
12188WAT      O36805   2.026   8.327   1.237
12188WAT     H136806   2.029   8.279   1.325
12188WAT     H236807   2.023   8.261   1.163
12189WAT      O36808   8.870   1.990   3.437
12189WAT     H136809   8.807   1.913   3.444
12189WAT     H236810   8.831   2.070   3.483
12190WAT      O36811   5.380   7.426   5.065
12190WAT     H136812   5.342   7.454   5.153
12190WAT     H236813   5.333   7.344   5.033
12191WAT      O36814   1.085   6.261   0.088
12191WAT     H136815   1.133   6.333   0.039
12191WAT     H236816   1.080   6.179   0.031
12192WAT      O36817   3.353   9.504   5.101
12192WAT     H136818   3.337   9.508   5.003
12192WAT     H236819   3.353   9.409   5.132
12193WAT      O36820   4.877   1.628   5.179
12193WAT     H136821   4.861   1.538   5.139
12193WAT     H236822   4.840   1.631   5.272
12194WAT      O36823   3.903   3.791   4.066
12194WAT     H136824   3.939   3.732   3.993
12194WAT     H236825   3.979   3.837   4.112
12195WAT      O36826   8.254   1.689   0.113
12195WAT     H136827   8.256   1.647   0.021
12195WAT     H236828   8.173   1.746   0.122
12196WAT      O36829   4.474   2.410   1.789
12196WAT     H136830   4.492   2.322   1.745
12196WAT     H236831   4.498   2.404   1.886
12197WAT      O36832   6.841   8.598   3.425
12197WAT     H136833   6.838   8.602   3.325
12197WAT     H236834   6.784   8.522   3.456
12198WAT      O36835   4.015   0.562   3.983
12198WAT     H136836   4.100   0.513   4.003
12198WAT     H236837   3.943   0.528   4.043
12199WAT      O36838   1.732   0.835   8.963
12199WAT     H136839   1.717   0.893   9.043
12199WAT     H236840   1.830   0.835   8.940
12200WAT      O36841   4.648   8.867   4.934
12200WAT     H136842   4.559   8.824   4.921
12200WAT     H236843   4.697   8.822   5.008
12201WAT      O36844   8.712   4.817   3.049
12201WAT     H136845   8.768   4.744   3.010
12201WAT     H236846   8.761   4.904   3.043
12202WAT      O36847   1.434   8.311   1.751
12202WAT     H136848   1.522   8.334   1.708
12202WAT     H236849   1.433   8.213   1.774
12203WAT      O36850   3.915   9.623   0.973
12203WAT     H136851   3.873   9.649   1.059
12203WAT     H236852   3.900   9.525   0.957
12204WAT      O36853   1.395   0.465   6.954
12204WAT     H136854   1.371   0.457   7.050
12204WAT     H236855   1.365   0.383   6.905
12205WAT      O36856   1.708   2.650   6.436
12205WAT     H136857   1.619   2.606   6.440
12205WAT     H236858   1.772   2.603   6.497
12206WAT      O36859   1.237   6.453   6.454
12206WAT     H136860   1.177   6.374   6.467
12206WAT     H236861   1.182   6.534   6.434
12207WAT      O36862   1.666   8.105   1.444
12207WAT     H136863   1.570   8.103   1.470
12207WAT     H236864   1.682   8.181   1.381
12208WAT      O36865   2.575   9.311   3.286
12208WAT     H136866   2.509   9.253   3.238
12208WAT     H236867   2.547   9.320   3.382
12209WAT      O36868   1.019   1.275   4.384
12209WAT     H136869   0.950   1.266   4.455
12209WAT     H236870   1.006   1.362   4.336
12210WAT      O36871   6.316   5.063   3.870
12210WAT     H136872   6.358   5.019   3.791
12210WAT     H236873   6.294   4.994   3.939
12211WAT      O36874   3.941   6.321   0.559
12211WAT     H136875   3.931   6.399   0.621
12211WAT     H236876   4.007   6.344   0.487
12212WAT      O36877   5.732   0.563   5.473
12212WAT     H136878   5.783   0.555   5.387
12212WAT     H236879   5.664   0.636   5.464
12213WAT      O36880   2.780   1.531   5.179
12213WAT     H136881   2.807   1.601   5.113
12213WAT     H236882   2.749   1.575   5.263
12214WAT      O36883   7.952   2.778   1.235
12214WAT     H136884   7.877   2.837   1.205
12214WAT     H236885   7.976   2.801   1.330
12215WAT      O36886   8.503   8.139   2.198
12215WAT     H136887   8.499   8.110   2.102
12215WAT     H236888   8.577   8.206   2.209
12216WAT      O36889   1.099   3.899   1.505
12216WAT     H136890   1.012   3.882   1.551
12216WAT     H236891   1.168   3.928   1.572
12217WAT      O36892   8.592   5.168   5.503
12217WAT     H136893   8.640   5.254   5.487
12217WAT     H236894   8.549   5.169   5.593
12218WAT      O36895   2.435   7.851   1.072
12218WAT     H136896   2.452   7.903   0.988
12218WAT     H236897   2.363   7.896   1.125
12219WAT      O36898   4.865   6.705   6.038
12219WAT     H136899   4.952   6.726   5.994
12219WAT     H236900   4.827   6.787   6.080
12220WAT      O36901   3.278   1.351   0.180
12220WAT     H136902   3.302   1.268   0.230
12220WAT     H236903   3.354   1.417   0.188
12221WAT      O36904   6.632   5.849   5.544
12221WAT     H136905   6.540   5.810   5.539
12221WAT     H236906   6.649   5.881   5.637
12222WAT      O36907   6.126   5.817   1.411
12222WAT     H136908   6.098   5.723   1.387
12222WAT     H236909   6.150   5.821   1.508
12223WAT      O36910   0.522   1.632   7.767
12223WAT     H136911   0.581   1.690   7.711
12223WAT     H236912   0.539   1.651   7.863
12224WAT      O36913   5.994   0.059   8.988
12224WAT     H136914   5.908   0.105   9.008
12224WAT     H236915   5.977  -0.018   8.926
12225WAT      O36916   9.700   8.503   4.923
12225WAT     H136917   9.791   8.517   4.962
12225WAT     H236918   9.630   8.525   4.991
12226WAT      O36919   6.378   2.037   4.290
12226WAT     H136920   6.384   2.109   4.359
12226WAT     H236921   6.356   2.078   4.201
12227WAT      O36922   9.216   7.961   8.354
12227WAT     H136923   9.222   7.865   8.326
12227WAT     H236924   9.135   7.974   8.411
12228WAT      O36925   2.049   5.792   1.498
12228WAT     H136926   2.147   5.777   1.511
12228WAT     H236927   2.032   5.887   1.474
12229WAT      O36928   6.782   0.686   5.400
12229WAT     H136929   6.834   0.600   5.397
12229WAT     H236930   6.709   0.679   5.468
12230WAT      O36931   4.805   0.984   3.342
12230WAT     H136932   4.739   1.043   3.297
12230WAT     H236933   4.838   0.915   3.278
12231WAT      O36934   5.516   1.442   4.102
12231WAT     H136935   5.434   1.384   4.109
12231WAT     H236936   5.492   1.536   4.127
12232WAT      O36937   0.657   6.386   1.080
12232WAT     H136938   0.689   6.293   1.057
12232WAT     H236939   0.689   6.450   1.010
12233WAT      O36940   0.092   0.409   1.458
12233WAT     H136941   0.046   0.411   1.546
12233WAT     H236942   0.190   0.395   1.471
12234WAT      O36943   9.850   8.415   5.700
12234WAT     H136944   9.850   8.388   5.603
12234WAT     H236945   9.770   8.471   5.719
12235WAT      O36946   5.533   5.983   2.693
12235WAT     H136947   5.501   5.888   2.690
12235WAT     H236948   5.600   5.994   2.766
12236WAT      O36949   1.698   6.971   6.313
12236WAT     H136950   1.735   6.994   6.223
12236WAT     H236951   1.684   6.872   6.319
12237WAT      O36952   5.581   7.533   3.445
12237WAT     H136953   5.669   7.532   3.493
12237WAT     H236954   5.513   7.484   3.499
12238WAT      O36955   8.709   2.264   1.667
12238WAT     H136956   8.739   2.357   1.691
12238WAT     H236957   8.712   2.253   1.567
12239WAT      O36958   0.701   4.783   5.009
12239WAT     H136959   0.694   4.823   4.918
12239WAT     H236960   0.613   4.743   5.035
12240WAT      O36961   3.929   4.526   5.775
12240WAT     H136962   3.860   4.579   5.725
12240WAT     H236963   3.889   4.440   5.807
12241WAT      O36964   8.582   4.430   3.548
12241WAT     H136965   8.676   4.398   3.539
12241WAT     H236966   8.524   4.380   3.484
12242WAT      O36967   6.094   2.333   0.097
12242WAT     H136968   6.069   2.395   0.022
12242WAT     H236969   6.132   2.249   0.060
12243WAT      O36970   1.960   5.859   0.483
12243WAT     H136971   1.878   5.804   0.500
12243WAT     H236972   1.973   5.925   0.557
12244WAT      O36973   2.201   2.453   1.784
12244WAT     H136974   2.147   2.398   1.848
12244WAT     H236975   2.142   2.519   1.739
12245WAT      O36976   4.435   6.011   6.810
12245WAT     H136977   4.469   6.086   6.867
12245WAT     H236978   4.335   6.011   6.811
12246WAT      O36979   9.322   8.778   9.360
12246WAT     H136980   9.291   8.695   9.407
12246WAT     H236981   9.422   8.776   9.353
12247WAT      O36982   6.371   4.743   3.234
12247WAT     H136983   6.339   4.674   3.169
12247WAT     H236984   6.326   4.729   3.322
12248WAT      O36985   9.600   1.724   3.644
12248WAT     H136986   9.579   1.790   3.572
12248WAT     H236987   9.617   1.634   3.602
12249WAT      O36988   0.593   8.571   8.573
12249WAT     H136989   0.496   8.556   8.558
12249WAT     H236990   0.612   8.669   8.578
12250WAT      O36991   0.458   9.811   5.533
12250WAT     H136992   0.387   9.878   5.557
12250WAT     H236993   0.440   9.774   5.442
12251WAT      O36994   0.004   0.411   3.534
12251WAT     H136995   0.104   0.404   3.528
12251WAT     H236996  -0.024   0.505   3.514
12252WAT      O36997   1.180   7.143   5.142
12252WAT     H136998   1.178   7.080   5.064
12252WAT     H236999   1.234   7.103   5.215
12253WAT      O37000   1.796   8.063   9.418
12253WAT     H137001   1.705   8.034   9.446
12253WAT     H237002   1.836   8.122   9.488
12254WAT      O37003   6.891   9.745   9.764
12254WAT     H137004   6.852   9.658   9.734
12254WAT     H237005   6.930   9.734   9.855
12255WAT      O37006   1.051   1.537   9.017
12255WAT     H137007   1.062   1.581   9.106
12255WAT     H237008   0.967   1.570   8.973
12256WAT      O37009   3.176   2.788   5.014
12256WAT     H137010   3.238   2.752   5.084
12256WAT     H237011   3.229   2.815   4.933
12257WAT      O37012   7.418   7.640   3.965
12257WAT     H137013   7.355   7.717   3.978
12257WAT     H237014   7.469   7.654   3.880
12258WAT      O37015   6.279   8.276   4.674
12258WAT     H137016   6.194   8.224   4.673
12258WAT     H237017   6.352   8.220   4.634
12259WAT      O37018   0.313   7.227   1.385
12259WAT     H137019   0.320   7.315   1.432
12259WAT     H237020   0.326   7.153   1.450
12260WAT      O37021   8.507   9.710   8.905
12260WAT     H137022   8.475   9.622   8.940
12260WAT     H237023   8.524   9.703   8.806
12261WAT      O37024   3.289   8.420   6.559
12261WAT     H137025   3.229   8.368   6.499
12261WAT     H237026   3.356   8.358   6.600
12262WAT      O37027   9.478   3.444   4.338
12262WAT     H137028   9.537   3.448   4.257
12262WAT     H237029   9.535   3.449   4.421
12263WAT      O37030   8.194   5.076   8.974
12263WAT     H137031   8.120   5.110   8.916
12263WAT     H237032   8.162   4.998   9.027
12264WAT      O37033   8.078   9.739   6.210
12264WAT     H137034   8.075   9.682   6.292
12264WAT     H237035   8.068   9.681   6.129
12265WAT      O37036   5.026   5.068   9.274
12265WAT     H137037   5.023   5.131   9.196
12265WAT     H237038   5.006   5.118   9.358
12266WAT      O37039   0.664   2.233   0.505
12266WAT     H137040   0.574   2.275   0.517
12266WAT     H237041   0.734   2.291   0.546
12267WAT      O37042   6.774   1.099   0.558
12267WAT     H137043   6.716   1.107   0.639
12267WAT     H237044   6.734   1.150   0.482
12268WAT      O37045   3.847   8.464   6.313
12268WAT     H137046   3.807   8.399   6.377
12268WAT     H237047   3.798   8.551   6.318
12269WAT      O37048   3.581   2.318   4.376
12269WAT     H137049   3.488   2.300   4.344
12269WAT     H237050   3.585   2.306   4.476
12270WAT      O37051   5.380   6.370   2.958
12270WAT     H137052   5.471   6.327   2.958
12270WAT     H237053   5.387   6.461   2.998
12271WAT      O37054   5.832   4.766   7.273
12271WAT     H137055   5.863   4.776   7.179
12271WAT     H237056   5.734   4.788   7.279
12272WAT      O37057   5.198   5.797   1.319
12272WAT     H137058   5.120   5.831   1.370
12272WAT     H237059   5.258   5.746   1.380
12273WAT      O37060   0.616   1.082   5.384
12273WAT     H137061   0.583   0.992   5.354
12273WAT     H237062   0.686   1.114   5.320
12274WAT      O37063   2.819   5.958   7.358
12274WAT     H137064   2.870   5.993   7.279
12274WAT     H237065   2.882   5.914   7.422
12275WAT      O37066   9.447   2.993   3.240
12275WAT     H137067   9.412   2.991   3.146
12275WAT     H237068   9.447   3.088   3.273
12276WAT      O37069   9.370   2.004   2.362
12276WAT     H137070   9.357   2.088   2.309
12276WAT     H237071   9.420   1.937   2.308
12277WAT      O37072   4.814   9.743   1.485
12277WAT     H137073   4.805   9.798   1.402
12277WAT     H237074   4.807   9.646   1.462
12278WAT      O37075   5.581   7.949   2.367
12278WAT     H137076   5.616   8.034   2.407
12278WAT     H237077   5.531   7.971   2.283
12279WAT      O37078   0.186   4.558   3.228
12279WAT     H137079   0.113   4.489   3.228
12279WAT     H237080   0.190   4.602   3.138
12280WAT      O37081   1.145   7.028   8.032
12280WAT     H137082   1.240   7.031   8.002
12280WAT     H237083   1.138   7.067   8.124
12281WAT      O37084   5.478   1.154   4.862
12281WAT     H137085   5.495   1.103   4.779
12281WAT     H237086   5.504   1.099   4.942
12282WAT      O37087   7.110   4.621   1.113
12282WAT     H137088   7.102   4.524   1.090
12282WAT     H237089   7.023   4.655   1.147
12283WAT      O37090   2.958   4.337   7.120
12283WAT     H137091   3.042   4.309   7.166
12283WAT     H237092   2.969   4.325   7.021
12284WAT      O37093   6.584   2.060   0.900
12284WAT     H137094   6.544   1.978   0.861
12284WAT     H237095   6.529   2.140   0.875
12285WAT      O37096   2.935   0.227   9.553
12285WAT     H137097   3.006   0.231   9.623
12285WAT     H237098   2.849   0.198   9.595
12286WAT      O37099   1.828   7.250   3.275
12286WAT     H137100   1.789   7.260   3.184
12286WAT     H237101   1.867   7.158   3.285
12287WAT      O37102   9.615   5.214   9.828
12287WAT     H137103   9.592   5.309   9.806
12287WAT     H237104   9.672   5.212   9.910
12288WAT      O37105   1.033   4.674   0.839
12288WAT     H137106   1.014   4.673   0.937
12288WAT     H237107   1.036   4.580   0.805
12289WAT      O37108   9.236   2.548   6.866
12289WAT     H137109   9.211   2.595   6.781
12289WAT     H237110   9.262   2.453   6.845
12290WAT      O37111   8.224   0.033   0.902
12290WAT     H137112   8.168  -0.049   0.892
12290WAT     H237113   8.307   0.011   0.954
12291WAT      O37114   6.347   0.339   0.033
12291WAT     H137115   6.282   0.336  -0.042
12291WAT     H237116   6.428   0.286   0.009
12292WAT      O37117   7.267   7.559   4.397
12292WAT     H137118   7.254   7.634   4.332
12292WAT     H237119   7.224   7.583   4.484
12293WAT      O37120   6.309   5.413   6.969
12293WAT     H137121   6.316   5.337   6.905
12293WAT     H237122   6.299   5.378   7.062
12294WAT      O37123   5.533   2.358   1.056
12294WAT     H137124   5.624   2.394   1.077
12294WAT     H237125   5.539   2.259   1.042
12295WAT      O37126   7.517   8.965   3.335
12295WAT     H137127   7.567   9.049   3.358
12295WAT     H237128   7.546   8.932   3.246
12296WAT      O37129   8.783   6.520   2.415
12296WAT     H137130   8.695   6.492   2.452
12296WAT     H237131   8.855   6.461   2.451
12297WAT      O37132   1.430   5.746   2.359
12297WAT     H137133   1.457   5.650   2.366
12297WAT     H237134   1.341   5.759   2.404
12298WAT      O37135   9.428   2.629   2.959
12298WAT     H137136   9.386   2.669   2.877
12298WAT     H237137   9.512   2.581   2.933
12299WAT      O37138   9.031   6.111   4.305
12299WAT     H137139   8.935   6.116   4.276
12299WAT     H237140   9.038   6.055   4.388
12300WAT      O37141   8.180   3.144   8.782
12300WAT     H137142   8.205   3.060   8.735
12300WAT     H237143   8.263   3.197   8.802
12301WAT      O37144   7.863   8.790   6.516
12301WAT     H137145   7.913   8.875   6.497
12301WAT     H237146   7.927   8.714   6.525
12302WAT      O37147   5.810   7.607   9.569
12302WAT     H137148   5.717   7.592   9.601
12302WAT     H237149   5.846   7.692   9.607
12303WAT      O37150   6.921   4.917   8.153
12303WAT     H137151   6.973   4.836   8.181
12303WAT     H237152   6.936   4.935   8.056
12304WAT      O37153   9.625   8.702   0.194
12304WAT     H137154   9.605   8.733   0.287
12304WAT     H237155   9.598   8.607   0.183
12305WAT      O37156   0.119   7.467   2.148
12305WAT     H137157   0.070   7.414   2.079
12305WAT     H237158   0.217   7.451   2.138
12306WAT      O37159   1.748   3.747   1.913
12306WAT     H137160   1.763   3.652   1.884
12306WAT     H237161   1.836   3.793   1.924
12307WAT      O37162   7.341   3.637   8.674
12307WAT     H137163   7.424   3.611   8.724
12307WAT     H237164   7.345   3.598   8.581
12308WAT      O37165   2.133   2.025   3.524
12308WAT     H137166   2.064   2.054   3.458
12308WAT     H237167   2.129   1.926   3.536
12309WAT      O37168   2.772   2.954   1.725
12309WAT     H137169   2.760   2.876   1.788
12309WAT     H237170   2.682   2.985   1.694
12310WAT      O37171   4.361   6.420   1.707
12310WAT     H137172   4.456   6.408   1.739
12310WAT     H237173   4.300   6.418   1.786
12311WAT      O37174   6.918   3.430   2.448
12311WAT     H137175   6.862   3.488   2.388
12311WAT     H237176   7.014   3.457   2.441
12312WAT      O37177   6.621   3.712   0.152
12312WAT     H137178   6.530   3.742   0.125
12312WAT     H237179   6.616   3.667   0.241
12313WAT      O37180   2.315   4.450   6.937
12313WAT     H137181   2.327   4.370   6.996
12313WAT     H237182   2.301   4.420   6.843
12314WAT      O37183   2.704   1.178   4.658
12314WAT     H137184   2.768   1.120   4.708
12314WAT     H237185   2.610   1.150   4.678
12315WAT      O37186   3.207   9.711   6.374
12315WAT     H137187   3.205   9.626   6.322
12315WAT     H237188   3.285   9.766   6.344
12316WAT      O37189   7.937   4.760   0.854
12316WAT     H137190   7.944   4.857   0.830
12316WAT     H237191   7.940   4.705   0.770
12317WAT      O37192   0.875   7.401   2.195
12317WAT     H137193   0.816   7.342   2.141
12317WAT     H237194   0.834   7.417   2.285
12318WAT      O37195   1.559   0.056   0.116
12318WAT     H137196   1.465   0.020   0.122
12318WAT     H237197   1.618   0.005   0.179
12319WAT      O37198   2.474   4.670   5.269
12319WAT     H137199   2.496   4.646   5.174
12319WAT     H237200   2.533   4.746   5.298
12320WAT      O37201   0.803   9.140   0.237
12320WAT     H137202   0.737   9.067   0.217
12320WAT     H237203   0.839   9.177   0.152
12321WAT      O37204   2.317   9.408   4.691
12321WAT     H137205   2.383   9.401   4.616
12321WAT     H237206   2.235   9.356   4.668
12322WAT      O37207   3.663   6.381   7.827
12322WAT     H137208   3.702   6.366   7.736
12322WAT     H237209   3.563   6.386   7.820
12323WAT      O37210   1.361   1.133   3.034
12323WAT     H137211   1.269   1.152   3.068
12323WAT     H237212   1.428   1.180   3.092
12324WAT      O37213   0.579   5.864   6.641
12324WAT     H137214   0.543   5.773   6.624
12324WAT     H237215   0.621   5.867   6.732
12325WAT      O37216   3.271   3.392   7.559
12325WAT     H137217   3.239   3.415   7.467
12325WAT     H237218   3.216   3.318   7.596
12326WAT      O37219   1.480   7.086   2.473
12326WAT     H137220   1.439   7.106   2.562
12326WAT     H237221   1.409   7.089   2.403
12327WAT      O37222   3.405   0.083   2.874
12327WAT     H137223   3.399   0.106   2.971
12327WAT     H237224   3.378   0.162   2.819
12328WAT      O37225   1.546   0.667   0.990
12328WAT     H137226   1.527   0.635   1.082
12328WAT     H237227   1.462   0.701   0.948
12329WAT      O37228   6.564   9.231   3.469
12329WAT     H137229   6.473   9.195   3.451
12329WAT     H237230   6.605   9.183   3.546
12330WAT      O37231   8.549   1.374   2.398
12330WAT     H137232   8.487   1.434   2.347
12330WAT     H237233   8.635   1.422   2.415
12331WAT      O37234   1.411   5.295   9.801
12331WAT     H137235   1.392   5.199   9.782
12331WAT     H237236   1.472   5.331   9.731
12332WAT      O37237   0.122   9.684   5.970
12332WAT     H137238   0.117   9.703   6.068
12332WAT     H237239   0.196   9.619   5.953
12333WAT      O37240   1.086   0.678   8.953
12333WAT     H137241   1.169   0.660   9.005
12333WAT     H237242   1.044   0.591   8.927
12334WAT      O37243   7.164   5.109   5.332
12334WAT     H137244   7.154   5.204   5.305
12334WAT     H237245   7.255   5.076   5.308
12335WAT      O37246   7.563   5.151   1.672
12335WAT     H137247   7.579   5.198   1.760
12335WAT     H237248   7.537   5.056   1.690
12336WAT      O37249   4.446   6.349   9.156
12336WAT     H137250   4.505   6.425   9.181
12336WAT     H237251   4.353   6.383   9.140
12337WAT      O37252   3.354   2.752   5.953
12337WAT     H137253   3.295   2.744   5.873
12337WAT     H237254   3.441   2.793   5.926
12338WAT      O37255   5.681   1.381   1.568
12338WAT     H137256   5.776   1.350   1.568
12338WAT     H237257   5.627   1.323   1.508
12339WAT      O37258   7.596   0.092   1.792
12339WAT     H137259   7.687   0.124   1.818
12339WAT     H237260   7.544   0.068   1.874
12340WAT      O37261   3.079   3.267   8.570
12340WAT     H137262   3.172   3.230   8.569
12340WAT     H237263   3.068   3.329   8.492
12341WAT      O37264   9.339   0.339   5.060
12341WAT     H137265   9.376   0.378   4.976
12341WAT     H237266   9.239   0.332   5.053
12342WAT      O37267   5.465   5.175   3.197
12342WAT     H137268   5.524   5.138   3.268
12342WAT     H237269   5.514   5.177   3.110
12343WAT      O37270   5.712   4.415   1.176
12343WAT     H137271   5.685   4.408   1.080
12343WAT     H237272   5.641   4.374   1.234
12344WAT      O37273   2.308   3.416   1.940
12344WAT     H137274   2.322   3.501   1.889
12344WAT     H237275   2.302   3.339   1.876
12345WAT      O37276   3.152   7.025   0.311
12345WAT     H137277   3.202   7.099   0.356
12345WAT     H237278   3.057   7.052   0.297
12346WAT      O37279   5.257   1.854   6.390
12346WAT     H137280   5.234   1.912   6.312
12346WAT     H237281   5.242   1.758   6.365
12347WAT      O37282   8.435   6.152   0.241
12347WAT     H137283   8.346   6.123   0.204
12347WAT     H237284   8.507   6.092   0.207
12348WAT      O37285   4.877   2.139   2.239
12348WAT     H137286   4.878   2.166   2.142
12348WAT     H237287   4.946   2.068   2.254
12349WAT      O37288   4.409   1.413   3.599
12349WAT     H137289   4.450   1.501   3.574
12349WAT     H237290   4.317   1.428   3.636
12350WAT      O37291   8.402   3.166   2.880
12350WAT     H137292   8.426   3.166   2.977
12350WAT     H237293   8.355   3.251   2.857
12351WAT      O37294   4.485   3.576   3.008
12351WAT     H137295   4.398   3.594   2.962
12351WAT     H237296   4.506   3.478   3.005
12352WAT      O37297   4.554   6.125   0.980
12352WAT     H137298   4.564   6.030   0.952
12352WAT     H237299   4.458   6.152   0.971
12353WAT      O37300   4.185   8.700   0.147
12353WAT     H137301   4.270   8.655   0.121
12353WAT     H237302   4.192   8.734   0.241
12354WAT      O37303   3.451   1.350   5.044
12354WAT     H137304   3.488   1.260   5.067
12354WAT     H237305   3.389   1.341   4.966
12355WAT      O37306   8.436   7.782   1.730
12355WAT     H137307   8.459   7.808   1.824
12355WAT     H237308   8.520   7.779   1.675
12356WAT      O37309   8.634   1.412   2.808
12356WAT     H137310   8.715   1.368   2.770
12356WAT     H237311   8.552   1.369   2.771
12357WAT      O37312   7.002   0.951   6.682
12357WAT     H137313   7.093   0.909   6.676
12357WAT     H237314   6.951   0.910   6.758
12358WAT      O37315   5.127   5.059   6.002
12358WAT     H137316   5.068   5.124   5.954
12358WAT     H237317   5.072   5.000   6.061
12359WAT      O37318   9.006   9.079   9.819
12359WAT     H137319   8.960   9.025   9.749
12359WAT     H237320   9.028   9.021   9.898
12360WAT      O37321   5.054   3.506   3.484
12360WAT     H137322   5.090   3.586   3.435
12360WAT     H237323   5.127   3.439   3.497
12361WAT      O37324   3.666   4.055   7.896
12361WAT     H137325   3.677   3.958   7.873
12361WAT     H237326   3.595   4.095   7.839
12362WAT      O37327   7.196   9.280   9.377
12362WAT     H137328   7.295   9.282   9.386
12362WAT     H237329   7.158   9.365   9.415
12363WAT      O37330   6.706   9.086   2.478
12363WAT     H137331   6.721   9.003   2.424
12363WAT     H237332   6.743   9.074   2.570
12364WAT      O37333   7.247   4.935   3.868
12364WAT     H137334   7.151   4.962   3.874
12364WAT     H237335   7.302   4.998   3.922
12365WAT      O37336   1.868   8.171   3.226
12365WAT     H137337   1.813   8.115   3.288
12365WAT     H237338   1.963   8.139   3.227
12366WAT      O37339   9.750   0.036   1.692
12366WAT     H137340   9.659   0.075   1.703
12366WAT     H237341   9.818   0.109   1.695
12367WAT      O37342   1.965   2.815   2.817
12367WAT     H137343   2.037   2.829   2.885
12367WAT     H237344   1.876   2.827   2.861
12368WAT      O37345   4.960   5.032   7.981
12368WAT     H137346   4.869   5.008   8.015
12368WAT     H237347   5.025   5.035   8.057
12369WAT      O37348   4.793   8.791   8.440
12369WAT     H137349   4.704   8.747   8.452
12369WAT     H237350   4.829   8.770   8.349
12370WAT      O37351   3.420   1.365   2.654
12370WAT     H137352   3.507   1.340   2.697
12370WAT     H237353   3.345   1.325   2.705
12371WAT      O37354   8.489   1.348   5.117
12371WAT     H137355   8.573   1.399   5.135
12371WAT     H237356   8.507   1.273   5.053
12372WAT      O37357   9.412   0.552   5.243
12372WAT     H137358   9.394   0.483   5.173
12372WAT     H237359   9.461   0.628   5.203
12373WAT      O37360   4.371   5.112   3.274
12373WAT     H137361   4.428   5.030   3.265
12373WAT     H237362   4.308   5.099   3.350
12374WAT      O37363   2.050   1.469   2.113
12374WAT     H137364   2.050   1.402   2.039
12374WAT     H237365   1.968   1.459   2.168
12375WAT      O37366   0.164   1.560   4.111
12375WAT     H137367   0.117   1.634   4.159
12375WAT     H237368   0.212   1.596   4.031
12376WAT      O37369   6.659   6.237   9.405
12376WAT     H137370   6.602   6.256   9.325
12376WAT     H237371   6.622   6.159   9.455
12377WAT      O37372   6.845   5.355   6.383
12377WAT     H137373   6.850   5.386   6.478
12377WAT     H237374   6.935   5.322   6.354
12378WAT      O37375   9.722   0.440   2.552
12378WAT     H137376   9.784   0.483   2.617
12378WAT     H237377   9.774   0.403   2.475
12379WAT      O37378   7.179   8.831   8.954
12379WAT     H137379   7.100   8.890   8.940
12379WAT     H237380   7.255   8.862   8.897
12380WAT      O37381   3.609   1.218   3.003
12380WAT     H137382   3.631   1.250   2.911
12380WAT     H237383   3.691   1.225   3.060
12381WAT      O37384   2.319   7.377   0.347
12381WAT     H137385   2.406   7.410   0.385
12381WAT     H237386   2.318   7.393   0.248
12382WAT      O37387   4.695   5.530   4.014
12382WAT     H137388   4.726   5.625   4.022
12382WAT     H237389   4.629   5.523   3.939
12383WAT      O37390   8.980   5.142   0.127
12383WAT     H137391   8.996   5.184   0.038
12383WAT     H237392   8.894   5.175   0.165
12384WAT      O37393   9.507   2.831   3.818
12384WAT     H137394   9.470   2.867   3.732
12384WAT     H237395   9.598   2.794   3.801
12385WAT      O37396   1.089   6.723   1.073
12385WAT     H137397   1.169   6.742   1.016
12385WAT     H237398   1.116   6.722   1.169
12386WAT      O37399   9.168   3.082   9.699
12386WAT     H137400   9.141   2.990   9.672
12386WAT     H237401   9.203   3.080   9.793
12387WAT      O37402   0.056   0.490   7.030
12387WAT     H137403   0.028   0.394   7.035
12387WAT     H237404  -0.024   0.546   7.008
12388WAT      O37405   4.857   8.279   7.405
12388WAT     H137406   4.846   8.378   7.399
12388WAT     H237407   4.826   8.237   7.319
12389WAT      O37408   0.486   1.462   9.563
12389WAT     H137409   0.404   1.472   9.619
12389WAT     H237410   0.460   1.428   9.472
12390WAT      O37411   1.230   4.056   7.088
12390WAT     H137412   1.155   3.990   7.083
12390WAT     H237413   1.194   4.148   7.070
12391WAT      O37414   9.075   5.695   9.148
12391WAT     H137415   9.173   5.709   9.134
12391WAT     H237416   9.033   5.660   9.064
12392WAT      O37417   8.444   4.080   2.417
12392WAT     H137418   8.473   4.099   2.323
12392WAT     H237419   8.362   4.024   2.415
12393WAT      O37420   2.473   6.253   4.232
12393WAT     H137421   2.507   6.307   4.308
12393WAT     H237422   2.492   6.156   4.248
12394WAT      O37423   1.316   2.027   4.928
12394WAT     H137424   1.393   1.995   4.873
12394WAT     H237425   1.251   1.952   4.942
12395WAT      O37426   0.747   0.735   4.283
12395WAT     H137427   0.760   0.662   4.216
12395WAT     H237428   0.675   0.797   4.250
12396WAT      O37429   3.072   0.172   1.629
12396WAT     H137430   3.131   0.101   1.667
12396WAT     H237431   3.009   0.205   1.700
12397WAT      O37432   6.981   5.988   2.957
12397WAT     H137433   7.008   6.079   2.927
12397WAT     H237434   7.060   5.941   2.996
12398WAT      O37435   8.592   8.755   9.031
12398WAT     H137436   8.668   8.735   9.092
12398WAT     H237437   8.508   8.767   9.084
12399WAT      O37438   8.098   1.178   7.032
12399WAT     H137439   8.064   1.120   6.959
12399WAT     H237440   8.113   1.122   7.114
12400WAT      O37441   4.104   1.151   5.328
12400WAT     H137442   4.089   1.229   5.267
12400WAT     H237443   4.201   1.128   5.329
12401WAT      O37444   5.189   5.014   0.086
12401WAT     H137445   5.255   4.965   0.030
12401WAT     H237446   5.231   5.094   0.127
12402WAT      O37447   9.630   2.354   3.025
12402WAT     H137448   9.696   2.401   2.967
12402WAT     H237449   9.542   2.348   2.979
12403WAT      O37450   7.515   2.245   1.222
12403WAT     H137451   7.573   2.272   1.299
12403WAT     H237452   7.420   2.240   1.252
12404WAT      O37453   2.419   6.127   1.041
12404WAT     H137454   2.390   6.217   1.075
12404WAT     H237455   2.518   6.118   1.054
12405WAT      O37456   0.023   1.650   0.973
12405WAT     H137457  -0.055   1.599   0.939
12405WAT     H237458   0.105   1.592   0.972
12406WAT      O37459   9.606   3.448   5.445
12406WAT     H137460   9.653   3.434   5.532
12406WAT     H237461   9.581   3.544   5.437
12407WAT      O37462   4.810   9.111   7.968
12407WAT     H137463   4.864   9.117   8.052
12407WAT     H237464   4.861   9.153   7.893
12408WAT      O37465   6.335   6.908   6.818
12408WAT     H137466   6.405   6.917   6.889
12408WAT     H237467   6.313   6.999   6.781
12409WAT      O37468   3.983   5.436   8.187
12409WAT     H137469   4.000   5.350   8.139
12409WAT     H237470   4.070   5.474   8.218
12410WAT      O37471   7.807   0.107   0.174
12410WAT     H137472   7.836   0.199   0.148
12410WAT     H237473   7.810   0.098   0.274
12411WAT      O37474   4.088   6.218   5.405
12411WAT     H137475   4.111   6.315   5.397
12411WAT     H237476   4.171   6.165   5.419
12412WAT      O37477   4.150   0.695   0.720
12412WAT     H137478   4.089   0.762   0.762
12412WAT     H237479   4.195   0.736   0.641
12413WAT      O37480   4.373   3.271   9.779
12413WAT     H137481   4.276   3.284   9.803
12413WAT     H237482   4.394   3.173   9.778
12414WAT      O37483   5.157   7.990   9.410
12414WAT     H137484   5.067   7.996   9.367
12414WAT     H237485   5.159   7.911   9.472
12415WAT      O37486   8.717   2.163   6.372
12415WAT     H137487   8.755   2.253   6.347
12415WAT     H237488   8.634   2.147   6.319
12416WAT      O37489   0.441   5.693   0.227
12416WAT     H137490   0.353   5.657   0.198
12416WAT     H237491   0.427   5.775   0.283
12417WAT      O37492   6.995   6.478   5.914
12417WAT     H137493   6.918   6.448   5.971
12417WAT     H237494   6.984   6.574   5.891
12418WAT      O37495   7.610   5.312   1.898
12418WAT     H137496   7.657   5.391   1.937
12418WAT     H237497   7.515   5.312   1.930
12419WAT      O37498   0.435   7.672   0.654
12419WAT     H137499   0.478   7.644   0.740
12419WAT     H237500   0.432   7.594   0.591
12420WAT      O37501   0.807   8.889   7.375
12420WAT     H137502   0.730   8.950   7.359
12420WAT     H237503   0.812   8.866   7.472
12421WAT      O37504   1.540   3.015   6.385
12421WAT     H137505   1.624   2.970   6.415
12421WAT     H237506   1.557   3.064   6.299
12422WAT      O37507   2.953   8.089   9.864
12422WAT     H137508   2.997   8.042   9.787
12422WAT     H237509   2.989   8.053   9.950
12423WAT      O37510   7.619   5.730   9.715
12423WAT     H137511   7.708   5.755   9.753
12423WAT     H237512   7.629   5.709   9.617
12424WAT      O37513   5.007   2.329   3.012
12424WAT     H137514   4.985   2.234   2.989
12424WAT     H237515   5.079   2.331   3.081
12425WAT      O37516   9.059   2.569   0.826
12425WAT     H137517   9.075   2.545   0.730
12425WAT     H237518   9.032   2.665   0.831
12426WAT      O37519   0.454   7.141   2.199
12426WAT     H137520   0.469   7.203   2.277
12426WAT     H237521   0.371   7.169   2.150
12427WAT      O37522   3.158   3.032   3.928
12427WAT     H137523   3.233   3.030   3.994
12427WAT     H237524   3.149   3.125   3.891
12428WAT      O37525   1.360   1.253   4.995
12428WAT     H137526   1.431   1.315   5.029
12428WAT     H237527   1.403   1.178   4.945
12429WAT      O37528   6.973   6.520   7.742
12429WAT     H137529   6.893   6.574   7.768
12429WAT     H237530   7.054   6.579   7.736
12430WAT      O37531   1.043   5.109   1.187
12430WAT     H137532   1.017   5.033   1.248
12430WAT     H237533   1.016   5.086   1.093
12431WAT      O37534   3.742   7.938   5.983
12431WAT     H137535   3.755   7.888   5.897
12431WAT     H237536   3.667   7.896   6.034
12432WAT      O37537   5.791   4.701   6.161
12432WAT     H137538   5.792   4.672   6.065
12432WAT     H237539   5.885   4.714   6.193
12433WAT      O37540   4.305   1.886   0.930
12433WAT     H137541   4.340   1.792   0.934
12433WAT     H237542   4.315   1.921   0.837
12434WAT      O37543   3.444   3.223   3.192
12434WAT     H137544   3.438   3.125   3.209
12434WAT     H237545   3.438   3.272   3.279
12435WAT      O37546   8.165   4.829   0.035
12435WAT     H137547   8.241   4.861   0.092
12435WAT     H237548   8.148   4.732   0.053
12436WAT      O37549   2.217   1.632   3.776
12436WAT     H137550   2.219   1.613   3.874
12436WAT     H237551   2.292   1.583   3.732
12437WAT      O37552   7.422   2.148   8.796
12437WAT     H137553   7.505   2.202   8.778
12437WAT     H237554   7.404   2.149   8.895
12438WAT      O37555   6.575   1.593   5.118
12438WAT     H137556   6.613   1.504   5.140
12438WAT     H237557   6.477   1.593   5.135
12439WAT      O37558   0.497   9.819   3.249
12439WAT     H137559   0.496   9.867   3.161
12439WAT     H237560   0.405   9.820   3.288
12440WAT      O37561   3.522   1.940   3.045
12440WAT     H137562   3.475   1.941   2.957
12440WAT     H237563   3.455   1.948   3.119
12441WAT      O37564   9.855   2.921   9.719
12441WAT     H137565   9.905   2.902   9.634
12441WAT     H237566   9.870   3.016   9.745
12442WAT      O37567   8.523   0.690   8.650
12442WAT     H137568   8.492   0.659   8.739
12442WAT     H237569   8.608   0.643   8.625
12443WAT      O37570   3.469   8.483   7.247
12443WAT     H137571   3.410   8.408   7.277
12443WAT     H237572   3.537   8.449   7.182
12444WAT      O37573   0.803   8.728   4.570
12444WAT     H137574   0.829   8.792   4.499
12444WAT     H237575   0.794   8.776   4.658
12445WAT      O37576   2.782   3.999   3.068
12445WAT     H137577   2.837   3.995   2.985
12445WAT     H237578   2.781   3.909   3.112
12446WAT      O37579   3.773   7.174   9.170
12446WAT     H137580   3.853   7.128   9.133
12446WAT     H237581   3.728   7.227   9.098
12447WAT      O37582   7.884   6.723   1.612
12447WAT     H137583   7.798   6.762   1.577
12447WAT     H237584   7.886   6.625   1.594
12448WAT      O37585   2.264   5.537   8.260
12448WAT     H137586   2.293   5.444   8.283
12448WAT     H237587   2.169   5.535   8.227
12449WAT      O37588   1.171   7.719   7.063
12449WAT     H137589   1.226   7.748   6.984
12449WAT     H237590   1.074   7.725   7.040
12450WAT      O37591   3.508   8.025   9.353
12450WAT     H137592   3.468   8.008   9.262
12450WAT     H237593   3.577   7.955   9.372
12451WAT      O37594   7.202   6.194   7.448
12451WAT     H137595   7.169   6.117   7.393
12451WAT     H237596   7.124   6.236   7.495
12452WAT      O37597   1.024   9.839   4.907
12452WAT     H137598   1.007   9.896   4.827
12452WAT     H237599   0.939   9.825   4.957
12453WAT      O37600   7.228   3.837   9.820
12453WAT     H137601   7.326   3.823   9.810
12453WAT     H237602   7.196   3.902   9.750
12454WAT      O37603   3.509   6.065   0.076
12454WAT     H137604   3.469   6.098  -0.010
12454WAT     H237605   3.588   6.122   0.100
12455WAT      O37606   5.043   4.521   2.123
12455WAT     H137607   4.973   4.541   2.055
12455WAT     H237608   5.003   4.525   2.215
12456WAT      O37609   8.619   7.460   7.812
12456WAT     H137610   8.550   7.483   7.743
12456WAT     H237611   8.616   7.527   7.886
12457WAT      O37612   2.794   7.105   2.215
12457WAT     H137613   2.729   7.044   2.262
12457WAT     H237614   2.806   7.073   2.120
12458WAT      O37615   4.178   8.742   7.838
12458WAT     H137616   4.160   8.840   7.833
12458WAT     H237617   4.091   8.693   7.833
12459WAT      O37618   0.162   4.383   9.857
12459WAT     H137619   0.118   4.464   9.895
12459WAT     H237620   0.242   4.358   9.912
12460WAT      O37621   9.106   9.709   4.326
12460WAT     H137622   9.049   9.788   4.348
12460WAT     H237623   9.062   9.626   4.359
12461WAT      O37624   0.994   6.860   4.463
12461WAT     H137625   1.058   6.928   4.499
12461WAT     H237626   1.022   6.769   4.491
12462WAT      O37627   0.168   9.453   7.683
12462WAT     H137628   0.255   9.424   7.723
12462WAT     H237629   0.164   9.553   7.682
12463WAT      O37630   9.863   7.454   7.252
12463WAT     H137631   9.917   7.538   7.255
12463WAT     H237632   9.902   7.392   7.184
12464WAT      O37633   6.257   4.766   5.890
12464WAT     H137634   6.217   4.858   5.895
12464WAT     H237635   6.207   4.712   5.822
12465WAT      O37636   9.535   5.677   7.244
12465WAT     H137637   9.482   5.712   7.321
12465WAT     H237638   9.612   5.739   7.225
12466WAT      O37639   7.016   6.816   1.112
12466WAT     H137640   7.061   6.734   1.076
12466WAT     H237641   7.019   6.814   1.212
12467WAT      O37642   2.465   1.275   4.261
12467WAT     H137643   2.462   1.315   4.170
12467WAT     H237644   2.378   1.291   4.308
12468WAT      O37645   0.818   3.105   7.662
12468WAT     H137646   0.741   3.169   7.669
12468WAT     H237647   0.825   3.052   7.746
12469WAT      O37648   6.763   9.835   1.270
12469WAT     H137649   6.804   9.922   1.244
12469WAT     H237650   6.690   9.812   1.204
12470WAT      O37651   2.328   8.572   7.421
12470WAT     H137652   2.284   8.531   7.500
12470WAT     H237653   2.391   8.506   7.379
12471WAT      O37654   7.583   5.693   1.486
12471WAT     H137655   7.581   5.664   1.390
12471WAT     H237656   7.545   5.786   1.493
12472WAT      O37657   5.886   2.774   2.018
12472WAT     H137658   5.821   2.739   1.951
12472WAT     H237659   5.843   2.847   2.072
12473WAT      O37660   2.283   4.391   6.489
12473WAT     H137661   2.359   4.328   6.471
12473WAT     H237662   2.217   4.384   6.414
12474WAT      O37663   9.600   4.466   8.654
12474WAT     H137664   9.589   4.455   8.555
12474WAT     H237665   9.671   4.533   8.673
12475WAT      O37666   4.228   1.403   1.434
12475WAT     H137667   4.229   1.451   1.346
12475WAT     H237668   4.245   1.306   1.420
12476WAT      O37669   4.006   0.881   1.906
12476WAT     H137670   4.038   0.970   1.937
12476WAT     H237671   4.030   0.811   1.973
12477WAT      O37672   6.607   8.949   0.114
12477WAT     H137673   6.573   9.025   0.059
12477WAT     H237674   6.632   8.873   0.055
12478WAT      O37675   8.367   8.320   9.076
12478WAT     H137676   8.276   8.291   9.045
12478WAT     H237677   8.357   8.396   9.142
12479WAT      O37678   8.747   1.479   9.306
12479WAT     H137679   8.765   1.441   9.397
12479WAT     H237680   8.831   1.522   9.271
12480WAT      O37681   0.557   4.954   8.830
12480WAT     H137682   0.596   4.959   8.922
12480WAT     H237683   0.488   4.882   8.828
12481WAT      O37684   2.251   0.330   5.151
12481WAT     H137685   2.234   0.402   5.218
12481WAT     H237686   2.283   0.372   5.066
12482WAT      O37687   0.812   3.767   4.917
12482WAT     H137688   0.880   3.840   4.927
12482WAT     H237689   0.858   3.678   4.919
12483WAT      O37690   4.880   4.039   8.165
12483WAT     H137691   4.847   3.961   8.111
12483WAT     H237692   4.820   4.117   8.151
12484WAT      O37693   0.087   8.394   3.295
12484WAT     H137694   0.137   8.312   3.323
12484WAT     H237695   0.004   8.368   3.246
12485WAT      O37696   7.285   4.500   7.921
12485WAT     H137697   7.345   4.462   7.851
12485WAT     H237698   7.206   4.543   7.877
12486WAT      O37699   9.318   4.003   0.491
12486WAT     H137700   9.387   4.072   0.470
12486WAT     H237701   9.358   3.912   0.479
12487WAT      O37702   5.062   0.275   5.573
12487WAT     H137703   4.978   0.302   5.621
12487WAT     H237704   5.135   0.340   5.594
12488WAT      O37705   1.172   5.778   7.551
12488WAT     H137706   1.137   5.825   7.469
12488WAT     H237707   1.271   5.768   7.544
12489WAT      O37708   0.299   6.087   7.594
12489WAT     H137709   0.245   6.114   7.674
12489WAT     H237710   0.260   6.129   7.512
12490WAT      O37711   6.439   2.057   2.878
12490WAT     H137712   6.413   2.058   2.975
12490WAT     H237713   6.533   2.089   2.869
12491WAT      O37714   8.277   1.403   0.228
12491WAT     H137715   8.314   1.355   0.149
12491WAT     H237716   8.318   1.494   0.234
12492WAT      O37717   6.272   8.563   4.186
12492WAT     H137718   6.328   8.565   4.269
12492WAT     H237719   6.280   8.650   4.138
12493WAT      O37720   9.307   9.198   4.018
12493WAT     H137721   9.404   9.221   4.010
12493WAT     H237722   9.272   9.231   4.106
12494WAT      O37723   7.246   6.096   4.842
12494WAT     H137724   7.252   6.127   4.747
12494WAT     H237725   7.283   6.004   4.850
12495WAT      O37726   0.864   1.267   5.578
12495WAT     H137727   0.872   1.199   5.505
12495WAT     H237728   0.848   1.357   5.537
12496WAT      O37729   2.305   1.773   3.276
12496WAT     H137730   2.344   1.864   3.294
12496WAT     H237731   2.220   1.763   3.327
12497WAT      O37732   2.997   3.843   1.853
12497WAT     H137733   3.016   3.813   1.760
12497WAT     H237734   2.903   3.820   1.878
12498WAT      O37735   4.249   5.955   3.223
12498WAT     H137736   4.268   5.857   3.216
12498WAT     H237737   4.257   5.998   3.133
12499WAT      O37738   1.192   2.034   2.480
12499WAT     H137739   1.288   2.018   2.502
12499WAT     H237740   1.149   1.948   2.455
12500WAT      O37741   5.350   5.586   9.547
12500WAT     H137742   5.328   5.495   9.510
12500WAT     H237743   5.307   5.656   9.490
12501WAT      O37744   6.726   1.797   5.210
12501WAT     H137745   6.754   1.766   5.301
12501WAT     H237746   6.667   1.728   5.168
12502WAT      O37747   2.168   2.458   3.950
12502WAT     H137748   2.137   2.366   3.975
12502WAT     H237749   2.246   2.484   4.007
12503WAT      O37750   6.518   5.499   7.411
12503WAT     H137751   6.435   5.537   7.451
12503WAT     H237752   6.585   5.572   7.398
12504WAT      O37753   8.086   7.209   1.361
12504WAT     H137754   8.034   7.141   1.412
12504WAT     H237755   8.038   7.232   1.276
12505WAT      O37756   7.367   7.855   6.336
12505WAT     H137757   7.430   7.778   6.330
12505WAT     H237758   7.413   7.934   6.375
12506WAT      O37759   4.724   0.122   5.585
12506WAT     H137760   4.706   0.159   5.494
12506WAT     H237761   4.757   0.195   5.645
12507WAT      O37762   0.186   7.116   0.415
12507WAT     H137763   0.104   7.127   0.470
12507WAT     H237764   0.175   7.036   0.355
12508WAT      O37765   8.961   7.735   4.560
12508WAT     H137766   8.873   7.694   4.584
12508WAT     H237767   8.945   7.814   4.500
12509WAT      O37768   4.208   5.839   5.971
12509WAT     H137769   4.235   5.745   5.989
12509WAT     H237770   4.251   5.871   5.887
12510WAT      O37771   9.852   8.854   2.162
12510WAT     H137772   9.886   8.841   2.256
12510WAT     H237773   9.822   8.766   2.125
12511WAT      O37774   0.251   7.496   8.045
12511WAT     H137775   0.229   7.432   7.972
12511WAT     H237776   0.168   7.544   8.073
12512WAT      O37777   0.184   1.046   9.696
12512WAT     H137778   0.108   1.107   9.717
12512WAT     H237779   0.180   0.966   9.756
12513WAT      O37780   2.271   1.864   3.972
12513WAT     H137781   2.302   1.904   3.886
12513WAT     H237782   2.333   1.892   4.046
12514WAT      O37783   5.018   2.341   3.507
12514WAT     H137784   4.980   2.354   3.416
12514WAT     H237785   4.945   2.348   3.575
12515WAT      O37786   2.173   5.204   3.231
12515WAT     H137787   2.264   5.188   3.270
12515WAT     H237788   2.165   5.299   3.200
12516WAT      O37789   1.337   3.338   3.323
12516WAT     H137790   1.430   3.338   3.286
12516WAT     H237791   1.292   3.424   3.300
12517WAT      O37792   7.717   1.007   5.727
12517WAT     H137793   7.666   1.065   5.790
12517WAT     H237794   7.793   1.059   5.688
12518WAT      O37795   4.666   5.837   3.232
12518WAT     H137796   4.594   5.804   3.294
12518WAT     H237797   4.677   5.772   3.157
12519WAT      O37798   6.971   2.971   6.645
12519WAT     H137799   6.929   3.052   6.604
12519WAT     H237800   7.004   2.911   6.572
12520WAT      O37801   5.986   6.686   2.020
12520WAT     H137802   6.000   6.689   2.119
12520WAT     H237803   6.073   6.701   1.973
12521WAT      O37804   6.707   1.712   5.470
12521WAT     H137805   6.609   1.715   5.486
12521WAT     H237806   6.755   1.715   5.558
12522WAT      O37807   1.675   2.633   7.966
12522WAT     H137808   1.641   2.723   7.994
12522WAT     H237809   1.763   2.644   7.919
12523WAT      O37810   8.582   9.322   9.160
12523WAT     H137811   8.641   9.260   9.212
12523WAT     H237812   8.600   9.311   9.062
12524WAT      O37813   4.503   3.274   1.306
12524WAT     H137814   4.486   3.176   1.306
12524WAT     H237815   4.418   3.323   1.286
12525WAT      O37816   1.177   1.053   7.890
12525WAT     H137817   1.179   1.143   7.846
12525WAT     H237818   1.108   1.054   7.963
12526WAT      O37819   3.117   3.480   4.190
12526WAT     H137820   3.018   3.480   4.198
12526WAT     H237821   3.153   3.570   4.212
12527WAT      O37822   0.597   0.191   5.160
12527WAT     H137823   0.674   0.184   5.223
12527WAT     H237824   0.560   0.284   5.162
12528WAT      O37825   5.102   8.506   0.848
12528WAT     H137826   5.080   8.580   0.784
12528WAT     H237827   5.135   8.545   0.934
12529WAT      O37828   1.593   8.856   3.999
12529WAT     H137829   1.616   8.803   3.918
12529WAT     H237830   1.610   8.953   3.981
12530WAT      O37831   6.469   7.582   5.187
12530WAT     H137832   6.485   7.603   5.283
12530WAT     H237833   6.556   7.576   5.138
12531WAT      O37834   6.664   0.387   6.097
12531WAT     H137835   6.706   0.322   6.033
12531WAT     H237836   6.612   0.456   6.046
12532WAT      O37837   5.507   4.088   6.392
12532WAT     H137838   5.528   4.030   6.470
12532WAT     H237839   5.567   4.064   6.315
12533WAT      O37840   3.523   6.942   4.038
12533WAT     H137841   3.562   6.893   4.116
12533WAT     H237842   3.439   6.988   4.066
12534WAT      O37843   6.386   2.722   5.262
12534WAT     H137844   6.410   2.783   5.186
12534WAT     H237845   6.451   2.647   5.266
12535WAT      O37846   1.974   3.440   6.140
12535WAT     H137847   2.043   3.474   6.077
12535WAT     H237848   1.912   3.515   6.166
12536WAT      O37849   2.154   3.376   3.679
12536WAT     H137850   2.163   3.277   3.670
12536WAT     H237851   2.207   3.421   3.606
12537WAT      O37852   4.624   0.027   1.651
12537WAT     H137853   4.676  -0.040   1.598
12537WAT     H237854   4.675   0.052   1.733
12538WAT      O37855   7.283   7.612   5.333
12538WAT     H137856   7.380   7.595   5.316
12538WAT     H237857   7.264   7.599   5.430
12539WAT      O37858   6.845   4.493   5.586
12539WAT     H137859   6.831   4.560   5.512
12539WAT     H237860   6.757   4.466   5.624
12540WAT      O37861   1.549   1.737   6.919
12540WAT     H137862   1.629   1.725   6.978
12540WAT     H237863   1.493   1.655   6.923
12541WAT      O37864   9.311   7.008   5.926
12541WAT     H137865   9.369   7.071   5.874
12541WAT     H237866   9.248   7.061   5.983
12542WAT      O37867   3.771   6.428   5.470
12542WAT     H137868   3.699   6.359   5.470
12542WAT     H237869   3.818   6.428   5.558
12543WAT      O37870   8.647   7.846   6.103
12543WAT     H137871   8.594   7.879   6.180
12543WAT     H237872   8.745   7.854   6.124
12544WAT      O37873   6.266   5.888   1.644
12544WAT     H137874   6.302   5.926   1.729
12544WAT     H237875   6.341   5.876   1.579
12545WAT      O37876   9.735   8.449   6.310
12545WAT     H137877   9.819   8.473   6.262
12545WAT     H237878   9.698   8.364   6.272
12546WAT      O37879   4.097   2.036   3.616
12546WAT     H137880   4.065   1.973   3.546
12546WAT     H237881   4.032   2.111   3.626
12547WAT      O37882   3.672   5.035   3.564
12547WAT     H137883   3.718   4.951   3.590
12547WAT     H237884   3.631   5.077   3.646
12548WAT      O37885   8.987   1.945   9.889
12548WAT     H137886   8.889   1.965   9.894
12548WAT     H237887   9.032   2.015   9.833
12549WAT      O37888   3.786   4.404   6.408
12549WAT     H137889   3.720   4.337   6.374
12549WAT     H237890   3.777   4.414   6.507
12550WAT      O37891   4.799   6.635   7.455
12550WAT     H137892   4.846   6.555   7.490
12550WAT     H237893   4.705   6.610   7.430
12551WAT      O37894   3.009   3.103   0.821
12551WAT     H137895   3.087   3.141   0.772
12551WAT     H237896   2.926   3.152   0.794
12552WAT      O37897   5.206   6.056   0.371
12552WAT     H137898   5.222   6.088   0.464
12552WAT     H237899   5.122   6.002   0.368
12553WAT      O37900   0.397   7.294   3.934
12553WAT     H137901   0.399   7.328   3.840
12553WAT     H237902   0.306   7.258   3.954
12554WAT      O37903   3.273   7.549   3.863
12554WAT     H137904   3.212   7.628   3.872
12554WAT     H237905   3.311   7.546   3.770
12555WAT      O37906   9.642   7.451   8.832
12555WAT     H137907   9.578   7.454   8.755
12555WAT     H237908   9.641   7.359   8.872
12556WAT      O37909   7.250   0.623   1.651
12556WAT     H137910   7.287   0.588   1.737
12556WAT     H237911   7.175   0.687   1.671
12557WAT      O37912   5.492   1.796   3.893
12557WAT     H137913   5.474   1.748   3.978
12557WAT     H237914   5.578   1.847   3.901
12558WAT      O37915   3.738   3.939   1.284
12558WAT     H137916   3.713   3.852   1.240
12558WAT     H237917   3.696   3.943   1.375
12559WAT      O37918   0.047   7.289   7.073
12559WAT     H137919   0.066   7.195   7.101
12559WAT     H237920   0.060   7.298   6.975
12560WAT      O37921   0.334   2.335   0.948
12560WAT     H137922   0.428   2.365   0.933
12560WAT     H237923   0.323   2.305   1.043
12561WAT      O37924   9.629   2.950   2.123
12561WAT     H137925   9.664   2.985   2.210
12561WAT     H237926   9.529   2.951   2.124
12562WAT      O37927   1.597   2.698   4.519
12562WAT     H137928   1.521   2.641   4.551
12562WAT     H237929   1.601   2.694   4.419
12563WAT      O37930   5.000   1.077   1.369
12563WAT     H137931   5.035   1.068   1.462
12563WAT     H237932   5.059   1.139   1.317
12564WAT      O37933   8.590   2.882   2.272
12564WAT     H137934   8.564   2.940   2.349
12564WAT     H237935   8.529   2.802   2.269
12565WAT      O37936   7.800   9.089   1.722
12565WAT     H137937   7.712   9.128   1.696
12565WAT     H237938   7.799   8.991   1.706
12566WAT      O37939   1.502   6.011   1.053
12566WAT     H137940   1.537   5.920   1.030
12566WAT     H237941   1.437   6.040   0.984
12567WAT      O37942   5.156   3.898   1.586
12567WAT     H137943   5.227   3.831   1.565
12567WAT     H237944   5.068   3.852   1.595
12568WAT      O37945   5.888   2.278   6.097
12568WAT     H137946   5.943   2.265   6.014
12568WAT     H237947   5.885   2.375   6.120
12569WAT      O37948   0.890   2.818   0.240
12569WAT     H137949   0.872   2.790   0.334
12569WAT     H237950   0.976   2.868   0.235
12570WAT      O37951   6.038   2.145   7.252
12570WAT     H137952   6.065   2.051   7.275
12570WAT     H237953   6.038   2.156   7.152
12571WAT      O37954   2.670   1.552   4.537
12571WAT     H137955   2.653   1.469   4.484
12571WAT     H237956   2.733   1.611   4.487
12572WAT      O37957   3.110   8.922   0.527
12572WAT     H137958   3.166   8.979   0.587
12572WAT     H237959   3.114   8.959   0.433
12573WAT      O37960   4.846   3.245   6.927
12573WAT     H137961   4.775   3.288   6.982
12573WAT     H237962   4.925   3.306   6.919
12574WAT      O37963   0.077   9.365   6.409
12574WAT     H137964   0.136   9.436   6.447
12574WAT     H237965   0.013   9.406   6.344
12575WAT      O37966   5.849   6.878   9.310
12575WAT     H137967   5.923   6.841   9.254
12575WAT     H237968   5.870   6.972   9.335
12576WAT      O37969   0.928   5.074   0.035
12576WAT     H137970   0.857   5.130   0.077
12576WAT     H237971   1.017   5.116   0.049
12577WAT      O37972   1.586   1.398   2.981
12577WAT     H137973   1.621   1.353   3.063
12577WAT     H237974   1.501   1.446   3.003
12578WAT      O37975   3.180   7.379   9.735
12578WAT     H137976   3.195   7.286   9.767
12578WAT     H237977   3.119   7.378   9.656
12579WAT      O37978   5.404   7.477   4.407
12579WAT     H137979   5.435   7.382   4.419
12579WAT     H237980   5.309   7.477   4.376
12580WAT      O37981   9.083   1.677   8.037
12580WAT     H137982   9.017   1.603   8.030
12580WAT     H237983   9.175   1.639   8.040
12581WAT      O37984   0.583   4.737   0.444
12581WAT     H137985   0.612   4.656   0.495
12581WAT     H237986   0.624   4.818   0.485
12582WAT      O37987   3.297   9.497   2.316
12582WAT     H137988   3.203   9.487   2.283
12582WAT     H237989   3.361   9.469   2.244
12583WAT      O37990   4.478   8.889   6.046
12583WAT     H137991   4.545   8.855   5.980
12583WAT     H237992   4.440   8.976   6.012
12584WAT      O37993   3.917   5.855   5.014
12584WAT     H137994   3.917   5.895   4.923
12584WAT     H237995   3.942   5.926   5.081
12585WAT      O37996   2.968   3.989   7.876
12585WAT     H137997   2.923   4.066   7.831
12585WAT     H237998   3.067   3.994   7.859
12586WAT      O37999   5.472   1.709   8.000
12586WAT     H138000   5.444   1.712   8.096
12586WAT     H238001   5.502   1.800   7.971
12587WAT      O38002   8.863   5.909   5.352
12587WAT     H138003   8.900   5.999   5.374
12587WAT     H238004   8.786   5.918   5.289
12588WAT      O38005   8.435   1.646   0.314
12588WAT     H138006   8.535   1.650   0.312
12588WAT     H238007   8.400   1.655   0.221
12589WAT      O38008   2.033   5.867   5.229
12589WAT     H138009   2.012   5.792   5.167
12589WAT     H238010   2.009   5.841   5.322
12590WAT      O38011   5.370   1.215   0.184
12590WAT     H138012   5.299   1.233   0.115
12590WAT     H238013   5.454   1.263   0.158
12591WAT      O38014   7.767   2.671   0.795
12591WAT     H138015   7.774   2.592   0.734
12591WAT     H238016   7.734   2.641   0.885
12592WAT      O38017   7.728   1.449   7.058
12592WAT     H138018   7.708   1.515   7.130
12592WAT     H238019   7.643   1.406   7.027
12593WAT      O38020   8.682   6.842   8.790
12593WAT     H138021   8.681   6.781   8.711
12593WAT     H238022   8.704   6.935   8.760
12594WAT      O38023   7.421   7.171   1.610
12594WAT     H138024   7.426   7.152   1.708
12594WAT     H238025   7.466   7.258   1.590
12595WAT      O38026   2.625   9.345   5.408
12595WAT     H138027   2.528   9.329   5.424
12595WAT     H238028   2.660   9.278   5.343
12596WAT      O38029   7.901   7.519   2.196
12596WAT     H138030   7.833   7.465   2.146
12596WAT     H238031   7.860   7.555   2.280
12597WAT      O38032   7.896   6.814   0.854
12597WAT     H138033   7.967   6.867   0.901
12597WAT     H238034   7.812   6.868   0.849
12598WAT      O38035   1.497   9.011   9.529
12598WAT     H138036   1.485   8.925   9.579
12598WAT     H238037   1.527   9.082   9.592
12599WAT      O38038   0.773   0.471   8.770
12599WAT     H138039   0.730   0.481   8.859
12599WAT     H238040   0.721   0.522   8.702
12600WAT      O38041   3.857   1.405   9.471
12600WAT     H138042   3.903   1.489   9.501
12600WAT     H238043   3.759   1.413   9.488
12601WAT      O38044   3.301   4.579   5.132
12601WAT     H138045   3.208   4.572   5.095
12601WAT     H238046   3.345   4.661   5.096
12602WAT      O38047   6.172   4.840   7.887
12602WAT     H138048   6.112   4.833   7.808
12602WAT     H238049   6.206   4.933   7.895
12603WAT      O38050   8.553   9.569   3.522
12603WAT     H138051   8.652   9.553   3.517
12603WAT     H238052   8.506   9.481   3.532
12604WAT      O38053   5.987   1.543   3.310
12604WAT     H138054   5.949   1.459   3.346
12604WAT     H238055   6.070   1.567   3.361
12605WAT      O38056   4.318   6.456   6.007
12605WAT     H138057   4.416   6.441   6.013
12605WAT     H238058   4.282   6.480   6.097
12606WAT      O38059   4.468   4.619   3.580
12606WAT     H138060   4.479   4.682   3.657
12606WAT     H238061   4.371   4.605   3.561
12607WAT      O38062   9.381   3.048   2.982
12607WAT     H138063   9.476   3.022   2.962
12607WAT     H238064   9.356   3.126   2.924
12608WAT      O38065   6.245   1.628   7.688
12608WAT     H138066   6.250   1.703   7.754
12608WAT     H238067   6.285   1.657   7.601
12609WAT      O38068   0.010   1.005   8.175
12609WAT     H138069  -0.026   1.031   8.085
12609WAT     H238070  -0.055   0.943   8.220
12610WAT      O38071   3.171   6.684   0.914
12610WAT     H138072   3.236   6.625   0.866
12610WAT     H238073   3.219   6.735   0.985
12611WAT      O38074   2.494   8.365   9.847
12611WAT     H138075   2.559   8.417   9.792
12611WAT     H238076   2.502   8.268   9.823
12612WAT      O38077   7.550   4.625   1.416
12612WAT     H138078   7.596   4.665   1.337
12612WAT     H238079   7.570   4.528   1.421
12613WAT      O38080   3.656   0.796   4.988
12613WAT     H138081   3.646   0.890   5.019
12613WAT     H238082   3.675   0.736   5.066
12614WAT      O38083   8.575   7.127   1.000
12614WAT     H138084   8.477   7.146   0.994
12614WAT     H238085   8.625   7.195   0.946
12615WAT      O38086   5.529   8.551   3.870
12615WAT     H138087   5.551   8.588   3.779
12615WAT     H238088   5.610   8.505   3.907
12616WAT      O38089   1.051   3.004   5.734
12616WAT     H138090   0.993   2.927   5.706
12616WAT     H238091   1.006   3.054   5.808
12617WAT      O38092   7.925   8.690   2.061
12617WAT     H138093   7.910   8.771   2.117
12617WAT     H238094   8.013   8.698   2.014
12618WAT      O38095   4.542   4.180   4.633
12618WAT     H138096   4.551   4.082   4.613
12618WAT     H238097   4.626   4.212   4.677
12619WAT      O38098   7.406   7.255   6.519
12619WAT     H138099   7.492   7.213   6.548
12619WAT     H238100   7.330   7.215   6.570
12620WAT      O38101   1.725   8.306   2.319
12620WAT     H138102   1.824   8.316   2.309
12620WAT     H238103   1.698   8.333   2.412
12621WAT      O38104   9.006   5.483   1.123
12621WAT     H138105   8.984   5.578   1.145
12621WAT     H238106   8.921   5.429   1.118
12622WAT      O38107   7.079   2.974   4.804
12622WAT     H138108   7.077   3.016   4.895
12622WAT     H238109   6.987   2.945   4.778
12623WAT      O38110   8.695   1.696   0.021
12623WAT     H138111   8.712   1.674   0.117
12623WAT     H238112   8.625   1.767   0.015
12624WAT      O38113   3.846   5.134   7.912
12624WAT     H138114   3.898   5.098   7.989
12624WAT     H238115   3.751   5.147   7.939
12625WAT      O38116   3.232   0.305   5.182
12625WAT     H138117   3.141   0.309   5.141
12625WAT     H238118   3.281   0.226   5.146
12626WAT      O38119   6.550   7.373   4.248
12626WAT     H138120   6.545   7.282   4.290
12626WAT     H238121   6.507   7.440   4.308
12627WAT      O38122   7.026   3.630   9.164
12627WAT     H138123   7.037   3.545   9.113
12627WAT     H238124   6.947   3.621   9.226
12628WAT      O38125   9.043   8.331   5.621
12628WAT     H138126   9.113   8.354   5.689
12628WAT     H238127   8.952   8.348   5.661
12629WAT      O38128   2.441   5.109   3.681
12629WAT     H138129   2.537   5.084   3.676
12629WAT     H238130   2.400   5.100   3.590
12630WAT      O38131   9.123   1.858   3.156
12630WAT     H138132   9.177   1.774   3.150
12630WAT     H238133   9.070   1.871   3.072
12631WAT      O38134   0.788   7.137   9.482
12631WAT     H138135   0.866   7.081   9.452
12631WAT     H238136   0.722   7.145   9.407
12632WAT      O38137   0.386   0.724   3.904
12632WAT     H138138   0.292   0.691   3.915
12632WAT     H238139   0.392   0.782   3.823
12633WAT      O38140   2.627   4.775   9.023
12633WAT     H138141   2.624   4.699   9.088
12633WAT     H238142   2.719   4.815   9.024
12634WAT      O38143   2.510   1.823   8.971
12634WAT     H138144   2.609   1.810   8.976
12634WAT     H238145   2.487   1.918   8.994
12635WAT      O38146   1.513   3.948   9.297
12635WAT     H138147   1.502   4.032   9.244
12635WAT     H238148   1.610   3.931   9.314
12636WAT      O38149   1.047   7.156   9.724
12636WAT     H138150   1.010   7.135   9.814
12636WAT     H238151   1.023   7.084   9.660
12637WAT      O38152   1.387   6.496   2.359
12637WAT     H138153   1.401   6.592   2.386
12637WAT     H238154   1.295   6.485   2.322
12638WAT      O38155   6.001   6.758   5.963
12638WAT     H138156   5.982   6.795   6.054
12638WAT     H238157   5.973   6.826   5.894
12639WAT      O38158   2.807   3.172   0.349
12639WAT     H138159   2.763   3.170   0.439
12639WAT     H238160   2.887   3.112   0.350
12640WAT      O38161   8.932   7.342   8.201
12640WAT     H138162   8.838   7.345   8.234
12640WAT     H238163   8.988   7.287   8.264
12641WAT      O38164   0.904   2.947   1.710
12641WAT     H138165   0.970   2.872   1.714
12641WAT     H238166   0.840   2.939   1.787
12642WAT      O38167   6.903   6.089   9.126
12642WAT     H138168   6.949   6.063   9.211
12642WAT     H238169   6.947   6.042   9.049
12643WAT      O38170   5.418   4.648   8.777
12643WAT     H138171   5.432   4.712   8.853
12643WAT     H238172   5.506   4.623   8.737
12644WAT      O38173   0.739   8.844   5.616
12644WAT     H138174   0.789   8.920   5.574
12644WAT     H238175   0.798   8.799   5.684
12645WAT      O38176   1.547   2.081   5.575
12645WAT     H138177   1.510   2.092   5.668
12645WAT     H238178   1.506   1.999   5.533
12646WAT      O38179   2.158   1.018   8.552
12646WAT     H138180   2.163   1.118   8.559
12646WAT     H238181   2.086   0.984   8.612
12647WAT      O38182   8.221   3.802   1.885
12647WAT     H138183   8.237   3.886   1.937
12647WAT     H238184   8.125   3.798   1.857
12648WAT      O38185   3.780   3.499   2.137
12648WAT     H138186   3.866   3.544   2.161
12648WAT     H238187   3.736   3.548   2.062
12649WAT      O38188   8.236   8.176   6.825
12649WAT     H138189   8.255   8.140   6.734
12649WAT     H238190   8.312   8.153   6.886
12650WAT      O38191   9.213   5.683   1.645
12650WAT     H138192   9.178   5.630   1.568
12650WAT     H238193   9.265   5.761   1.610
12651WAT      O38194   2.518   4.163   4.444
12651WAT     H138195   2.590   4.098   4.469
12651WAT     H238196   2.559   4.250   4.417
12652WAT      O38197   3.787   8.537   3.926
12652WAT     H138198   3.835   8.594   3.860
12652WAT     H238199   3.805   8.570   4.018
12653WAT      O38200   2.345   4.873   0.145
12653WAT     H138201   2.423   4.924   0.109
12653WAT     H238202   2.272   4.937   0.170
12654WAT      O38203   2.156   0.116   5.309
12654WAT     H138204   2.173   0.147   5.403
12654WAT     H238205   2.177   0.191   5.246
12655WAT      O38206   6.893   5.737   9.537
12655WAT     H138207   6.986   5.742   9.571
12655WAT     H238208   6.851   5.651   9.565
12656WAT      O38209   2.128   4.455   0.975
12656WAT     H138210   2.199   4.393   0.943
12656WAT     H238211   2.054   4.402   1.016
12657WAT      O38212   9.532   4.105   1.168
12657WAT     H138213   9.469   4.179   1.192
12657WAT     H238214   9.511   4.072   1.076
12658WAT      O38215   0.897   5.347   2.307
12658WAT     H138216   0.970   5.397   2.352
12658WAT     H238217   0.813   5.355   2.361
12659WAT      O38218   3.058   9.587   8.597
12659WAT     H138219   3.139   9.580   8.540
12659WAT     H238220   3.070   9.659   8.665
12660WAT      O38221   3.531   0.241   6.785
12660WAT     H138222   3.441   0.243   6.829
12660WAT     H238223   3.599   0.279   6.848
12661WAT      O38224   0.207   3.070   5.102
12661WAT     H138225   0.162   2.980   5.097
12661WAT     H238226   0.167   3.123   5.176
12662WAT      O38227   7.501   7.018   8.397
12662WAT     H138228   7.456   7.107   8.390
12662WAT     H238229   7.444   6.955   8.451
12663WAT      O38230   0.325   6.489   1.170
12663WAT     H138231   0.244   6.466   1.116
12663WAT     H238232   0.368   6.405   1.203
12664WAT      O38233   0.792   6.193   8.487
12664WAT     H138234   0.704   6.167   8.526
12664WAT     H238235   0.857   6.211   8.561
12665WAT      O38236   1.922   8.418   4.963
12665WAT     H138237   1.826   8.390   4.962
12665WAT     H238238   1.929   8.511   4.926
12666WAT      O38239   1.944   6.024   0.807
12666WAT     H138240   1.974   6.085   0.880
12666WAT     H238241   2.009   6.028   0.731
12667WAT      O38242   9.137   7.192   5.672
12667WAT     H138243   9.160   7.107   5.625
12667WAT     H238244   9.039   7.194   5.692
12668WAT      O38245   0.266   2.769   3.589
12668WAT     H138246   0.255   2.857   3.635
12668WAT     H238247   0.258   2.695   3.657
12669WAT      O38248   0.095   6.423   7.322
12669WAT     H138249  -0.005   6.424   7.331
12669WAT     H238250   0.130   6.335   7.354
12670WAT      O38251   3.681   6.240   4.434
12670WAT     H138252   3.636   6.151   4.421
12670WAT     H238253   3.702   6.280   4.345
12671WAT      O38254   0.614   6.983   7.671
12671WAT     H138255   0.630   7.082   7.672
12671WAT     H238256   0.548   6.960   7.742
12672WAT      O38257   8.306   5.150   0.698
12672WAT     H138258   8.340   5.138   0.792
12672WAT     H238259   8.366   5.212   0.648
12673WAT      O38260   0.132   3.763   0.703
12673WAT     H138261   0.053   3.708   0.729
12673WAT     H238262   0.106   3.859   0.698
12674WAT      O38263   9.368   6.381   8.306
12674WAT     H138264   9.348   6.469   8.263
12674WAT     H238265   9.452   6.388   8.359
12675WAT      O38266   4.539   9.110   3.628
12675WAT     H138267   4.503   9.032   3.678
12675WAT     H238268   4.497   9.114   3.538
12676WAT      O38269   5.805   6.811   4.779
12676WAT     H138270   5.903   6.816   4.797
12676WAT     H238271   5.772   6.719   4.801
12677WAT      O38272   9.238   7.004   9.710
12677WAT     H138273   9.181   6.950   9.771
12677WAT     H238274   9.220   7.101   9.725
12678WAT      O38275   8.561   2.215   4.920
12678WAT     H138276   8.582   2.296   4.974
12678WAT     H238277   8.617   2.138   4.950
12679WAT      O38278   8.047   6.869   7.449
12679WAT     H138279   8.105   6.810   7.393
12679WAT     H238280   8.059   6.845   7.545
12680WAT      O38281   4.088   9.116   8.566
12680WAT     H138282   4.155   9.100   8.493
12680WAT     H238283   4.054   9.029   8.601
12681WAT      O38284   7.604   3.322   1.214
12681WAT     H138285   7.569   3.241   1.167
12681WAT     H238286   7.531   3.389   1.224
12682WAT      O38287   1.943   6.876   5.009
12682WAT     H138288   1.845   6.862   5.018
12682WAT     H238289   1.983   6.890   5.100
12683WAT      O38290   0.150   5.625   3.908
12683WAT     H138291   0.092   5.613   3.827
12683WAT     H238292   0.150   5.721   3.934
12684WAT      O38293   4.144   9.612   9.377
12684WAT     H138294   4.238   9.647   9.374
12684WAT     H238295   4.121   9.588   9.471
12685WAT      O38296   3.385   7.025   3.402
12685WAT     H138297   3.432   6.939   3.420
12685WAT     H238298   3.379   7.040   3.304
12686WAT      O38299   6.711   0.664   8.857
12686WAT     H138300   6.749   0.671   8.764
12686WAT     H238301   6.666   0.750   8.881
12687WAT      O38302   5.277   3.948   1.817
12687WAT     H138303   5.224   3.917   1.896
12687WAT     H238304   5.220   3.944   1.735
12688WAT      O38305   6.182   8.008   2.446
12688WAT     H138306   6.164   8.088   2.388
12688WAT     H238307   6.166   7.924   2.394
12689WAT      O38308   5.936   1.176   3.780
12689WAT     H138309   5.966   1.082   3.764
12689WAT     H238310   6.002   1.240   3.740
12690WAT      O38311   1.763   6.836   9.882
12690WAT     H138312   1.854   6.843   9.923
12690WAT     H238313   1.771   6.837   9.782
12691WAT      O38314   6.833   8.836   8.198
12691WAT     H138315   6.770   8.913   8.199
12691WAT     H238316   6.782   8.751   8.183
12692WAT      O38317   6.986   2.488   5.090
12692WAT     H138318   6.955   2.435   5.170
12692WAT     H238319   6.927   2.467   5.012
12693WAT      O38320   8.010   7.907   4.428
12693WAT     H138321   7.912   7.923   4.443
12693WAT     H238322   8.026   7.885   4.332
12694WAT      O38323   0.806   0.361   9.803
12694WAT     H138324   0.859   0.438   9.840
12694WAT     H238325   0.830   0.349   9.706
12695WAT      O38326   6.201   6.488   7.504
12695WAT     H138327   6.205   6.428   7.424
12695WAT     H238328   6.117   6.471   7.555
12696WAT      O38329   8.155   2.266   0.593
12696WAT     H138330   8.119   2.262   0.499
12696WAT     H238331   8.148   2.360   0.627
12697WAT      O38332   9.854   2.695   4.017
12697WAT     H138333   9.779   2.642   4.054
12697WAT     H238334   9.860   2.783   4.064
12698WAT      O38335   8.760   5.416   5.605
12698WAT     H138336   8.810   5.490   5.559
12698WAT     H238337   8.805   5.394   5.692
12699WAT      O38338   8.485   7.739   3.404
12699WAT     H138339   8.501   7.712   3.499
12699WAT     H238340   8.389   7.724   3.381
12700WAT      O38341   4.868   2.409   9.879
12700WAT     H138342   4.931   2.431   9.805
12700WAT     H238343   4.851   2.490   9.934
12701WAT      O38344   4.051   3.777   8.263
12701WAT     H138345   4.082   3.854   8.318
12701WAT     H238346   4.045   3.695   8.320
12702WAT      O38347   6.815   5.462   1.667
12702WAT     H138348   6.813   5.412   1.580
12702WAT     H238349   6.909   5.469   1.699
12703WAT      O38350   0.104   6.004   9.838
12703WAT     H138351   0.047   5.971   9.913
12703WAT     H238352   0.149   5.927   9.793
12704WAT      O38353   6.810   9.525   7.949
12704WAT     H138354   6.905   9.511   7.921
12704WAT     H238355   6.788   9.461   8.023
12705WAT      O38356   3.507   1.471   5.582
12705WAT     H138357   3.549   1.399   5.526
12705WAT     H238358   3.507   1.442   5.678
12706WAT      O38359   1.753   9.458   5.061
12706WAT     H138360   1.727   9.531   4.997
12706WAT     H238361   1.846   9.475   5.094
12707WAT      O38362   0.829   3.646   1.314
12707WAT     H138363   0.834   3.595   1.399
12707WAT     H238364   0.804   3.741   1.332
12708WAT      O38365   6.881   9.350   8.294
12708WAT     H138366   6.968   9.317   8.257
12708WAT     H238367   6.825   9.272   8.321
12709WAT      O38368   0.424   3.188   7.538
12709WAT     H138369   0.446   3.180   7.440
12709WAT     H238370   0.327   3.212   7.548
12710WAT      O38371   1.702   5.589   5.848
12710WAT     H138372   1.795   5.559   5.825
12710WAT     H238373   1.688   5.581   5.947
12711WAT      O38374   1.479   6.872   7.447
12711WAT     H138375   1.531   6.788   7.435
12711WAT     H238376   1.536   6.950   7.420
12712WAT      O38377   6.756   3.682   8.499
12712WAT     H138378   6.795   3.644   8.416
12712WAT     H238379   6.658   3.662   8.502
12713WAT      O38380   8.971   7.220   3.302
12713WAT     H138381   8.904   7.159   3.260
12713WAT     H238382   9.029   7.259   3.230
12714WAT      O38383   5.412   4.614   5.836
12714WAT     H138384   5.343   4.645   5.770
12714WAT     H238385   5.502   4.614   5.793
12715WAT      O38386   6.671   9.331   0.947
12715WAT     H138387   6.644   9.420   0.910
12715WAT     H238388   6.766   9.336   0.979
12716WAT      O38389   9.556   7.800   6.573
12716WAT     H138390   9.552   7.701   6.559
12716WAT     H238391   9.651   7.829   6.583
12717WAT      O38392   5.362   0.627   5.875
12717WAT     H138393   5.270   0.658   5.899
12717WAT     H238394   5.382   0.653   5.780
12718WAT      O38395   0.719   4.816   4.727
12718WAT     H138396   0.673   4.739   4.682
12718WAT     H238397   0.804   4.836   4.679
12719WAT      O38398   6.390   0.642   0.422
12719WAT     H138399   6.412   0.633   0.325
12719WAT     H238400   6.464   0.602   0.476
12720WAT      O38401   6.071   2.899   4.427
12720WAT     H138402   6.092   2.814   4.474
12720WAT     H238403   6.146   2.964   4.442
12721WAT      O38404   2.515   0.867   9.216
12721WAT     H138405   2.461   0.941   9.176
12721WAT     H238406   2.609   0.897   9.231
12722WAT      O38407   0.778   0.990   7.224
12722WAT     H138408   0.806   1.071   7.173
12722WAT     H238409   0.735   0.924   7.163
12723WAT      O38410   3.977   3.376   5.027
12723WAT     H138411   4.000   3.291   4.981
12723WAT     H238412   3.877   3.385   5.034
12724WAT      O38413   5.110   2.311   1.052
12724WAT     H138414   5.166   2.352   1.123
12724WAT     H238415   5.130   2.213   1.045
12725WAT      O38416   9.223   6.548   6.017
12725WAT     H138417   9.208   6.530   6.114
12725WAT     H238418   9.259   6.465   5.973
12726WAT      O38419   3.515   9.428   1.338
12726WAT     H138420   3.556   9.449   1.249
12726WAT     H238421   3.415   9.431   1.330
12727WAT      O38422   2.632   3.814   7.364
12727WAT     H138423   2.647   3.834   7.461
12727WAT     H238424   2.652   3.895   7.310
12728WAT      O38425   8.838   7.867   3.950
12728WAT     H138426   8.739   7.879   3.954
12728WAT     H238427   8.875   7.918   3.872
12729WAT      O38428   0.304   3.681   1.897
12729WAT     H138429   0.340   3.614   1.832
12729WAT     H238430   0.377   3.745   1.923
12730WAT      O38431   5.353   7.825   6.074
12730WAT     H138432   5.391   7.904   6.025
12730WAT     H238433   5.270   7.853   6.123
12731WAT      O38434   6.980   4.490   2.772
12731WAT     H138435   6.941   4.404   2.805
12731WAT     H238436   6.913   4.563   2.783
12732WAT      O38437   6.489   2.138   1.867
12732WAT     H138438   6.421   2.201   1.830
12732WAT     H238439   6.454   2.044   1.862
12733WAT      O38440   3.574   7.580   6.784
12733WAT     H138441   3.648   7.647   6.777
12733WAT     H238442   3.557   7.538   6.695
12734WAT      O38443   1.402   8.106   9.357
12734WAT     H138444   1.402   8.174   9.283
12734WAT     H238445   1.310   8.098   9.394
12735WAT      O38446   6.643   4.755   0.660
12735WAT     H138447   6.726   4.743   0.605
12735WAT     H238448   6.563   4.734   0.604
12736WAT      O38449   6.443   2.830   8.029
12736WAT     H138450   6.500   2.912   8.030
12736WAT     H238451   6.351   2.853   8.061
12737WAT      O38452   5.511   8.389   5.766
12737WAT     H138453   5.449   8.333   5.711
12737WAT     H238454   5.600   8.345   5.773
12738WAT      O38455   7.045   4.470   3.479
12738WAT     H138456   6.962   4.513   3.442
12738WAT     H238457   7.061   4.505   3.572
12739WAT      O38458   1.673   4.954   6.093
12739WAT     H138459   1.672   5.002   6.181
12739WAT     H238460   1.701   4.859   6.107
12740WAT      O38461   9.732   6.768   3.390
12740WAT     H138462   9.783   6.804   3.467
12740WAT     H238463   9.702   6.674   3.411
12741WAT      O38464   2.729   4.637   7.516
12741WAT     H138465   2.753   4.690   7.434
12741WAT     H238466   2.664   4.689   7.571
12742WAT      O38467   6.183   8.504   6.041
12742WAT     H138468   6.224   8.493   5.951
12742WAT     H238469   6.252   8.539   6.105
12743WAT      O38470   4.630   3.197   2.964
12743WAT     H138471   4.672   3.106   2.964
12743WAT     H238472   4.612   3.225   3.058
12744WAT      O38473   4.920   3.650   2.907
12744WAT     H138474   4.960   3.657   2.816
12744WAT     H238475   4.820   3.658   2.900
12745WAT      O38476   5.115   0.305   0.550
12745WAT     H138477   5.139   0.402   0.538
12745WAT     H238478   5.179   0.262   0.613
12746WAT      O38479   4.315   7.743   6.814
12746WAT     H138480   4.357   7.664   6.858
12746WAT     H238481   4.216   7.731   6.811
12747WAT      O38482   4.015   7.205   4.855
12747WAT     H138483   3.977   7.119   4.821
12747WAT     H238484   4.022   7.271   4.779
12748WAT      O38485   0.489   2.692   2.252
12748WAT     H138486   0.407   2.712   2.198
12748WAT     H238487   0.566   2.678   2.190
12749WAT      O38488   4.574   2.166   3.721
12749WAT     H138489   4.482   2.153   3.683
12749WAT     H238490   4.610   2.078   3.751
12750WAT      O38491   1.675   4.411   4.830
12750WAT     H138492   1.704   4.449   4.918
12750WAT     H238493   1.754   4.370   4.784
12751WAT      O38494   6.843   0.406   2.164
12751WAT     H138495   6.853   0.441   2.070
12751WAT     H238496   6.810   0.479   2.223
12752WAT      O38497   8.354   5.417   2.099
12752WAT     H138498   8.431   5.463   2.054
12752WAT     H238499   8.382   5.381   2.187
12753WAT      O38500   2.506   9.086   2.450
12753WAT     H138501   2.529   9.011   2.387
12753WAT     H238502   2.572   9.087   2.525
12754WAT      O38503   6.947   0.011   0.876
12754WAT     H138504   6.858   0.055   0.861
12754WAT     H238505   6.943  -0.084   0.846
12755WAT      O38506   7.470   2.714   8.295
12755WAT     H138507   7.422   2.737   8.210
12755WAT     H238508   7.569   2.722   8.280
12756WAT      O38509   4.623   7.956   9.290
12756WAT     H138510   4.539   7.923   9.335
12756WAT     H238511   4.645   8.047   9.325
12757WAT      O38512   7.085   2.991   8.293
12757WAT     H138513   7.166   2.959   8.244
12757WAT     H238514   7.036   2.913   8.331
12758WAT      O38515   4.425   6.861   0.162
12758WAT     H138516   4.384   6.951   0.168
12758WAT     H238517   4.487   6.847   0.240
12759WAT      O38518   7.734   1.750   1.363
12759WAT     H138519   7.785   1.665   1.376
12759WAT     H238520   7.746   1.781   1.269
12760WAT      O38521   5.324   1.790   3.437
12760WAT     H138522   5.423   1.796   3.449
12760WAT     H238523   5.292   1.868   3.384
12761WAT      O38524   8.728   0.274   2.899
12761WAT     H138525   8.812   0.255   2.847
12761WAT     H238526   8.744   0.256   2.996
12762WAT      O38527   5.620   8.351   9.621
12762WAT     H138528   5.636   8.308   9.532
12762WAT     H238529   5.638   8.450   9.613
12763WAT      O38530   1.737   7.690   3.615
12763WAT     H138531   1.686   7.734   3.541
12763WAT     H238532   1.711   7.732   3.702
12764WAT      O38533   7.890   4.535   1.259
12764WAT     H138534   7.867   4.565   1.351
12764WAT     H238535   7.845   4.448   1.240
12765WAT      O38536   6.725   5.722   8.384
12765WAT     H138537   6.740   5.662   8.306
12765WAT     H238538   6.803   5.718   8.446
12766WAT      O38539   0.566   1.995   5.376
12766WAT     H138540   0.646   1.935   5.383
12766WAT     H238541   0.566   2.040   5.287
12767WAT      O38542   6.425   6.808   5.590
12767WAT     H138543   6.493   6.735   5.598
12767WAT     H238544   6.447   6.866   5.512
12768WAT      O38545   9.539   3.407   5.086
12768WAT     H138546   9.634   3.439   5.086
12768WAT     H238547   9.481   3.473   5.134
12769WAT      O38548   1.257   3.010   5.935
12769WAT     H138549   1.187   3.000   5.864
12769WAT     H238550   1.281   2.920   5.972
12770WAT      O38551   6.505   3.340   7.441
12770WAT     H138552   6.567   3.304   7.371
12770WAT     H238553   6.436   3.271   7.463
12771WAT      O38554   6.068   5.951   2.282
12771WAT     H138555   5.968   5.954   2.290
12771WAT     H238556   6.100   5.860   2.308
12772WAT      O38557   9.390   6.248   3.025
12772WAT     H138558   9.418   6.204   3.110
12772WAT     H238559   9.322   6.192   2.979
12773WAT      O38560   4.910   5.547   3.157
12773WAT     H138561   4.981   5.618   3.156
12773WAT     H238562   4.871   5.540   3.249
12774WAT      O38563   9.664   3.416   8.268
12774WAT     H138564   9.713   3.361   8.336
12774WAT     H238565   9.597   3.475   8.314
12775WAT      O38566   5.511   4.058   3.571
12775WAT     H138567   5.442   3.988   3.556
12775WAT     H238568   5.582   4.022   3.631
12776WAT      O38569   2.650   5.631   0.660
12776WAT     H138570   2.558   5.654   0.691
12776WAT     H238571   2.651   5.537   0.626
12777WAT      O38572   2.117   9.272   1.222
12777WAT     H138573   2.064   9.352   1.249
12777WAT     H238574   2.213   9.297   1.211
12778WAT      O38575   5.771   1.257   8.622
12778WAT     H138576   5.772   1.357   8.614
12778WAT     H238577   5.700   1.220   8.562
12779WAT      O38578   4.008   5.584   2.368
12779WAT     H138579   4.041   5.647   2.438
12779WAT     H238580   4.030   5.490   2.394
12780WAT      O38581   3.210   4.193   8.726
12780WAT     H138582   3.182   4.099   8.710
12780WAT     H238583   3.211   4.211   8.824
12781WAT      O38584   5.960   4.355   3.939
12781WAT     H138585   6.050   4.379   3.903
12781WAT     H238586   5.918   4.436   3.980
12782WAT      O38587   6.968   5.739   4.091
12782WAT     H138588   6.975   5.652   4.043
12782WAT     H238589   6.960   5.722   4.189
12783WAT      O38590   7.810   4.600   6.247
12783WAT     H138591   7.890   4.551   6.282
12783WAT     H238592   7.728   4.564   6.292
12784WAT      O38593   4.302   0.165   4.052
12784WAT     H138594   4.381   0.105   4.044
12784WAT     H238595   4.220   0.111   4.070
12785WAT      O38596   1.339   0.417   7.944
12785WAT     H138597   1.340   0.392   7.847
12785WAT     H238598   1.422   0.470   7.965
12786WAT      O38599   7.574   0.919   9.020
12786WAT     H138600   7.619   1.009   9.017
12786WAT     H238601   7.638   0.848   8.992
12787WAT      O38602   1.253   5.262   0.329
12787WAT     H138603   1.255   5.359   0.355
12787WAT     H238604   1.248   5.206   0.412
12788WAT      O38605   4.500   2.065   8.963
12788WAT     H138606   4.507   2.068   9.063
12788WAT     H238607   4.547   1.984   8.929
12789WAT      O38608   9.733   7.883   7.890
12789WAT     H138609   9.819   7.839   7.864
12789WAT     H238610   9.746   7.982   7.893
12790WAT      O38611   9.448   3.800   8.970
12790WAT     H138612   9.520   3.864   8.995
12790WAT     H238613   9.439   3.797   8.871
12791WAT      O38614   7.396   3.988   4.396
12791WAT     H138615   7.381   3.902   4.446
12791WAT     H238616   7.315   4.045   4.403
12792WAT      O38617   1.892   2.634   0.197
12792WAT     H138618   1.957   2.685   0.254
12792WAT     H238619   1.809   2.615   0.250
12793WAT      O38620   6.484   6.254   5.520
12793WAT     H138621   6.505   6.332   5.462
12793WAT     H238622   6.422   6.192   5.472
12794WAT      O38623   9.297   7.230   4.786
12794WAT     H138624   9.250   7.275   4.709
12794WAT     H238625   9.344   7.300   4.840
12795WAT      O38626   8.392   6.074   0.991
12795WAT     H138627   8.309   6.018   0.984
12795WAT     H238628   8.416   6.085   1.088
12796WAT      O38629   2.313   4.234   3.487
12796WAT     H138630   2.293   4.136   3.486
12796WAT     H238631   2.263   4.280   3.414
12797WAT      O38632   9.280   2.656   2.530
12797WAT     H138633   9.206   2.708   2.487
12797WAT     H238634   9.296   2.692   2.622
12798WAT      O38635   2.781   9.312   8.465
12798WAT     H138636   2.687   9.286   8.488
12798WAT     H238637   2.832   9.231   8.438
12799WAT      O38638   9.071   2.433   3.998
12799WAT     H138639   9.165   2.403   4.015
12799WAT     H238640   9.026   2.452   4.085
12800WAT      O38641   1.395   6.179   9.689
12800WAT     H138642   1.412   6.085   9.659
12800WAT     H238643   1.381   6.238   9.610
12801WAT      O38644   6.982   0.466   7.613
12801WAT     H138645   6.913   0.435   7.549
12801WAT     H238646   6.944   0.538   7.671
12802WAT      O38647   5.518   9.057   7.859
12802WAT     H138648   5.540   8.961   7.879
12802WAT     H238649   5.448   9.060   7.787
12803WAT      O38650   6.556   6.514   2.023
12803WAT     H138651   6.580   6.491   1.929
12803WAT     H238652   6.558   6.432   2.079
12804WAT      O38653   4.939   2.598   1.223
12804WAT     H138654   4.892   2.526   1.274
12804WAT     H238655   4.967   2.562   1.134
12805WAT      O38656   4.135   7.947   5.564
12805WAT     H138657   4.126   8.019   5.633
12805WAT     H238658   4.089   7.974   5.480
12806WAT      O38659   2.190   0.789   5.852
12806WAT     H138660   2.212   0.819   5.759
12806WAT     H238661   2.091   0.772   5.858
12807WAT      O38662   4.054   4.308   6.547
12807WAT     H138663   4.129   4.339   6.605
12807WAT     H238664   4.008   4.230   6.590
12808WAT      O38665   0.188   8.042   3.134
12808WAT     H138666   0.092   8.040   3.105
12808WAT     H238667   0.194   8.079   3.226
12809WAT      O38668   5.726   7.298   3.559
12809WAT     H138669   5.759   7.393   3.557
12809WAT     H238670   5.709   7.267   3.466
12810WAT      O38671   1.835   8.274   1.902
12810WAT     H138672   1.784   8.359   1.909
12810WAT     H238673   1.932   8.291   1.924
12811WAT      O38674   8.758   3.861   6.255
12811WAT     H138675   8.672   3.842   6.207
12811WAT     H238676   8.835   3.842   6.194
12812WAT      O38677   8.014   7.582   1.191
12812WAT     H138678   8.040   7.555   1.098
12812WAT     H238679   8.093   7.571   1.251
12813WAT      O38680   5.249   0.749   7.913
12813WAT     H138681   5.153   0.773   7.926
12813WAT     H238682   5.293   0.740   8.003
12814WAT      O38683   8.953   8.313   3.174
12814WAT     H138684   8.943   8.397   3.121
12814WAT     H238685   8.869   8.259   3.167
12815WAT      O38686   6.016   0.821   8.284
12815WAT     H138687   6.028   0.757   8.360
12815WAT     H238688   6.105   0.858   8.258
12816WAT      O38689   2.948   4.219   1.105
12816WAT     H138690   2.880   4.277   1.149
12816WAT     H238691   2.905   4.134   1.075
12817WAT      O38692   5.459   5.404   6.852
12817WAT     H138693   5.485   5.477   6.915
12817WAT     H238694   5.521   5.405   6.773
12818WAT      O38695   8.456   6.358   6.673
12818WAT     H138696   8.511   6.434   6.640
12818WAT     H238697   8.387   6.392   6.737
12819WAT      O38698   7.886   2.372   1.098
12819WAT     H138699   7.929   2.380   1.008
12819WAT     H238700   7.911   2.285   1.140
12820WAT      O38701   7.897   8.151   6.085
12820WAT     H138702   7.987   8.133   6.125
12820WAT     H238703   7.866   8.070   6.035
12821WAT      O38704   4.104   2.247   5.288
12821WAT     H138705   4.121   2.150   5.304
12821WAT     H238706   4.097   2.263   5.189
12822WAT      O38707   4.154   4.527   5.641
12822WAT     H138708   4.203   4.614   5.649
12822WAT     H238709   4.064   4.536   5.683
12823WAT      O38710   3.119   9.729   7.718
12823WAT     H138711   3.051   9.661   7.690
12823WAT     H238712   3.139   9.718   7.816
12824WAT      O38713   5.060   8.295   7.700
12824WAT     H138714   5.102   8.364   7.640
12824WAT     H238715   5.024   8.220   7.644
12825WAT      O38716   9.210   4.848   7.782
12825WAT     H138717   9.308   4.866   7.771
12825WAT     H238718   9.180   4.785   7.711
12826WAT      O38719   4.893   5.665   0.970
12826WAT     H138720   4.812   5.701   1.016
12826WAT     H238721   4.911   5.718   0.887
12827WAT      O38722   4.253   5.617   7.860
12827WAT     H138723   4.244   5.521   7.887
12827WAT     H238724   4.198   5.635   7.779
12828WAT      O38725   7.072   3.018   0.760
12828WAT     H138726   6.997   2.955   0.783
12828WAT     H238727   7.068   3.040   0.663
12829WAT      O38728   5.416   2.501   0.860
12829WAT     H138729   5.482   2.576   0.852
12829WAT     H238730   5.451   2.433   0.924
12830WAT      O38731   4.716   7.740   5.793
12830WAT     H138732   4.642   7.724   5.728
12830WAT     H238733   4.803   7.749   5.743
12831WAT      O38734   8.973   7.869   0.997
12831WAT     H138735   8.926   7.956   1.013
12831WAT     H238736   9.032   7.848   1.075
12832WAT      O38737   3.429   4.501   0.960
12832WAT     H138738   3.401   4.597   0.961
12832WAT     H238739   3.353   4.444   0.929
12833WAT      O38740   9.152   6.202   9.389
12833WAT     H138741   9.249   6.218   9.407
12833WAT     H238742   9.104   6.190   9.476
12834WAT      O38743   7.680   8.625   0.724
12834WAT     H138744   7.738   8.706   0.720
12834WAT     H238745   7.717   8.561   0.792
12835WAT      O38746   5.383   6.385   0.932
12835WAT     H138747   5.361   6.295   0.893
12835WAT     H238748   5.382   6.454   0.859
12836WAT      O38749   2.933   2.406   4.155
12836WAT     H138750   2.909   2.391   4.059
12836WAT     H238751   2.854   2.444   4.203
12837WAT      O38752   1.236   3.439   2.574
12837WAT     H138753   1.270   3.469   2.485
12837WAT     H238754   1.201   3.346   2.567
12838WAT      O38755   0.221   5.562   5.011
12838WAT     H138756   0.145   5.514   5.054
12838WAT     H238757   0.227   5.655   5.046
12839WAT      O38758   2.495   0.546   2.320
12839WAT     H138759   2.424   0.616   2.313
12839WAT     H238760   2.576   0.585   2.363
12840WAT      O38761   6.206   0.193   6.867
12840WAT     H138762   6.278   0.182   6.936
12840WAT     H238763   6.126   0.235   6.908
12841WAT      O38764   4.111   7.306   6.381
12841WAT     H138765   4.053   7.375   6.338
12841WAT     H238766   4.160   7.346   6.458
12842WAT      O38767   0.943   0.718   3.605
12842WAT     H138768   0.890   0.791   3.562
12842WAT     H238769   0.994   0.668   3.535
12843WAT      O38770   5.728   2.677   7.259
12843WAT     H138771   5.706   2.597   7.203
12843WAT     H238772   5.827   2.679   7.277
12844WAT      O38773   6.564   9.404   3.236
12844WAT     H138774   6.592   9.377   3.144
12844WAT     H238775   6.585   9.331   3.300
12845WAT      O38776   9.570   3.222   2.239
12845WAT     H138777   9.494   3.184   2.291
12845WAT     H238778   9.620   3.287   2.296
12846WAT      O38779   7.824   1.673   0.822
12846WAT     H138780   7.873   1.620   0.892
12846WAT     H238781   7.744   1.622   0.792
12847WAT      O38782   8.467   8.205   4.799
12847WAT     H138783   8.529   8.178   4.873
12847WAT     H238784   8.373   8.181   4.824
12848WAT      O38785   7.209   0.437   1.417
12848WAT     H138786   7.142   0.362   1.411
12848WAT     H238787   7.218   0.466   1.512
12849WAT      O38788   4.800   7.850   1.525
12849WAT     H138789   4.718   7.906   1.515
12849WAT     H238790   4.881   7.908   1.518
12850WAT      O38791   2.565   4.958   8.318
12850WAT     H138792   2.568   5.029   8.247
12850WAT     H238793   2.552   4.869   8.276
12851WAT      O38794   4.094   2.459   7.054
12851WAT     H138795   4.041   2.489   6.974
12851WAT     H238796   4.133   2.539   7.099
12852WAT      O38797   1.070   7.876   8.849
12852WAT     H138798   1.166   7.861   8.873
12852WAT     H238799   1.053   7.974   8.839
12853WAT      O38800   0.866   7.465   8.129
12853WAT     H138801   0.822   7.549   8.162
12853WAT     H238802   0.952   7.488   8.085
12854WAT      O38803   0.411   0.359   8.920
12854WAT     H138804   0.355   0.439   8.941
12854WAT     H238805   0.353   0.288   8.880
12855WAT      O38806   5.800   7.774   8.369
12855WAT     H138807   5.807   7.814   8.277
12855WAT     H238808   5.758   7.841   8.430
12856WAT      O38809   9.043   5.026   9.626
12856WAT     H138810   9.027   5.111   9.676
12856WAT     H238811   9.008   5.036   9.532
12857WAT      O38812   3.015   7.721   2.132
12857WAT     H138813   2.934   7.714   2.074
12857WAT     H238814   3.006   7.801   2.192
12858WAT      O38815   6.441   2.200   4.873
12858WAT     H138816   6.359   2.191   4.816
12858WAT     H238817   6.466   2.111   4.911
12859WAT      O38818   0.707   6.862   1.259
12859WAT     H138819   0.624   6.915   1.242
12859WAT     H238820   0.778   6.891   1.195
12860WAT      O38821   3.735   2.674   3.685
12860WAT     H138822   3.637   2.691   3.674
12860WAT     H238823   3.786   2.734   3.623
12861WAT      O38824   6.862   3.868   7.820
12861WAT     H138825   6.949   3.828   7.791
12861WAT     H238826   6.827   3.928   7.748
12862WAT      O38827   1.138   0.657   5.213
12862WAT     H138828   1.228   0.643   5.254
12862WAT     H238829   1.073   0.683   5.285
12863WAT      O38830   4.242   1.774   0.256
12863WAT     H138831   4.208   1.837   0.186
12863WAT     H238832   4.164   1.736   0.307
12864WAT      O38833   7.301   6.807   6.739
12864WAT     H138834   7.376   6.844   6.684
12864WAT     H238835   7.338   6.751   6.813
12865WAT      O38836   4.105   0.413   2.322
12865WAT     H138837   4.187   0.471   2.329
12865WAT     H238838   4.081   0.378   2.412
12866WAT      O38839   4.010   7.788   7.847
12866WAT     H138840   4.106   7.775   7.872
12866WAT     H238841   3.997   7.879   7.809
12867WAT      O38842   2.592   4.556   6.600
12867WAT     H138843   2.633   4.635   6.555
12867WAT     H238844   2.648   4.475   6.582
12868WAT      O38845   0.644   0.915   2.746
12868WAT     H138846   0.579   0.848   2.711
12868WAT     H238847   0.626   1.004   2.705
12869WAT      O38848   2.977   8.577   1.062
12869WAT     H138849   2.962   8.657   1.120
12869WAT     H238850   2.927   8.499   1.100
12870WAT      O38851   2.446   4.968   5.671
12870WAT     H138852   2.357   4.931   5.644
12870WAT     H238853   2.476   4.925   5.756
12871WAT      O38854   8.299   7.622   7.425
12871WAT     H138855   8.300   7.700   7.363
12871WAT     H238856   8.302   7.537   7.373
12872WAT      O38857   0.992   9.768   7.706
12872WAT     H138858   1.001   9.792   7.609
12872WAT     H238859   1.014   9.671   7.718
12873WAT      O38860   3.863   6.649   6.445
12873WAT     H138861   3.924   6.569   6.444
12873WAT     H238862   3.917   6.732   6.432
12874WAT      O38863   0.445   3.803   5.045
12874WAT     H138864   0.480   3.758   4.963
12874WAT     H238865   0.392   3.738   5.099
12875WAT      O38866   3.787   8.133   4.041
12875WAT     H138867   3.693   8.119   4.009
12875WAT     H238868   3.835   8.194   3.978
12876WAT      O38869   0.748   0.571   9.217
12876WAT     H138870   0.696   0.553   9.133
12876WAT     H238871   0.839   0.531   9.210
12877WAT      O38872   3.326   8.671   7.775
12877WAT     H138873   3.422   8.665   7.799
12877WAT     H238874   3.291   8.580   7.752
12878WAT      O38875   7.959   3.705   5.995
12878WAT     H138876   7.904   3.762   5.934
12878WAT     H238877   8.007   3.764   6.060
12879WAT      O38878   9.501   5.463   9.386
12879WAT     H138879   9.538   5.487   9.297
12879WAT     H238880   9.500   5.364   9.396
12880WAT      O38881   7.012   6.690   1.648
12880WAT     H138882   7.015   6.648   1.558
12880WAT     H238883   6.998   6.789   1.638
12881WAT      O38884   6.001   6.765   3.835
12881WAT     H138885   5.997   6.674   3.877
12881WAT     H238886   5.961   6.832   3.897
12882WAT      O38887   8.513   2.959   4.903
12882WAT     H138888   8.558   2.903   4.972
12882WAT     H238889   8.530   2.920   4.812
12883WAT      O38890   8.203   0.812   6.938
12883WAT     H138891   8.181   0.778   6.847
12883WAT     H238892   8.127   0.791   7.000
12884WAT      O38893   1.113   6.026   1.723
12884WAT     H138894   1.210   6.053   1.724
12884WAT     H238895   1.106   5.927   1.734
12885WAT      O38896   3.498   3.262   4.471
12885WAT     H138897   3.546   3.174   4.468
12885WAT     H238898   3.404   3.250   4.437
12886WAT      O38899   1.579   9.549   4.387
12886WAT     H138900   1.583   9.527   4.485
12886WAT     H238901   1.656   9.505   4.340
12887WAT      O38902   1.287   4.057   4.944
12887WAT     H138903   1.336   4.138   4.911
12887WAT     H238904   1.331   3.975   4.907
12888WAT      O38905   2.832   8.057   6.880
12888WAT     H138906   2.857   8.146   6.841
12888WAT     H238907   2.907   8.024   6.938
12889WAT      O38908   2.982   2.077   5.595
12889WAT     H138909   3.064   2.018   5.595
12889WAT     H238910   2.994   2.149   5.527
12890WAT      O38911   7.744   4.913   3.075
12890WAT     H138912   7.734   4.904   3.174
12890WAT     H238913   7.660   4.883   3.030
12891WAT      O38914   2.045   0.826   5.455
12891WAT     H138915   2.026   0.909   5.508
12891WAT     H238916   1.999   0.833   5.366
12892WAT      O38917   7.170   8.371   5.119
12892WAT     H138918   7.246   8.426   5.152
12892WAT     H238919   7.149   8.397   5.025
12893WAT      O38920   5.530   2.598   7.736
12893WAT     H138921   5.527   2.635   7.643
12893WAT     H238922   5.501   2.502   7.734
12894WAT      O38923   8.095   9.473   7.156
12894WAT     H138924   8.182   9.450   7.199
12894WAT     H238925   8.054   9.390   7.117
12895WAT      O38926   6.225   2.328   8.367
12895WAT     H138927   6.206   2.413   8.416
12895WAT     H238928   6.169   2.324   8.284
12896WAT      O38929   7.503   3.661   7.401
12896WAT     H138930   7.448   3.738   7.369
12896WAT     H238931   7.486   3.646   7.499
12897WAT      O38932   2.915   4.229   9.163
12897WAT     H138933   2.826   4.206   9.202
12897WAT     H238934   2.929   4.328   9.170
12898WAT      O38935   7.567   5.934   8.823
12898WAT     H138936   7.520   5.985   8.896
12898WAT     H238937   7.647   5.887   8.861
12899WAT      O38938   2.272   8.484   0.336
12899WAT     H138939   2.294   8.578   0.361
12899WAT     H238940   2.229   8.482   0.246
12900WAT      O38941   1.024   3.672   4.543
12900WAT     H138942   1.002   3.764   4.577
12900WAT     H238943   1.120   3.651   4.561
12901WAT      O38944   5.157   2.616   9.683
12901WAT     H138945   5.097   2.667   9.745
12901WAT     H238946   5.126   2.521   9.678
12902WAT      O38947   6.751   6.985   8.821
12902WAT     H138948   6.729   6.912   8.886
12902WAT     H238949   6.688   7.061   8.834
12903WAT      O38950   3.112   9.425   3.020
12903WAT     H138951   3.151   9.336   3.044
12903WAT     H238952   3.060   9.416   2.935
12904WAT      O38953   4.878   5.781   8.969
12904WAT     H138954   4.883   5.878   8.945
12904WAT     H238955   4.787   5.761   9.005
12905WAT      O38956   3.136   1.427   4.664
12905WAT     H138957   3.081   1.364   4.610
12905WAT     H238958   3.133   1.518   4.622
12906WAT      O38959   4.718   7.614   1.601
12906WAT     H138960   4.783   7.538   1.612
12906WAT     H238961   4.761   7.687   1.548
12907WAT      O38962   6.768   7.466   8.171
12907WAT     H138963   6.789   7.437   8.264
12907WAT     H238964   6.698   7.537   8.173
12908WAT      O38965   7.138   4.685   2.129
12908WAT     H138966   7.071   4.749   2.090
12908WAT     H238967   7.230   4.720   2.113
12909WAT      O38968   7.164   3.480   7.738
12909WAT     H138969   7.239   3.426   7.700
12909WAT     H238970   7.175   3.486   7.838
12910WAT      O38971   0.205   9.258   2.518
12910WAT     H138972   0.305   9.263   2.508
12910WAT     H238973   0.182   9.254   2.615
12911WAT      O38974   7.579   9.417   3.707
12911WAT     H138975   7.672   9.403   3.672
12911WAT     H238976   7.567   9.367   3.792
12912WAT      O38977   2.293   7.953   6.083
12912WAT     H138978   2.368   8.016   6.063
12912WAT     H238979   2.327   7.859   6.079
12913WAT      O38980   8.510   4.463   7.005
12913WAT     H138981   8.462   4.539   6.962
12913WAT     H238982   8.548   4.403   6.934
12914WAT      O38983   3.622   0.670   7.312
12914WAT     H138984   3.655   0.599   7.250
12914WAT     H238985   3.540   0.712   7.274
12915WAT      O38986   0.357   6.135   1.678
12915WAT     H138987   0.367   6.041   1.645
12915WAT     H238988   0.298   6.136   1.759
12916WAT      O38989   3.948   2.081   6.137
12916WAT     H138990   3.969   2.096   6.040
12916WAT     H238991   3.849   2.074   6.149
12917WAT      O38992   1.831   1.136   5.260
12917WAT     H138993   1.867   1.208   5.200
12917WAT     H238994   1.732   1.143   5.264
12918WAT      O38995   9.410   3.937   3.819
12918WAT     H138996   9.472   4.012   3.796
12918WAT     H238997   9.338   3.970   3.880
12919WAT      O38998   2.859   4.993   9.336
12919WAT     H138999   2.853   4.895   9.356
12919WAT     H239000   2.767   5.029   9.321
12920WAT      O39001   6.106   6.804   5.281
12920WAT     H139002   6.073   6.898   5.269
12920WAT     H239003   6.087   6.774   5.374
12921WAT      O39004   6.387   8.044   8.594
12921WAT     H139005   6.398   7.979   8.519
12921WAT     H239006   6.445   8.016   8.671
12922WAT      O39007   0.383   2.790   5.777
12922WAT     H139008   0.368   2.730   5.698
12922WAT     H239009   0.480   2.814   5.782
12923WAT      O39010   7.595   7.936   8.271
12923WAT     H139011   7.652   7.948   8.352
12923WAT     H239012   7.533   8.014   8.261
12924WAT      O39013   4.392   1.156   1.434
12924WAT     H139014   4.468   1.191   1.490
12924WAT     H239015   4.424   1.144   1.340
12925WAT      O39016   2.527   1.279   6.284
12925WAT     H139017   2.552   1.370   6.317
12925WAT     H239018   2.600   1.244   6.225
12926WAT      O39019   7.871   7.631   6.992
12926WAT     H139020   7.897   7.553   6.935
12926WAT     H239021   7.835   7.598   7.079
12927WAT      O39022   9.813   1.980   0.149
12927WAT     H139023   9.780   1.897   0.194
12927WAT     H239024   9.825   2.053   0.218
12928WAT      O39025   9.371   9.190   5.673
12928WAT     H139026   9.286   9.138   5.682
12928WAT     H239027   9.349   9.286   5.659
12929WAT      O39028   7.505   4.451   7.357
12929WAT     H139029   7.445   4.502   7.419
12929WAT     H239030   7.570   4.514   7.315
12930WAT      O39031   2.735   7.630   7.489
12930WAT     H139032   2.774   7.552   7.441
12930WAT     H239033   2.679   7.598   7.565
12931WAT      O39034   3.333   3.755   2.747
12931WAT     H139035   3.323   3.656   2.750
12931WAT     H239036   3.390   3.786   2.824
12932WAT      O39037   1.364   3.091   4.633
12932WAT     H139038   1.270   3.125   4.621
12932WAT     H239039   1.371   2.999   4.594
12933WAT      O39040   8.074   4.901   8.458
12933WAT     H139041   8.137   4.889   8.382
12933WAT     H239042   8.125   4.918   8.542
12934WAT      O39043   7.844   0.376   9.217
12934WAT     H139044   7.752   0.351   9.188
12934WAT     H239045   7.864   0.469   9.189
12935WAT      O39046   2.977   3.161   1.763
12935WAT     H139047   2.964   3.210   1.849
12935WAT     H239048   2.895   3.108   1.742
12936WAT      O39049   3.067   5.116   9.208
12936WAT     H139050   3.123   5.046   9.163
12936WAT     H239051   2.998   5.072   9.264
12937WAT      O39052   4.649   6.131   8.177
12937WAT     H139053   4.741   6.167   8.163
12937WAT     H239054   4.627   6.129   8.274
12938WAT      O39055   7.535   6.678   0.284
12938WAT     H139056   7.438   6.688   0.307
12938WAT     H239057   7.584   6.638   0.362
12939WAT      O39058   2.548   5.220   5.082
12939WAT     H139059   2.559   5.134   5.133
12939WAT     H239060   2.636   5.245   5.041
12940WAT      O39061   6.169   8.902   1.833
12940WAT     H139062   6.144   8.958   1.755
12940WAT     H239063   6.243   8.945   1.884
12941WAT      O39064   6.538   6.770   6.685
12941WAT     H139065   6.553   6.698   6.753
12941WAT     H239066   6.460   6.825   6.711
12942WAT      O39067   4.881   9.161   0.525
12942WAT     H139068   4.961   9.206   0.484
12942WAT     H239069   4.804   9.225   0.527
12943WAT      O39070   4.190   6.685   7.250
12943WAT     H139071   4.160   6.590   7.253
12943WAT     H239072   4.149   6.730   7.171
12944WAT      O39073   0.716   5.179   0.167
12944WAT     H139074   0.627   5.135   0.158
12944WAT     H239075   0.732   5.204   0.263
12945WAT      O39076   8.537   0.803   3.793
12945WAT     H139077   8.496   0.876   3.738
12945WAT     H239078   8.505   0.810   3.888
12946WAT      O39079   6.504   6.027   8.086
12946WAT     H139080   6.509   6.123   8.059
12946WAT     H239081   6.595   5.995   8.112
12947WAT      O39082   4.301   8.824   3.080
12947WAT     H139083   4.345   8.908   3.112
12947WAT     H239084   4.214   8.846   3.037
12948WAT      O39085   0.206   6.391   3.618
12948WAT     H139086   0.127   6.452   3.613
12948WAT     H239087   0.275   6.421   3.552
12949WAT      O39088   5.497   8.825   9.611
12949WAT     H139089   5.467   8.873   9.529
12949WAT     H239090   5.441   8.854   9.689
12950WAT      O39091   2.272   8.255   3.447
12950WAT     H139092   2.336   8.231   3.519
12950WAT     H239093   2.321   8.303   3.374
12951WAT      O39094   2.881   8.007   5.732
12951WAT     H139095   2.809   8.037   5.795
12951WAT     H239096   2.970   8.014   5.778
12952WAT      O39097   0.861   2.193   0.303
12952WAT     H139098   0.840   2.257   0.229
12952WAT     H239099   0.794   2.203   0.376
12953WAT      O39100   9.779   4.769   8.025
12953WAT     H139101   9.835   4.790   7.945
12953WAT     H239102   9.682   4.779   8.002
12954WAT      O39103   3.664   4.943   2.520
12954WAT     H139104   3.669   4.856   2.472
12954WAT     H239105   3.578   4.989   2.499
12955WAT      O39106   1.387   8.438   8.632
12955WAT     H139107   1.466   8.407   8.580
12955WAT     H239108   1.370   8.535   8.613
12956WAT      O39109   1.274   3.982   2.299
12956WAT     H139110   1.238   4.064   2.253
12956WAT     H239111   1.373   3.981   2.292
12957WAT      O39112   8.099   3.684   6.687
12957WAT     H139113   8.067   3.726   6.772
12957WAT     H239114   8.083   3.585   6.691
12958WAT      O39115   4.862   5.416   7.766
12958WAT     H139116   4.845   5.318   7.756
12958WAT     H239117   4.941   5.442   7.710
12959WAT      O39118   3.984   4.056   1.361
12959WAT     H139119   3.909   3.999   1.326
12959WAT     H239120   4.054   4.065   1.290
12960WAT      O39121   4.348   9.443   7.127
12960WAT     H139122   4.381   9.509   7.059
12960WAT     H239123   4.254   9.416   7.105
12961WAT      O39124   7.687   6.770   6.936
12961WAT     H139125   7.765   6.801   6.991
12961WAT     H239126   7.648   6.848   6.887
12962WAT      O39127   4.500   2.515   7.124
12962WAT     H139128   4.564   2.527   7.047
12962WAT     H239129   4.494   2.601   7.175
12963WAT      O39130   3.680   0.081   7.503
12963WAT     H139131   3.693  -0.010   7.464
12963WAT     H239132   3.725   0.149   7.445
12964WAT      O39133   3.574   8.143   8.613
12964WAT     H139134   3.544   8.126   8.519
12964WAT     H239135   3.499   8.121   8.676
12965WAT      O39136   5.895   5.992   5.098
12965WAT     H139137   5.904   6.002   4.999
12965WAT     H239138   5.852   5.904   5.118
12966WAT      O39139   2.497   6.013   7.582
12966WAT     H139140   2.527   6.099   7.625
12966WAT     H239141   2.573   5.949   7.580
12967WAT      O39142   0.984   1.998   6.538
12967WAT     H139143   0.960   1.996   6.635
12967WAT     H239144   0.975   2.091   6.503
12968WAT      O39145   0.062   2.404   0.746
12968WAT     H139146   0.058   2.305   0.760
12968WAT     H239147   0.151   2.428   0.706
12969WAT      O39148   8.851   5.980   9.544
12969WAT     H139149   8.888   5.909   9.484
12969WAT     H239150   8.802   5.938   9.620
12970WAT      O39151   6.649   5.253   2.160
12970WAT     H139152   6.599   5.326   2.208
12970WAT     H239153   6.585   5.179   2.137
12971WAT      O39154   7.672   7.134   2.664
12971WAT     H139155   7.706   7.109   2.755
12971WAT     H239156   7.678   7.055   2.604
12972WAT      O39157   0.487   7.120   4.472
12972WAT     H139158   0.437   7.206   4.469
12972WAT     H239159   0.464   7.071   4.555
12973WAT      O39160   5.569   8.834   3.354
12973WAT     H139161   5.592   8.791   3.441
12973WAT     H239162   5.653   8.865   3.309
12974WAT      O39163   5.781   3.840   3.488
12974WAT     H139164   5.776   3.887   3.576
12974WAT     H239165   5.872   3.800   3.477
12975WAT      O39166   5.314   0.202   7.240
12975WAT     H139167   5.337   0.208   7.337
12975WAT     H239168   5.296   0.293   7.203
12976WAT      O39169   2.402   8.142   5.768
12976WAT     H139170   2.339   8.066   5.753
12976WAT     H239171   2.494   8.106   5.783
12977WAT      O39172   6.177   9.656   9.325
12977WAT     H139173   6.196   9.682   9.230
12977WAT     H239174   6.262   9.659   9.378
12978WAT      O39175   9.876   0.255   6.128
12978WAT     H139176   9.854   0.160   6.107
12978WAT     H239177   9.905   0.262   6.224
12979WAT      O39178   2.639   6.596   6.362
12979WAT     H139179   2.719   6.553   6.319
12979WAT     H239180   2.641   6.579   6.460
12980WAT      O39181   9.731   8.986   5.784
12980WAT     H139182   9.647   8.959   5.831
12980WAT     H239183   9.785   8.905   5.764
12981WAT      O39184   6.393   7.163   7.953
12981WAT     H139185   6.323   7.149   8.023
12981WAT     H239186   6.473   7.107   7.974
12982WAT      O39187   5.040   9.457   3.236
12982WAT     H139188   4.967   9.453   3.168
12982WAT     H239189   5.120   9.408   3.202
12983WAT      O39190   4.152   3.199   3.796
12983WAT     H139191   4.111   3.141   3.865
12983WAT     H239192   4.232   3.246   3.834
12984WAT      O39193   8.834   4.011   8.841
12984WAT     H139194   8.766   3.945   8.874
12984WAT     H239195   8.876   3.977   8.757
12985WAT      O39196   4.316   2.100   2.168
12985WAT     H139197   4.251   2.094   2.092
12985WAT     H239198   4.345   2.008   2.195
12986WAT      O39199   4.713   4.225   8.035
12986WAT     H139200   4.642   4.247   7.968
12986WAT     H239201   4.678   4.239   8.128
12987WAT      O39202   8.235   3.592   2.063
12987WAT     H139203   8.157   3.587   2.126
12987WAT     H239204   8.216   3.658   1.991
12988WAT      O39205   5.608   5.601   5.228
12988WAT     H139206   5.519   5.643   5.215
12988WAT     H239207   5.597   5.506   5.256
12989WAT      O39208   5.564   0.412   4.840
12989WAT     H139209   5.598   0.353   4.767
12989WAT     H239210   5.598   0.505   4.827
12990WAT      O39211   5.553   7.209   5.022
12990WAT     H139212   5.618   7.280   4.995
12990WAT     H239213   5.482   7.249   5.080
12991WAT      O39214   5.033   8.018   8.811
12991WAT     H139215   5.055   8.115   8.795
12991WAT     H239216   4.945   7.997   8.768
12992WAT      O39217   0.586   4.230   4.425
12992WAT     H139218   0.680   4.227   4.390
12992WAT     H239219   0.540   4.311   4.389
12993WAT      O39220   2.314   0.898   0.831
12993WAT     H139221   2.343   0.967   0.764
12993WAT     H239222   2.325   0.807   0.791
12994WAT      O39223   1.003   4.957   6.705
12994WAT     H139224   1.046   5.034   6.659
12994WAT     H239225   0.981   4.886   6.638
12995WAT      O39226   3.893   5.175   4.803
12995WAT     H139227   3.905   5.120   4.721
12995WAT     H239228   3.796   5.178   4.827
12996WAT      O39229   4.747   5.058   5.837
12996WAT     H139230   4.763   4.985   5.771
12996WAT     H239231   4.685   5.026   5.909
12997WAT      O39232   5.946   4.761   1.862
12997WAT     H139233   5.847   4.746   1.851
12997WAT     H239234   5.982   4.696   1.928
12998WAT      O39235   2.261   4.060   9.295
12998WAT     H139236   2.302   4.151   9.284
12998WAT     H239237   2.215   4.034   9.210
12999WAT      O39238   3.655   3.481   2.713
12999WAT     H139239   3.683   3.576   2.697
12999WAT     H239240   3.574   3.480   2.771
13000WAT      O39241   9.088   1.797   4.630
13000WAT     H139242   9.168   1.852   4.606
13000WAT     H239243   9.042   1.838   4.708
13001WAT      O39244   6.834   5.464   9.553
13001WAT     H139245   6.873   5.412   9.629
13001WAT     H239246   6.796   5.401   9.486
13002WAT      O39247   3.225   7.255   5.274
13002WAT     H139248   3.267   7.310   5.202
13002WAT     H239249   3.136   7.221   5.243
13003WAT      O39250   4.089   2.818   2.347
13003WAT     H139251   4.080   2.794   2.443
13003WAT     H239252   4.099   2.917   2.337
13004WAT      O39253   8.206   7.653   1.686
13004WAT     H139254   8.282   7.716   1.702
13004WAT     H239255   8.223   7.600   1.603
13005WAT      O39256   9.784   2.650   9.146
13005WAT     H139257   9.876   2.683   9.124
13005WAT     H239258   9.781   2.624   9.243
13006WAT      O39259   1.775   4.011   6.180
13006WAT     H139260   1.721   3.941   6.225
13006WAT     H239261   1.871   3.983   6.178
13007WAT      O39262   9.389   4.973   3.829
13007WAT     H139263   9.473   4.972   3.883
13007WAT     H239264   9.408   4.937   3.738
13008WAT      O39265   3.775   2.718   7.594
13008WAT     H139266   3.846   2.710   7.524
13008WAT     H239267   3.810   2.683   7.681
13009WAT      O39268   8.831   4.932   1.109
13009WAT     H139269   8.733   4.936   1.089
13009WAT     H239270   8.861   5.019   1.148
13010WAT      O39271   2.245   3.230   0.739
13010WAT     H139272   2.205   3.285   0.666
13010WAT     H239273   2.321   3.280   0.781
13011WAT      O39274   0.847   4.269   9.329
13011WAT     H139275   0.758   4.303   9.358
13011WAT     H239276   0.855   4.172   9.350
13012WAT      O39277   0.657   9.547   7.813
13012WAT     H139278   0.701   9.534   7.902
13012WAT     H239279   0.592   9.473   7.797
13013WAT      O39280   6.947   0.952   0.718
13013WAT     H139281   6.901   0.933   0.805
13013WAT     H239282   6.880   0.981   0.650
13014WAT      O39283   6.484   2.958   2.862
13014WAT     H139284   6.465   3.023   2.935
13014WAT     H239285   6.411   2.960   2.795
13015WAT      O39286   4.713   2.059   7.958
13015WAT     H139287   4.714   2.158   7.948
13015WAT     H239288   4.801   2.022   7.927
13016WAT      O39289   1.289   7.290   8.272
13016WAT     H139290   1.223   7.217   8.259
13016WAT     H239291   1.381   7.253   8.273
13017WAT      O39292   3.743   4.187   2.986
13017WAT     H139293   3.811   4.233   2.929
13017WAT     H239294   3.769   4.090   2.996
13018WAT      O39295   5.574   9.820   4.140
13018WAT     H139296   5.561   9.910   4.099
13018WAT     H239297   5.488   9.787   4.178
13019WAT      O39298   6.005   6.061   5.630
13019WAT     H139299   6.024   6.158   5.645
13019WAT     H239300   5.948   6.051   5.549
13020WAT      O39301   6.666   6.619   5.766
13020WAT     H139302   6.695   6.641   5.673
13020WAT     H239303   6.747   6.614   5.826
13021WAT      O39304   9.444   8.504   1.843
13021WAT     H139305   9.436   8.572   1.916
13021WAT     H239306   9.520   8.529   1.783
13022WAT      O39307   6.937   1.229   9.650
13022WAT     H139308   6.914   1.181   9.735
13022WAT     H239309   7.036   1.233   9.640
13023WAT      O39310   1.765   9.046   6.782
13023WAT     H139311   1.783   9.142   6.806
13023WAT     H239312   1.838   9.011   6.724
13024WAT      O39313   3.268   1.140   7.194
13024WAT     H139314   3.329   1.200   7.143
13024WAT     H239315   3.198   1.103   7.131
13025WAT      O39316   9.104   2.079   2.490
13025WAT     H139317   9.201   2.087   2.470
13025WAT     H239318   9.052   2.138   2.428
13026WAT      O39319   5.379   3.149   8.768
13026WAT     H139320   5.406   3.223   8.831
13026WAT     H239321   5.281   3.132   8.778
13027WAT      O39322   7.554   7.979   0.048
13027WAT     H139323   7.583   7.921  -0.028
13027WAT     H239324   7.455   7.970   0.060
13028WAT      O39325   0.518   5.435   3.545
13028WAT     H139326   0.593   5.489   3.584
13028WAT     H239327   0.519   5.343   3.585
13029WAT      O39328   6.403   1.199   5.998
13029WAT     H139329   6.339   1.158   6.064
13029WAT     H239330   6.496   1.191   6.033
13030WAT      O39331   2.494   7.085   4.729
13030WAT     H139332   2.396   7.094   4.714
13030WAT     H239333   2.541   7.164   4.692
13031WAT      O39334   8.505   4.887   5.939
13031WAT     H139335   8.412   4.873   5.903
13031WAT     H239336   8.499   4.905   6.037
13032WAT      O39337   9.771   5.965   1.946
13032WAT     H139338   9.808   6.049   1.907
13032WAT     H239339   9.725   5.912   1.875
13033WAT      O39340   4.761   2.869   0.711
13033WAT     H139341   4.819   2.839   0.635
13033WAT     H239342   4.797   2.954   0.749
13034WAT      O39343   7.100   2.718   0.667
13034WAT     H139344   7.051   2.717   0.754
13034WAT     H239345   7.197   2.739   0.684
13035WAT      O39346   6.619   0.807   4.486
13035WAT     H139347   6.711   0.768   4.480
13035WAT     H239348   6.609   0.855   4.574
13036WAT      O39349   0.060   0.552   4.972
13036WAT     H139350  -0.039   0.558   4.983
13036WAT     H239351   0.104   0.616   5.036
13037WAT      O39352   9.767   1.344   2.643
13037WAT     H139353   9.831   1.274   2.611
13037WAT     H239354   9.786   1.366   2.738
13038WAT      O39355   2.232   9.771   7.820
13038WAT     H139356   2.229   9.749   7.723
13038WAT     H239357   2.204   9.866   7.834
13039WAT      O39358   1.392   0.546   1.197
13039WAT     H139359   1.346   0.467   1.156
13039WAT     H239360   1.326   0.619   1.214
13040WAT      O39361   6.210   8.447   3.116
13040WAT     H139362   6.133   8.387   3.136
13040WAT     H239363   6.235   8.438   3.020
13041WAT      O39364   9.096   5.699   5.043
13041WAT     H139365   9.181   5.669   5.000
13041WAT     H239366   9.076   5.641   5.123
13042WAT      O39367   7.071   9.378   3.417
13042WAT     H139368   7.113   9.467   3.434
13042WAT     H239369   6.975   9.381   3.442
13043WAT      O39370   0.323   8.010   3.619
13043WAT     H139371   0.370   8.051   3.697
13043WAT     H239372   0.390   7.977   3.553
13044WAT      O39373   1.500   0.858   3.907
13044WAT     H139374   1.459   0.945   3.880
13044WAT     H239375   1.441   0.783   3.877
13045WAT      O39376   4.043   1.029   1.244
13045WAT     H139377   4.128   1.079   1.229
13045WAT     H239378   4.046   0.942   1.195
13046WAT      O39379   0.182   6.166   7.822
13046WAT     H139380   0.263   6.223   7.832
13046WAT     H239381   0.113   6.215   7.770
13047WAT      O39382   0.884   9.083   5.946
13047WAT     H139383   0.793   9.068   5.907
13047WAT     H239384   0.880   9.076   6.045
13048WAT      O39385   4.965   2.262   4.081
13048WAT     H139386   4.885   2.232   4.133
13048WAT     H239387   5.018   2.326   4.136
13049WAT      O39388   3.205   5.467   0.813
13049WAT     H139389   3.141   5.408   0.862
13049WAT     H239390   3.255   5.411   0.746
13050WAT      O39391   9.491   8.855   3.408
13050WAT     H139392   9.479   8.775   3.466
13050WAT     H239393   9.587   8.882   3.408
13051WAT      O39394   9.147   6.962   0.943
13051WAT     H139395   9.215   6.904   0.897
13051WAT     H239396   9.194   7.027   1.004
13052WAT      O39397   1.922   8.858   0.409
13052WAT     H139398   1.926   8.935   0.472
13052WAT     H239399   1.966   8.884   0.322
13053WAT      O39400   0.418   5.769   9.342
13053WAT     H139401   0.461   5.816   9.264
13053WAT     H239402   0.331   5.813   9.363
13054WAT      O39403   5.712   3.560   1.019
13054WAT     H139404   5.808   3.554   0.992
13054WAT     H239405   5.656   3.573   0.937
13055WAT      O39406   0.026   3.556   6.579
13055WAT     H139407  -0.036   3.557   6.501
13055WAT     H239408  -0.024   3.577   6.662
13056WAT      O39409   5.723   3.442   8.076
13056WAT     H139410   5.816   3.407   8.060
13056WAT     H239411   5.658   3.366   8.077
13057WAT      O39412   3.016   4.131   9.417
13057WAT     H139413   3.008   4.032   9.425
13057WAT     H239414   3.003   4.159   9.322
13058WAT      O39415   5.385   9.824   4.542
13058WAT     H139416   5.414   9.914   4.576
13058WAT     H239417   5.465   9.772   4.512
13059WAT      O39418   2.464   2.181   6.747
13059WAT     H139419   2.477   2.107   6.681
13059WAT     H239420   2.517   2.261   6.718
13060WAT      O39421   4.393   5.707   3.866
13060WAT     H139422   4.457   5.769   3.911
13060WAT     H239423   4.438   5.620   3.848
13061WAT      O39424   5.814   2.099   1.990
13061WAT     H139425   5.879   2.132   2.058
13061WAT     H239426   5.796   2.002   2.005
13062WAT      O39427   8.522   0.668   5.131
13062WAT     H139428   8.530   0.648   5.034
13062WAT     H239429   8.430   0.702   5.151
13063WAT      O39430   7.382   2.989   9.565
13063WAT     H139431   7.335   2.901   9.561
13063WAT     H239432   7.375   3.035   9.477
13064WAT      O39433   5.260   4.962   2.566
13064WAT     H139434   5.168   4.926   2.556
13064WAT     H239435   5.314   4.901   2.624
13065WAT      O39436   0.916   0.386   4.944
13065WAT     H139437   0.949   0.435   5.025
13065WAT     H239438   0.994   0.353   4.891
13066WAT      O39439   1.074   6.023   0.378
13066WAT     H139440   1.028   5.979   0.455
13066WAT     H239441   1.034   6.113   0.361
13067WAT      O39442   7.192   5.449   0.912
13067WAT     H139443   7.158   5.437   0.818
13067WAT     H239444   7.287   5.420   0.916
13068WAT      O39445   4.274   7.134   2.346
13068WAT     H139446   4.233   7.114   2.257
13068WAT     H239447   4.247   7.063   2.411
13069WAT      O39448   6.272   6.030   9.461
13069WAT     H139449   6.358   6.053   9.508
13069WAT     H239450   6.206   6.103   9.478
13070WAT      O39451   6.790   5.794   8.969
13070WAT     H139452   6.714   5.829   9.023
13070WAT     H239453   6.755   5.749   8.886
13071WAT      O39454   7.256   9.309   8.685
13071WAT     H139455   7.312   9.352   8.614
13071WAT     H239456   7.309   9.237   8.731
13072WAT      O39457   0.074   4.133   4.018
13072WAT     H139458   0.020   4.115   4.100
13072WAT     H239459   0.025   4.097   3.938
13073WAT      O39460   4.196   4.562   7.595
13073WAT     H139461   4.185   4.522   7.686
13073WAT     H239462   4.250   4.500   7.538
13074WAT      O39463   0.149   0.694   5.199
13074WAT     H139464   0.058   0.698   5.241
13074WAT     H239465   0.218   0.721   5.266
13075WAT      O39466   8.942   8.720   0.454
13075WAT     H139467   8.986   8.783   0.517
13075WAT     H239468   9.009   8.653   0.422
13076WAT      O39469   5.410   0.572   5.114
13076WAT     H139470   5.447   0.479   5.118
13076WAT     H239471   5.432   0.613   5.025
13077WAT      O39472   9.557   1.264   0.383
13077WAT     H139473   9.492   1.195   0.412
13077WAT     H239474   9.509   1.340   0.339
13078WAT      O39475   0.671   4.136   2.578
13078WAT     H139476   0.707   4.090   2.497
13078WAT     H239477   0.746   4.161   2.639
13079WAT      O39478   0.998   6.511   2.022
13079WAT     H139479   0.901   6.490   2.010
13079WAT     H239480   1.017   6.604   1.989
13080WAT      O39481   7.591   0.783   8.662
13080WAT     H139482   7.527   0.847   8.704
13080WAT     H239483   7.684   0.814   8.679
13081WAT      O39484   9.201   7.499   5.027
13081WAT     H139485   9.194   7.593   5.059
13081WAT     H239486   9.298   7.474   5.020
13082WAT      O39487   0.639   4.251   1.518
13082WAT     H139488   0.629   4.348   1.538
13082WAT     H239489   0.678   4.239   1.426
13083WAT      O39490   4.826   9.120   0.022
13083WAT     H139491   4.740   9.110   0.071
13083WAT     H239492   4.826   9.207  -0.028
13084WAT      O39493   8.003   5.374   9.467
13084WAT     H139494   8.103   5.368   9.465
13084WAT     H239495   7.968   5.313   9.538
13085WAT      O39496   4.701   3.582   1.587
13085WAT     H139497   4.669   3.667   1.543
13085WAT     H239498   4.627   3.516   1.590
13086WAT      O39499   8.747   7.616   6.411
13086WAT     H139500   8.716   7.704   6.446
13086WAT     H239501   8.844   7.603   6.434
13087WAT      O39502   6.453   3.404   1.380
13087WAT     H139503   6.397   3.334   1.423
13087WAT     H239504   6.396   3.484   1.359
13088WAT      O39505   2.533   0.530   9.452
13088WAT     H139506   2.476   0.610   9.434
13088WAT     H239507   2.628   0.552   9.431
13089WAT      O39508   1.305   8.196   8.726
13089WAT     H139509   1.266   8.117   8.678
13089WAT     H239510   1.275   8.280   8.681
13090WAT      O39511   6.671   8.805   7.220
13090WAT     H139512   6.608   8.731   7.242
13090WAT     H239513   6.640   8.852   7.138
13091WAT      O39514   9.302   4.879   1.088
13091WAT     H139515   9.263   4.952   1.145
13091WAT     H239516   9.254   4.877   1.001
13092WAT      O39517   6.573   0.852   0.521
13092WAT     H139518   6.666   0.874   0.550
13092WAT     H239519   6.566   0.857   0.422
13093WAT      O39520   6.710   4.479   4.142
13093WAT     H139521   6.693   4.512   4.235
13093WAT     H239522   6.622   4.463   4.096
13094WAT      O39523   1.424   8.140   5.600
13094WAT     H139524   1.332   8.105   5.622
13094WAT     H239525   1.442   8.222   5.654
13095WAT      O39526   1.083   2.403   9.186
13095WAT     H139527   1.138   2.458   9.123
13095WAT     H239528   1.103   2.306   9.173
13096WAT      O39529   4.805   0.308   0.521
13096WAT     H139530   4.900   0.315   0.551
13096WAT     H239531   4.781   0.212   0.509
13097WAT      O39532   8.534   3.834   0.177
13097WAT     H139533   8.632   3.851   0.161
13097WAT     H239534   8.482   3.916   0.154
13098WAT      O39535   3.669   7.613   6.315
13098WAT     H139536   3.572   7.591   6.321
13098WAT     H239537   3.716   7.585   6.399
13099WAT      O39538   1.780   3.484   1.873
13099WAT     H139539   1.714   3.421   1.832
13099WAT     H239540   1.865   3.435   1.893
13100WAT      O39541   6.756   1.712   6.590
13100WAT     H139542   6.745   1.796   6.642
13100WAT     H239543   6.854   1.690   6.582
13101WAT      O39544   4.264   6.428   0.782
13101WAT     H139545   4.290   6.332   0.787
13101WAT     H239546   4.165   6.436   0.794
13102WAT      O39547   4.729   8.635   6.380
13102WAT     H139548   4.772   8.589   6.302
13102WAT     H239549   4.787   8.710   6.411
13103WAT      O39550   8.790   7.899   9.047
13103WAT     H139551   8.815   7.816   8.998
13103WAT     H239552   8.725   7.951   8.991
13104WAT      O39553   5.922   3.299   3.291
13104WAT     H139554   5.885   3.220   3.340
13104WAT     H239555   5.858   3.375   3.299
13105WAT      O39556   3.459   4.930   6.523
13105WAT     H139557   3.525   4.945   6.596
13105WAT     H239558   3.452   4.831   6.505
13106WAT      O39559   3.028   3.590   9.403
13106WAT     H139560   3.093   3.530   9.450
13106WAT     H239561   2.935   3.565   9.430
13107WAT      O39562   6.370   7.995   0.868
13107WAT     H139563   6.280   7.976   0.828
13107WAT     H239564   6.365   7.980   0.967
13108WAT      O39565   4.112   9.137   1.831
13108WAT     H139566   4.093   9.118   1.927
13108WAT     H239567   4.031   9.118   1.776
13109WAT      O39568   2.395   5.423   7.633
13109WAT     H139569   2.360   5.329   7.623
13109WAT     H239570   2.395   5.468   7.544
13110WAT      O39571   3.679   7.931   0.391
13110WAT     H139572   3.720   7.842   0.374
13110WAT     H239573   3.731   7.980   0.461
13111WAT      O39574   2.724   9.138   0.669
13111WAT     H139575   2.764   9.169   0.755
13111WAT     H239576   2.775   9.059   0.635
13112WAT      O39577   7.513   0.415   6.860
13112WAT     H139578   7.562   0.347   6.806
13112WAT     H239579   7.431   0.444   6.812
13113WAT      O39580   3.980   0.226   5.424
13113WAT     H139581   4.028   0.209   5.510
13113WAT     H239582   4.045   0.261   5.356
13114WAT      O39583   9.246   2.062   5.427
13114WAT     H139584   9.171   2.057   5.493
13114WAT     H239585   9.278   1.970   5.406
13115WAT      O39586   7.306   7.078   2.787
13115WAT     H139587   7.251   7.138   2.845
13115WAT     H239588   7.365   7.021   2.844
13116WAT      O39589   6.405   1.640   0.081
13116WAT     H139590   6.501   1.665   0.092
13116WAT     H239591   6.388   1.614  -0.014
13117WAT      O39592   0.116   5.883   8.197
13117WAT     H139593   0.100   5.901   8.294
13117WAT     H239594   0.032   5.901   8.145
13118WAT      O39595   2.869   1.918   5.248
13118WAT     H139596   2.812   1.967   5.182
13118WAT     H239597   2.848   1.951   5.340
13119WAT      O39598   9.624   5.439   3.616
13119WAT     H139599   9.565   5.363   3.644
13119WAT     H239600   9.667   5.479   3.698
13120WAT      O39601   1.117   6.802   6.186
13120WAT     H139602   1.112   6.739   6.264
13120WAT     H239603   1.026   6.814   6.147
13121WAT      O39604   1.315   2.058   1.741
13121WAT     H139605   1.320   1.958   1.737
13121WAT     H239606   1.299   2.094   1.649
13122WAT      O39607   3.651   0.906   7.769
13122WAT     H139608   3.562   0.913   7.723
13122WAT     H239609   3.719   0.961   7.719
13123WAT      O39610   3.601   8.597   5.506
13123WAT     H139611   3.629   8.533   5.578
13123WAT     H239612   3.660   8.677   5.508
13124WAT      O39613   7.879   0.088   6.621
13124WAT     H139614   7.928   0.102   6.707
13124WAT     H239615   7.921   0.146   6.550
13125WAT      O39616   5.088   4.297   0.787
13125WAT     H139617   5.142   4.339   0.714
13125WAT     H239618   5.136   4.306   0.874
13126WAT      O39619   2.004   4.315   3.551
13126WAT     H139620   1.947   4.397   3.551
13126WAT     H239621   2.054   4.309   3.464
13127WAT      O39622   0.346   7.941   5.591
13127WAT     H139623   0.399   8.016   5.551
13127WAT     H239624   0.347   7.862   5.529
13128WAT      O39625   3.251   4.272   8.987
13128WAT     H139626   3.328   4.268   9.051
13128WAT     H239627   3.215   4.365   8.985
13129WAT      O39628   2.299   0.668   8.304
13129WAT     H139629   2.242   0.749   8.316
13129WAT     H239630   2.368   0.664   8.376
13130WAT      O39631   2.374   7.411   0.079
13130WAT     H139632   2.341   7.503   0.059
13130WAT     H239633   2.474   7.413   0.089
13131WAT      O39634   1.456   6.799   7.819
13131WAT     H139635   1.510   6.868   7.771
13131WAT     H239636   1.427   6.728   7.754
13132WAT      O39637   7.475   1.797   8.451
13132WAT     H139638   7.409   1.814   8.523
13132WAT     H239639   7.491   1.882   8.400
13133WAT      O39640   4.723   6.485   1.956
13133WAT     H139641   4.662   6.501   2.034
13133WAT     H239642   4.678   6.426   1.889
13134WAT      O39643   4.972   5.640   9.840
13134WAT     H139644   4.956   5.607   9.934
13134WAT     H239645   5.068   5.667   9.831
13135WAT      O39646   4.954   5.718   1.539
13135WAT     H139647   4.862   5.704   1.502
13135WAT     H239648   4.992   5.630   1.569
13136WAT      O39649   9.659   7.517   3.915
13136WAT     H139650   9.749   7.499   3.874
13136WAT     H239651   9.647   7.615   3.926
13137WAT      O39652   6.683   2.069   9.285
13137WAT     H139653   6.727   2.035   9.369
13137WAT     H239654   6.598   2.117   9.310
13138WAT      O39655   9.175   2.238   4.741
13138WAT     H139656   9.180   2.166   4.671
13138WAT     H239657   9.104   2.215   4.807
13139WAT      O39658   7.802   6.048   4.646
13139WAT     H139659   7.781   5.951   4.632
13139WAT     H239660   7.827   6.090   4.558
13140WAT      O39661   6.994   5.744   7.555
13140WAT     H139662   6.946   5.826   7.588
13140WAT     H239663   7.076   5.772   7.504
13141WAT      O39664   3.185   8.899   7.422
13141WAT     H139665   3.168   8.965   7.349
13141WAT     H239666   3.170   8.942   7.511
13142WAT      O39667   2.435   2.563   5.689
13142WAT     H139668   2.471   2.586   5.599
13142WAT     H239669   2.380   2.480   5.683
13143WAT      O39670   3.685   2.104   4.667
13143WAT     H139671   3.717   2.073   4.577
13143WAT     H239672   3.705   2.034   4.736
13144WAT      O39673   0.511   3.819   6.734
13144WAT     H139674   0.550   3.832   6.825
13144WAT     H239675   0.416   3.789   6.742
13145WAT      O39676   2.620   4.649   2.219
13145WAT     H139677   2.555   4.580   2.186
13145WAT     H239678   2.714   4.616   2.203
13146WAT      O39679   3.607   3.685   1.154
13146WAT     H139680   3.660   3.625   1.213
13146WAT     H239681   3.595   3.642   1.064
13147WAT      O39682   4.084   9.242   1.036
13147WAT     H139683   4.000   9.289   1.010
13147WAT     H239684   4.063   9.173   1.106
13148WAT      O39685   8.426   9.595   6.289
13148WAT     H139686   8.408   9.553   6.378
13148WAT     H239687   8.515   9.640   6.290
13149WAT      O39688   0.706   2.399   4.859
13149WAT     H139689   0.706   2.321   4.922
13149WAT     H239690   0.694   2.483   4.911
13150WAT      O39691   1.776   5.582   7.305
13150WAT     H139692   1.809   5.658   7.361
13150WAT     H239693   1.815   5.590   7.213
13151WAT      O39694   9.446   3.799   1.308
13151WAT     H139695   9.378   3.839   1.246
13151WAT     H239696   9.534   3.792   1.261
13152WAT      O39697   7.773   8.763   9.864
13152WAT     H139698   7.722   8.679   9.883
13152WAT     H239699   7.837   8.781   9.939
13153WAT      O39700   7.810   0.498   4.364
13153WAT     H139701   7.794   0.426   4.296
13153WAT     H239702   7.724   0.518   4.412
13154WAT      O39703   5.703   3.014   8.963
13154WAT     H139704   5.689   3.026   8.865
13154WAT     H239705   5.617   2.990   9.007
13155WAT      O39706   5.146   4.102   8.101
13155WAT     H139707   5.159   4.188   8.052
13155WAT     H239708   5.052   4.096   8.135
13156WAT      O39709   0.435   9.585   2.524
13156WAT     H139710   0.508   9.637   2.480
13156WAT     H239711   0.401   9.517   2.459
13157WAT      O39712   2.839   7.407   9.828
13157WAT     H139713   2.851   7.313   9.858
13157WAT     H239714   2.915   7.463   9.860
13158WAT      O39715   4.831   6.432   8.546
13158WAT     H139716   4.749   6.399   8.593
13158WAT     H239717   4.858   6.366   8.476
13159WAT      O39718   5.528   1.216   7.391
13159WAT     H139719   5.546   1.131   7.440
13159WAT     H239720   5.517   1.291   7.457
13160WAT      O39721   3.693   6.104   0.550
13160WAT     H139722   3.690   6.043   0.471
13160WAT     H239723   3.639   6.065   0.625
13161WAT      O39724   3.622   7.675   0.614
13161WAT     H139725   3.696   7.742   0.623
13161WAT     H239726   3.613   7.649   0.518
13162WAT      O39727   3.715   8.238   1.377
13162WAT     H139728   3.801   8.289   1.372
13162WAT     H239729   3.657   8.277   1.449
13163WAT      O39730   4.608   6.550   5.325
13163WAT     H139731   4.534   6.617   5.314
13163WAT     H239732   4.673   6.583   5.393
13164WAT      O39733   5.514   8.685   8.664
13164WAT     H139734   5.446   8.647   8.600
13164WAT     H239735   5.469   8.752   8.723
13165WAT      O39736   6.541   9.101   5.407
13165WAT     H139737   6.599   9.020   5.413
13165WAT     H239738   6.491   9.100   5.321
13166WAT      O39739   9.529   2.733   1.597
13166WAT     H139740   9.551   2.737   1.499
13166WAT     H239741   9.613   2.718   1.649
13167WAT      O39742   9.665   8.043   5.784
13167WAT     H139743   9.617   8.028   5.698
13167WAT     H239744   9.605   8.092   5.847
13168WAT      O39745   6.170   6.548   0.980
13168WAT     H139746   6.240   6.500   1.033
13168WAT     H239747   6.081   6.506   0.998
13169WAT      O39748   1.270   3.151   4.273
13169WAT     H139749   1.361   3.155   4.315
13169WAT     H239750   1.210   3.217   4.319
13170WAT      O39751   4.192   8.801   1.962
13170WAT     H139752   4.146   8.845   1.885
13170WAT     H239753   4.233   8.870   2.020
13171WAT      O39754   4.114   6.801   3.214
13171WAT     H139755   4.042   6.811   3.283
13171WAT     H239756   4.178   6.731   3.243
13172WAT      O39757   3.440   7.882   2.653
13172WAT     H139758   3.395   7.841   2.574
13172WAT     H239759   3.516   7.940   2.623
13173WAT      O39760   3.209   3.445   1.702
13173WAT     H139761   3.302   3.417   1.682
13173WAT     H239762   3.194   3.444   1.801
13174WAT      O39763   2.920   8.971   3.946
13174WAT     H139764   2.988   9.039   3.972
13174WAT     H239765   2.829   9.012   3.949
13175WAT      O39766   9.430   6.093   1.076
13175WAT     H139767   9.401   6.018   1.016
13175WAT     H239768   9.529   6.106   1.069
13176WAT      O39769   9.265   7.265   7.845
13176WAT     H139770   9.241   7.331   7.917
13176WAT     H239771   9.287   7.315   7.761
13177WAT      O39772   7.654   8.960   6.859
13177WAT     H139773   7.641   8.927   6.765
13177WAT     H239774   7.736   8.918   6.898
13178WAT      O39775   7.762   9.183   8.395
13178WAT     H139776   7.819   9.255   8.356
13178WAT     H239777   7.674   9.181   8.348
13179WAT      O39778   6.556   0.641   4.015
13179WAT     H139779   6.505   0.582   4.076
13179WAT     H239780   6.553   0.605   3.922
13180WAT      O39781   2.538   5.521   9.316
13180WAT     H139782   2.499   5.559   9.233
13180WAT     H239783   2.609   5.455   9.293
13181WAT      O39784   2.241   8.974   8.185
13181WAT     H139785   2.242   9.063   8.232
13181WAT     H239786   2.322   8.921   8.212
13182WAT      O39787   7.681   8.512   7.863
13182WAT     H139788   7.713   8.600   7.828
13182WAT     H239789   7.732   8.438   7.819
13183WAT      O39790   3.112   1.397   8.432
13183WAT     H139791   3.208   1.376   8.415
13183WAT     H239792   3.069   1.321   8.480
13184WAT      O39793   5.753   5.397   6.255
13184WAT     H139794   5.776   5.480   6.305
13184WAT     H239795   5.834   5.364   6.206
13185WAT      O39796   2.963   2.161   0.697
13185WAT     H139797   3.032   2.217   0.651
13185WAT     H239798   2.988   2.151   0.793
13186WAT      O39799   5.885   6.464   1.639
13186WAT     H139800   5.938   6.420   1.566
13186WAT     H239801   5.850   6.552   1.606
13187WAT      O39802   7.082   5.397   2.358
13187WAT     H139803   7.138   5.342   2.295
13187WAT     H239804   6.994   5.417   2.315
13188WAT      O39805   1.788   0.554   2.399
13188WAT     H139806   1.704   0.566   2.451
13188WAT     H239807   1.855   0.623   2.427
13189WAT      O39808   8.736   9.045   0.494
13189WAT     H139809   8.771   9.089   0.578
13189WAT     H239810   8.812   9.011   0.440
13190WAT      O39811   5.048   8.167   8.233
13190WAT     H139812   5.139   8.139   8.261
13190WAT     H239813   5.055   8.241   8.166
13191WAT      O39814   5.906   6.831   6.224
13191WAT     H139815   5.860   6.791   6.303
13191WAT     H239816   5.947   6.919   6.250
13192WAT      O39817   2.690   3.262   0.890
13192WAT     H139818   2.620   3.326   0.858
13192WAT     H239819   2.765   3.312   0.932
13193WAT      O39820   9.479   5.307   6.642
13193WAT     H139821   9.386   5.335   6.664
13193WAT     H239822   9.538   5.388   6.635
13194WAT      O39823   3.143   8.809   9.199
13194WAT     H139824   3.149   8.900   9.158
13194WAT     H239825   3.091   8.748   9.139
13195WAT      O39826   4.938   1.328   6.926
13195WAT     H139827   4.879   1.333   6.844
13195WAT     H239828   4.903   1.257   6.987
13196WAT      O39829   0.168   3.010   1.557
13196WAT     H139830   0.260   2.990   1.591
13196WAT     H239831   0.174   3.046   1.464
13197WAT      O39832   1.021   3.373   0.094
13197WAT     H139833   1.021   3.452   0.033
13197WAT     H239834   1.102   3.376   0.152
13198WAT      O39835   0.182   6.979   4.488
13198WAT     H139836   0.218   7.027   4.568
13198WAT     H239837   0.231   6.893   4.476
13199WAT      O39838   2.329   8.854   0.861
13199WAT     H139839   2.233   8.846   0.888
13199WAT     H239840   2.378   8.908   0.928
13200WAT      O39841   6.432   1.924   8.383
13200WAT     H139842   6.375   1.999   8.417
13200WAT     H239843   6.516   1.962   8.343
13201WAT      O39844   1.802   0.608   0.580
13201WAT     H139845   1.770   0.571   0.667
13201WAT     H239846   1.794   0.539   0.508
13202WAT      O39847   6.970   2.619   0.937
13202WAT     H139848   6.945   2.608   1.034
13202WAT     H239849   6.951   2.534   0.888
13203WAT      O39850   0.405   2.688   5.017
13203WAT     H139851   0.338   2.719   5.084
13203WAT     H239852   0.445   2.602   5.047
13204WAT      O39853   3.124   6.069   8.852
13204WAT     H139854   3.106   5.971   8.843
13204WAT     H239855   3.159   6.105   8.765
13205WAT      O39856   5.957   6.167   2.759
13205WAT     H139857   5.995   6.119   2.680
13205WAT     H239858   5.935   6.261   2.733
13206WAT      O39859   2.995   9.364   1.073
13206WAT     H139860   3.009   9.308   0.991
13206WAT     H239861   2.986   9.460   1.047
13207WAT      O39862   6.407   9.686   2.361
13207WAT     H139863   6.422   9.693   2.262
13207WAT     H239864   6.475   9.742   2.408
13208WAT      O39865   8.336   2.539   5.094
13208WAT     H139866   8.321   2.478   5.016
13208WAT     H239867   8.248   2.563   5.134
13209WAT      O39868   8.378   4.056   6.202
13209WAT     H139869   8.398   4.136   6.260
13209WAT     H239870   8.371   3.975   6.260
13210WAT      O39871   7.268   9.689   2.577
13210WAT     H139872   7.270   9.785   2.606
13210WAT     H239873   7.228   9.682   2.486
13211WAT      O39874   1.021   1.413   7.955
13211WAT     H139875   1.107   1.383   7.915
13211WAT     H239876   1.035   1.498   8.007
13212WAT      O39877   4.184   6.103   7.831
13212WAT     H139878   4.096   6.062   7.855
13212WAT     H239879   4.254   6.032   7.829
13213WAT      O39880   3.503   0.007   8.730
13213WAT     H139881   3.482  -0.072   8.672
13213WAT     H239882   3.594  -0.005   8.771
13214WAT      O39883   2.757   1.477   7.842
13214WAT     H139884   2.668   1.478   7.797
13214WAT     H239885   2.751   1.425   7.927
13215WAT      O39886   5.475   2.711   7.310
13215WAT     H139887   5.430   2.710   7.221
13215WAT     H239888   5.574   2.718   7.297
13216WAT      O39889   4.727   6.711   8.799
13216WAT     H139890   4.796   6.683   8.733
13216WAT     H239891   4.674   6.632   8.828
13217WAT      O39892   1.162   9.786   8.605
13217WAT     H139893   1.251   9.769   8.564
13217WAT     H239894   1.091   9.777   8.536
13218WAT      O39895   4.023   7.239   3.392
13218WAT     H139896   4.047   7.213   3.299
13218WAT     H239897   3.992   7.158   3.442
13219WAT      O39898   0.824   1.013   9.188
13219WAT     H139899   0.781   1.058   9.110
13219WAT     H239900   0.880   0.936   9.156
13220WAT      O39901   1.457   4.601   0.583
13220WAT     H139902   1.408   4.645   0.659
13220WAT     H239903   1.403   4.609   0.500
13221WAT      O39904   0.167   8.853   1.760
13221WAT     H139905   0.240   8.815   1.704
13221WAT     H239906   0.136   8.939   1.721
13222WAT      O39907   3.008   0.262   7.346
13222WAT     H139908   2.961   0.259   7.434
13222WAT     H239909   3.107   0.259   7.360
13223WAT      O39910   2.225   9.041   1.353
13223WAT     H139911   2.172   9.102   1.294
13223WAT     H239912   2.301   9.091   1.394
13224WAT      O39913   0.554   5.730   7.640
13224WAT     H139914   0.646   5.698   7.664
13224WAT     H239915   0.560   5.819   7.595
13225WAT      O39916   2.928   8.761   7.426
13225WAT     H139917   2.868   8.752   7.346
13225WAT     H239918   3.008   8.816   7.401
13226WAT      O39919   7.591   3.369   8.068
13226WAT     H139920   7.573   3.348   8.164
13226WAT     H239921   7.527   3.319   8.010
13227WAT      O39922   0.781   4.696   8.891
13227WAT     H139923   0.755   4.610   8.934
13227WAT     H239924   0.755   4.694   8.794
13228WAT      O39925   4.177   8.689   7.289
13228WAT     H139926   4.215   8.604   7.326
13228WAT     H239927   4.086   8.704   7.329
13229WAT      O39928   7.749   6.031   7.146
13229WAT     H139929   7.815   5.966   7.183
13229WAT     H239930   7.701   5.989   7.069
13230WAT      O39931   6.365   5.863   5.897
13230WAT     H139932   6.323   5.914   5.822
13230WAT     H239933   6.297   5.801   5.937
13231WAT      O39934   5.858   4.677   5.121
13231WAT     H139935   5.870   4.753   5.186
13231WAT     H239936   5.836   4.593   5.172
13232WAT      O39937   6.166   9.303   3.642
13232WAT     H139938   6.106   9.382   3.634
13232WAT     H239939   6.204   9.281   3.552
13233WAT      O39940   3.193   1.584   9.009
13233WAT     H139941   3.119   1.518   8.996
13233WAT     H239942   3.274   1.536   9.043
13234WAT      O39943   3.258   2.710   8.886
13234WAT     H139944   3.286   2.795   8.841
13234WAT     H239945   3.335   2.646   8.886
13235WAT      O39946   6.696   4.438   7.010
13235WAT     H139947   6.725   4.424   7.104
13235WAT     H239948   6.602   4.404   6.998
13236WAT      O39949   3.539   7.595   3.989
13236WAT     H139950   3.446   7.581   3.954
13236WAT     H239951   3.604   7.594   3.913
13237WAT      O39952   6.500   4.554   6.256
13237WAT     H139953   6.592   4.589   6.238
13237WAT     H239954   6.492   4.528   6.352
13238WAT      O39955   0.944   9.584   1.028
13238WAT     H139956   1.009   9.546   1.093
13238WAT     H239957   0.989   9.652   0.971
13239WAT      O39958   5.986   2.270   7.758
13239WAT     H139959   5.904   2.242   7.708
13239WAT     H239960   5.964   2.283   7.855
13240WAT      O39961   4.589   1.049   9.764
13240WAT     H139962   4.530   1.115   9.719
13240WAT     H239963   4.577   0.959   9.723
13241WAT      O39964   6.778   2.952   3.953
13241WAT     H139965   6.870   2.919   3.974
13241WAT     H239966   6.713   2.877   3.960
13242WAT      O39967   0.108   6.089   5.450
13242WAT     H139968   0.110   6.188   5.460
13242WAT     H239969   0.198   6.051   5.472
13243WAT      O39970   0.898   4.250   0.120
13243WAT     H139971   0.953   4.322   0.163
13243WAT     H239972   0.844   4.289   0.046
13244WAT      O39973   8.060   8.555   2.670
13244WAT     H139974   8.123   8.632   2.660
13244WAT     H239975   7.972   8.589   2.705
13245WAT      O39976   0.120   9.550   0.262
13245WAT     H139977   0.159   9.549   0.354
13245WAT     H239978   0.147   9.635   0.216
13246WAT      O39979   6.737   8.858   8.954
13246WAT     H139980   6.751   8.796   8.876
13246WAT     H239981   6.793   8.940   8.940
13247WAT      O39982   6.207   1.175   1.148
13247WAT     H139983   6.284   1.116   1.171
13247WAT     H239984   6.155   1.134   1.073
13248WAT      O39985   0.306   5.014   5.505
13248WAT     H139986   0.387   5.045   5.455
13248WAT     H239987   0.332   4.940   5.567
13249WAT      O39988   3.101   1.993   4.801
13249WAT     H139989   3.060   1.948   4.881
13249WAT     H239990   3.149   1.926   4.746
13250WAT      O39991   3.946   5.826   3.763
13250WAT     H139992   3.966   5.923   3.750
13250WAT     H239993   3.994   5.793   3.844
13251WAT      O39994   4.577   5.754   5.381
13251WAT     H139995   4.615   5.818   5.314
13251WAT     H239996   4.559   5.667   5.336
13252WAT      O39997   5.268   7.525   8.208
13252WAT     H139998   5.268   7.625   8.202
13252WAT     H239999   5.212   7.486   8.135
13253WAT      O40000   0.726   7.385   6.825
13253WAT     H140001   0.751   7.292   6.849
13253WAT     H240002   0.679   7.429   6.901
13254WAT      O40003   7.359   8.710   1.074
13254WAT     H140004   7.307   8.789   1.106
13254WAT     H240005   7.445   8.703   1.126
13255WAT      O40006   3.361   0.149   6.335
13255WAT     H140007   3.447   0.180   6.295
13255WAT     H240008   3.378   0.115   6.427
13256WAT      O40009   4.699   6.501   4.536
13256WAT     H140010   4.722   6.456   4.450
13256WAT     H240011   4.673   6.432   4.604
13257WAT      O40012   1.720   6.703   7.957
13257WAT     H140013   1.648   6.757   7.914
13257WAT     H240014   1.725   6.613   7.914
13258WAT      O40015   4.141   8.272   4.345
13258WAT     H140016   4.042   8.281   4.331
13258WAT     H240017   4.178   8.360   4.376
13259WAT      O40018   2.451   8.773   3.135
13259WAT     H140019   2.366   8.824   3.151
13259WAT     H240020   2.502   8.765   3.221
13260WAT      O40021   0.100   3.535   5.005
13260WAT     H140022   0.101   3.472   4.928
13260WAT     H240023   0.023   3.513   5.065
13261WAT      O40024   3.631   8.294   2.180
13261WAT     H140025   3.554   8.352   2.153
13261WAT     H240026   3.676   8.333   2.260
13262WAT      O40027   8.105   6.429   1.063
13262WAT     H140028   8.022   6.374   1.048
13262WAT     H240029   8.148   6.449   0.975
13263WAT      O40030   8.657   4.643   1.176
13263WAT     H140031   8.653   4.645   1.076
13263WAT     H240032   8.627   4.731   1.212
13264WAT      O40033   9.122   3.436   0.885
13264WAT     H140034   9.084   3.369   0.821
13264WAT     H240035   9.089   3.527   0.862
13265WAT      O40036   4.666   6.716   2.970
13265WAT     H140037   4.666   6.769   3.055
13265WAT     H240038   4.731   6.641   2.978
13266WAT      O40039   1.925   5.675   3.489
13266WAT     H140040   1.959   5.627   3.570
13266WAT     H240041   1.843   5.726   3.513
13267WAT      O40042   3.231   1.957   8.260
13267WAT     H140043   3.293   1.923   8.331
13267WAT     H240044   3.150   1.899   8.255
13268WAT      O40045   6.895   2.580   7.424
13268WAT     H140046   6.936   2.517   7.358
13268WAT     H240047   6.938   2.568   7.513
13269WAT      O40048   5.287   4.324   3.370
13269WAT     H140049   5.197   4.366   3.383
13269WAT     H240050   5.276   4.226   3.353
13270WAT      O40051   7.333   4.477   3.058
13270WAT     H140052   7.306   4.497   2.964
13270WAT     H240053   7.433   4.474   3.065
13271WAT      O40054   7.396   1.464   0.906
13271WAT     H140055   7.477   1.482   0.962
13271WAT     H240056   7.369   1.368   0.916
13272WAT      O40057   4.398   5.942   5.448
13272WAT     H140058   4.428   6.032   5.415
13272WAT     H240059   4.469   5.874   5.428
13273WAT      O40060   6.189   1.077   2.486
13273WAT     H140061   6.227   1.051   2.397
13273WAT     H240062   6.249   1.043   2.559
13274WAT      O40063   6.469   2.782   1.639
13274WAT     H140064   6.484   2.688   1.609
13274WAT     H240065   6.401   2.825   1.580
13275WAT      O40066   6.513   5.990   0.625
13275WAT     H140067   6.413   5.989   0.615
13275WAT     H240068   6.538   5.945   0.710
13276WAT      O40069   8.226   2.225   6.867
13276WAT     H140070   8.176   2.225   6.780
13276WAT     H240071   8.261   2.133   6.885
13277WAT      O40072   9.509   5.565   0.561
13277WAT     H140073   9.491   5.560   0.462
13277WAT     H240074   9.450   5.500   0.608
13278WAT      O40075   4.402   7.864   9.397
13278WAT     H140076   4.433   7.791   9.458
13278WAT     H240077   4.344   7.825   9.325
13279WAT      O40078   7.234   1.085   7.344
13279WAT     H140079   7.175   1.091   7.264
13279WAT     H240080   7.256   1.177   7.377
13280WAT      O40081   5.752   5.105   0.806
13280WAT     H140082   5.665   5.129   0.848
13280WAT     H240083   5.746   5.113   0.707
13281WAT      O40084   8.304   4.215   1.832
13281WAT     H140085   8.232   4.250   1.772
13281WAT     H240086   8.351   4.292   1.876
13282WAT      O40087   8.663   1.577   3.664
13282WAT     H140088   8.591   1.599   3.598
13282WAT     H240089   8.643   1.620   3.752
13283WAT      O40090   2.836   7.316   7.876
13283WAT     H140091   2.782   7.356   7.950
13283WAT     H240092   2.878   7.231   7.906
13284WAT      O40093   6.608   1.619   2.746
13284WAT     H140094   6.676   1.566   2.696
13284WAT     H240095   6.529   1.561   2.766
13285WAT      O40096   5.074   9.731   9.334
13285WAT     H140097   5.011   9.658   9.361
13285WAT     H240098   5.046   9.769   9.246
13286WAT      O40099   5.908   2.392   3.432
13286WAT     H140100   5.984   2.352   3.481
13286WAT     H240101   5.837   2.323   3.416
13287WAT      O40102   9.335   1.443   6.831
13287WAT     H140103   9.426   1.482   6.824
13287WAT     H240104   9.336   1.367   6.896
13288WAT      O40105   1.699   7.961   9.766
13288WAT     H140106   1.646   7.925   9.689
13288WAT     H240107   1.685   8.060   9.772
13289WAT      O40108   3.826   1.549   2.210
13289WAT     H140109   3.819   1.487   2.288
13289WAT     H240110   3.735   1.562   2.170
13290WAT      O40111   0.172   5.386   2.087
13290WAT     H140112   0.228   5.383   2.170
13290WAT     H240113   0.224   5.428   2.013
13291WAT      O40114   8.963   6.168   5.383
13291WAT     H140115   8.880   6.223   5.371
13291WAT     H240116   9.038   6.208   5.330
13292WAT      O40117   5.930   1.172   7.111
13292WAT     H140118   5.939   1.183   7.210
13292WAT     H240119   5.980   1.090   7.082
13293WAT      O40120   4.930   0.166   9.665
13293WAT     H140121   5.024   0.142   9.639
13293WAT     H240122   4.879   0.191   9.583
13294WAT      O40123   5.957   3.468   2.790
13294WAT     H140124   5.887   3.483   2.720
13294WAT     H240125   5.932   3.390   2.847
13295WAT      O40126   2.638   4.428   6.846
13295WAT     H140127   2.621   4.489   6.923
13295WAT     H240128   2.594   4.464   6.764
13296WAT      O40129   4.805   1.163   9.851
13296WAT     H140130   4.754   1.233   9.901
13296WAT     H240131   4.741   1.106   9.800
13297WAT      O40132   0.478   9.270   8.320
13297WAT     H140133   0.435   9.187   8.356
13297WAT     H240134   0.550   9.246   8.255
13298WAT      O40135   3.681   0.576   2.988
13298WAT     H140136   3.591   0.579   3.032
13298WAT     H240137   3.696   0.661   2.936
13299WAT      O40138   6.043   2.676   3.010
13299WAT     H140139   6.098   2.697   3.091
13299WAT     H240140   5.955   2.640   3.038
13300WAT      O40141   2.535   6.702   4.329
13300WAT     H140142   2.544   6.617   4.381
13300WAT     H240143   2.537   6.779   4.392
13301WAT      O40144   3.932   8.430   5.309
13301WAT     H140145   4.030   8.410   5.312
13301WAT     H240146   3.918   8.527   5.294
13302WAT      O40147   8.374   8.737   8.406
13302WAT     H140148   8.338   8.768   8.493
13302WAT     H240149   8.471   8.715   8.416
13303WAT      O40150   3.264   0.594   4.778
13303WAT     H140151   3.263   0.502   4.740
13303WAT     H240152   3.201   0.599   4.856
13304WAT      O40153   2.601   6.672   7.279
13304WAT     H140154   2.591   6.591   7.336
13304WAT     H240155   2.654   6.649   7.198
13305WAT      O40156   2.434   2.960   3.185
13305WAT     H140157   2.498   3.032   3.212
13305WAT     H240158   2.350   3.002   3.149
13306WAT      O40159   0.284   8.360   6.629
13306WAT     H140160   0.250   8.277   6.672
13306WAT     H240161   0.284   8.349   6.529
13307WAT      O40162   6.678   4.069   0.683
13307WAT     H140163   6.621   4.000   0.639
13307WAT     H240164   6.723   4.029   0.763
13308WAT      O40165   3.128   8.948   8.528
13308WAT     H140166   3.073   8.883   8.580
13308WAT     H240167   3.152   8.908   8.440
13309WAT      O40168   0.382   8.813   8.188
13309WAT     H140169   0.418   8.886   8.247
13309WAT     H240170   0.412   8.829   8.094
13310WAT      O40171   6.105   2.612   4.044
13310WAT     H140172   6.122   2.554   3.965
13310WAT     H240173   6.184   2.670   4.060
13311WAT      O40174   4.072   0.375   4.352
13311WAT     H140175   4.061   0.474   4.361
13311WAT     H240176   4.135   0.355   4.277
13312WAT      O40177   8.067   0.930   0.390
13312WAT     H140178   8.146   0.920   0.329
13312WAT     H240179   7.985   0.947   0.336
13313WAT      O40180   3.621   5.411   2.274
13313WAT     H140181   3.650   5.402   2.369
13313WAT     H240182   3.693   5.378   2.213
13314WAT      O40183   8.219   5.268   5.589
13314WAT     H140184   8.265   5.346   5.546
13314WAT     H240185   8.249   5.184   5.545
13315WAT      O40186   3.922   8.459   9.089
13315WAT     H140187   3.874   8.545   9.069
13315WAT     H240188   3.908   8.394   9.014
13316WAT      O40189   5.766   1.988   7.494
13316WAT     H140190   5.781   1.892   7.519
13316WAT     H240191   5.754   1.996   7.395
13317WAT      O40192   1.997   1.295   8.487
13317WAT     H140193   1.924   1.341   8.436
13317WAT     H240194   2.064   1.257   8.424
13318WAT      O40195   8.711   4.911   2.323
13318WAT     H140196   8.710   4.929   2.224
13318WAT     H240197   8.651   4.833   2.343
13319WAT      O40198   1.448   6.461   0.096
13319WAT     H140199   1.487   6.392   0.036
13319WAT     H240200   1.519   6.524   0.125
13320WAT      O40201   7.451   5.023   0.025
13320WAT     H140202   7.466   5.091  -0.046
13320WAT     H240203   7.381   4.958  -0.005
13321WAT      O40204   5.399   6.535   5.900
13321WAT     H140205   5.448   6.528   5.987
13321WAT     H240206   5.462   6.513   5.825
13322WAT      O40207   7.290   0.981   5.850
13322WAT     H140208   7.229   1.037   5.795
13322WAT     H240209   7.368   1.036   5.881
13323WAT      O40210   0.041   2.199   5.096
13323WAT     H140211   0.035   2.229   5.191
13323WAT     H240212  -0.008   2.263   5.037
13324WAT      O40213   7.313   4.732   1.839
13324WAT     H140214   7.336   4.745   1.935
13324WAT     H240215   7.292   4.821   1.798
13325WAT      O40216   8.750   6.452   4.940
13325WAT     H140217   8.670   6.423   4.991
13325WAT     H240218   8.830   6.451   4.999
13326WAT      O40219   7.001   8.041   9.023
13326WAT     H140220   6.908   8.037   8.986
13326WAT     H240221   7.032   7.949   9.047
13327WAT      O40222   2.789   4.763   6.515
13327WAT     H140223   2.785   4.852   6.559
13327WAT     H240224   2.876   4.753   6.466
13328WAT      O40225   9.042   7.096   9.077
13328WAT     H140226   9.066   7.179   9.027
13328WAT     H240227   9.107   7.024   9.055
13329WAT      O40228   6.326   2.770   4.033
13329WAT     H140229   6.338   2.840   4.104
13329WAT     H240230   6.415   2.746   3.994
13330WAT      O40231   2.887   1.190   9.356
13330WAT     H140232   2.971   1.178   9.408
13330WAT     H240233   2.880   1.285   9.326
13331WAT      O40234   8.657   8.844   7.400
13331WAT     H140235   8.577   8.826   7.458
13331WAT     H240236   8.701   8.757   7.376
13332WAT      O40237   8.710   8.689   9.573
13332WAT     H140238   8.641   8.635   9.622
13332WAT     H240239   8.696   8.786   9.591
13333WAT      O40240   6.062   9.214   6.842
13333WAT     H140241   6.071   9.301   6.792
13333WAT     H240242   6.075   9.231   6.939
13334WAT      O40243   6.711   8.467   7.514
13334WAT     H140244   6.742   8.562   7.526
13334WAT     H240245   6.641   8.465   7.442
13335WAT      O40246   8.263   4.027   2.020
13335WAT     H140247   8.176   4.042   2.067
13335WAT     H240248   8.283   4.105   1.961
13336WAT      O40249   4.718   6.499   9.890
13336WAT     H140250   4.655   6.476   9.815
13336WAT     H240251   4.811   6.473   9.864
13337WAT      O40252   9.017   1.485   3.092
13337WAT     H140253   9.030   1.396   3.136
13337WAT     H240254   9.103   1.536   3.092
13338WAT      O40255   2.024   3.521   9.255
13338WAT     H140256   2.019   3.429   9.295
13338WAT     H240257   2.112   3.563   9.279
13339WAT      O40258   9.426   1.604   9.803
13339WAT     H140259   9.440   1.667   9.726
13339WAT     H240260   9.401   1.514   9.768
13340WAT      O40261   4.926   5.919   4.825
13340WAT     H140262   5.018   5.896   4.797
13340WAT     H240263   4.860   5.869   4.769
13341WAT      O40264   4.834   2.099   3.097
13341WAT     H140265   4.833   2.001   3.119
13341WAT     H240266   4.855   2.151   3.180
13342WAT      O40267   5.072   1.043   7.363
13342WAT     H140268   5.081   1.057   7.462
13342WAT     H240269   5.142   1.097   7.316
13343WAT      O40270   8.171   3.958   1.114
13343WAT     H140271   8.168   3.864   1.148
13343WAT     H240272   8.250   3.969   1.053
13344WAT      O40273   0.435   9.034   3.197
13344WAT     H140274   0.422   9.125   3.236
13344WAT     H240275   0.351   8.981   3.207
13345WAT      O40276   8.944   8.448   6.692
13345WAT     H140277   8.938   8.517   6.620
13345WAT     H240278   8.936   8.492   6.781
13346WAT      O40279   2.198   8.795   6.941
13346WAT     H140280   2.216   8.814   6.844
13346WAT     H240281   2.109   8.751   6.951
13347WAT      O40282   9.451   4.442   5.811
13347WAT     H140283   9.534   4.393   5.786
13347WAT     H240284   9.378   4.376   5.828
13348WAT      O40285   4.845   0.740   1.709
13348WAT     H140286   4.847   0.839   1.725
13348WAT     H240287   4.818   0.722   1.615
13349WAT      O40288   4.783   4.468   1.529
13349WAT     H140289   4.708   4.534   1.537
13349WAT     H240290   4.869   4.513   1.553
13350WAT      O40291   8.307   5.087   4.183
13350WAT     H140292   8.308   5.091   4.283
13350WAT     H240293   8.367   5.013   4.153
13351WAT      O40294   6.535   1.091   3.568
13351WAT     H140295   6.628   1.114   3.540
13351WAT     H240296   6.515   1.134   3.656
13352WAT      O40297   3.352   5.256   3.881
13352WAT     H140298   3.452   5.247   3.873
13352WAT     H240299   3.312   5.260   3.789
13353WAT      O40300   7.414   7.141   8.129
13353WAT     H140301   7.488   7.199   8.163
13353WAT     H240302   7.344   7.198   8.086
13354WAT      O40303   4.827   3.325   2.825
13354WAT     H140304   4.902   3.347   2.887
13354WAT     H240305   4.754   3.280   2.876
13355WAT      O40306   9.850   5.487   6.425
13355WAT     H140307   9.895   5.406   6.463
13355WAT     H240308   9.919   5.552   6.394
13356WAT      O40309   5.606   9.029  -0.002
13356WAT     H140310   5.533   8.965   0.021
13356WAT     H240311   5.600   9.108   0.058
13357WAT      O40312   0.367   4.915   6.355
13357WAT     H140313   0.417   4.837   6.393
13357WAT     H240314   0.431   4.984   6.322
13358WAT      O40315   0.596   5.310   7.674
13358WAT     H140316   0.498   5.296   7.693
13358WAT     H240317   0.636   5.224   7.642
13359WAT      O40318   2.396   9.480   8.642
13359WAT     H140319   2.461   9.520   8.706
13359WAT     H240320   2.350   9.403   8.686
13360WAT      O40321   9.495   7.386   3.676
13360WAT     H140322   9.518   7.304   3.730
13360WAT     H240323   9.574   7.413   3.621
13361WAT      O40324   1.174   0.907   5.091
13361WAT     H140325   1.273   0.922   5.088
13361WAT     H240326   1.155   0.819   5.133
13362WAT      O40327   9.804   6.001   3.723
13362WAT     H140328   9.867   5.965   3.792
13362WAT     H240329   9.716   5.954   3.731
13363WAT      O40330   3.579   2.065   0.863
13363WAT     H140331   3.547   2.006   0.789
13363WAT     H240332   3.563   2.021   0.951
13364WAT      O40333   5.988   4.330   7.031
13364WAT     H140334   5.937   4.246   7.050
13364WAT     H240335   5.940   4.383   6.961
13365WAT      O40336   2.017   2.148   4.561
13365WAT     H140337   1.991   2.051   4.553
13365WAT     H240338   1.991   2.182   4.651
13366WAT      O40339   6.330   5.307   0.799
13366WAT     H140340   6.317   5.273   0.706
13366WAT     H240341   6.353   5.405   0.796
13367WAT      O40342   8.507   0.987   2.629
13367WAT     H140343   8.589   0.937   2.659
13367WAT     H240344   8.479   0.954   2.539
13368WAT      O40345   1.566   9.113   4.734
13368WAT     H140346   1.501   9.106   4.809
13368WAT     H240347   1.551   9.038   4.670
13369WAT      O40348   6.819   7.529   6.635
13369WAT     H140349   6.775   7.612   6.669
13369WAT     H240350   6.908   7.552   6.596
13370WAT      O40351   5.106   2.622   2.547
13370WAT     H140352   5.154   2.598   2.463
13370WAT     H240353   5.173   2.633   2.621
13371WAT      O40354   0.696   4.109   5.716
13371WAT     H140355   0.633   4.184   5.738
13371WAT     H240356   0.788   4.133   5.747
13372WAT      O40357   6.908   1.748   4.489
13372WAT     H140358   6.952   1.761   4.578
13372WAT     H240359   6.904   1.835   4.440
13373WAT      O40360   6.825   4.377   7.243
13373WAT     H140361   6.918   4.409   7.266
13373WAT     H240362   6.812   4.285   7.279
13374WAT      O40363   7.800   1.756   5.378
13374WAT     H140364   7.825   1.762   5.474
13374WAT     H240365   7.769   1.845   5.346
13375WAT      O40366   1.122   3.385   1.135
13375WAT     H140367   1.095   3.360   1.043
13375WAT     H240368   1.134   3.302   1.190
13376WAT      O40369   0.376   8.464   1.274
13376WAT     H140370   0.403   8.372   1.301
13376WAT     H240371   0.450   8.528   1.294
13377WAT      O40372   2.348   1.120   0.647
13377WAT     H140373   2.265   1.095   0.598
13377WAT     H240374   2.395   1.193   0.596
13378WAT      O40375   9.682   8.760   9.814
13378WAT     H140376   9.772   8.793   9.783
13378WAT     H240377   9.689   8.726   9.908
13379WAT      O40378   2.910   7.352   1.697
13379WAT     H140379   2.821   7.324   1.663
13379WAT     H240380   2.979   7.338   1.625
13380WAT      O40381   7.300   9.665   1.505
13380WAT     H140382   7.259   9.646   1.594
13380WAT     H240383   7.236   9.717   1.449
13381WAT      O40384   8.225   1.388   0.953
13381WAT     H140385   8.282   1.427   1.025
13381WAT     H240386   8.282   1.369   0.872
13382WAT      O40387   3.557   8.662   1.625
13382WAT     H140388   3.478   8.703   1.579
13382WAT     H240389   3.566   8.566   1.598
13383WAT      O40390   8.742   6.071   9.049
13383WAT     H140391   8.829   6.039   9.088
13383WAT     H240392   8.711   6.005   8.980
13384WAT      O40393   4.874   8.870   6.464
13384WAT     H140394   4.947   8.849   6.399
13384WAT     H240395   4.855   8.968   6.461
13385WAT      O40396   8.700   7.890   0.255
13385WAT     H140397   8.780   7.836   0.282
13385WAT     H240398   8.647   7.915   0.337
13386WAT      O40399   6.493   8.902   2.659
13386WAT     H140400   6.436   8.976   2.622
13386WAT     H240401   6.502   8.830   2.591
13387WAT      O40402   8.242   2.303   2.417
13387WAT     H140403   8.267   2.376   2.353
13387WAT     H240404   8.214   2.222   2.366
13388WAT      O40405   4.331   2.356   0.828
13388WAT     H140406   4.322   2.419   0.751
13388WAT     H240407   4.405   2.291   0.810
13389WAT      O40408   7.579   1.430   0.021
13389WAT     H140409   7.494   1.482   0.025
13389WAT     H240410   7.619   1.438  -0.071
13390WAT      O40411   2.419   7.354   6.038
13390WAT     H140412   2.489   7.339   6.108
13390WAT     H240413   2.337   7.302   6.061
13391WAT      O40414   7.297   8.432   4.463
13391WAT     H140415   7.362   8.359   4.443
13391WAT     H240416   7.328   8.484   4.543
13392WAT      O40417   9.294   8.364   8.479
13392WAT     H140418   9.360   8.304   8.433
13392WAT     H240419   9.207   8.363   8.430
13393WAT      O40420   9.798   9.391   1.545
13393WAT     H140421   9.820   9.306   1.497
13393WAT     H240422   9.699   9.397   1.559
13394WAT      O40423   2.086   2.831   2.576
13394WAT     H140424   2.040   2.800   2.659
13394WAT     H240425   2.049   2.781   2.497
13395WAT      O40426   0.716   3.082   5.067
13395WAT     H140427   0.670   3.004   5.109
13395WAT     H240428   0.811   3.059   5.049
13396WAT      O40429   2.977   1.985   9.126
13396WAT     H140430   3.036   2.060   9.097
13396WAT     H240431   3.032   1.919   9.178
13397WAT      O40432   6.527   8.313   5.383
13397WAT     H140433   6.573   8.280   5.465
13397WAT     H240434   6.565   8.402   5.357
13398WAT      O40435   1.796   9.774   7.820
13398WAT     H140436   1.872   9.786   7.756
13398WAT     H240437   1.826   9.718   7.897
13399WAT      O40438   2.505   6.119   3.680
13399WAT     H140439   2.585   6.179   3.684
13399WAT     H240440   2.475   6.097   3.773
13400WAT      O40441   6.803   1.942   9.536
13400WAT     H140442   6.785   1.844   9.546
13400WAT     H240443   6.727   1.993   9.576
13401WAT      O40444   3.535   2.052   6.672
13401WAT     H140445   3.511   2.147   6.649
13401WAT     H240446   3.454   2.005   6.704
13402WAT      O40447   5.712   3.111   4.141
13402WAT     H140448   5.787   3.174   4.162
13402WAT     H240449   5.625   3.157   4.157
13403WAT      O40450   1.927   5.148   9.493
13403WAT     H140451   1.920   5.137   9.592
13403WAT     H240452   1.851   5.101   9.449
13404WAT      O40453   8.390   7.110   3.023
13404WAT     H140454   8.461   7.156   2.969
13404WAT     H240455   8.300   7.143   2.994
13405WAT      O40456   4.267   9.555   7.953
13405WAT     H140457   4.200   9.602   8.010
13405WAT     H240458   4.323   9.622   7.905
13406WAT      O40459   8.871   1.524   1.359
13406WAT     H140460   8.890   1.454   1.290
13406WAT     H240461   8.896   1.614   1.325
13407WAT      O40462   2.303   9.027   4.669
13407WAT     H140463   2.258   8.988   4.589
13407WAT     H240464   2.282   9.125   4.675
13408WAT      O40465   1.594   6.595   7.479
13408WAT     H140466   1.618   6.507   7.438
13408WAT     H240467   1.526   6.581   7.551
13409WAT      O40468   5.407   8.231   5.218
13409WAT     H140469   5.388   8.288   5.298
13409WAT     H240470   5.322   8.213   5.169
13410WAT      O40471   1.560   8.235   9.806
13410WAT     H140472   1.514   8.192   9.883
13410WAT     H240473   1.652   8.263   9.832
13411WAT      O40474   6.942   7.442   9.532
13411WAT     H140475   6.987   7.398   9.454
13411WAT     H240476   7.009   7.457   9.605
13412WAT      O40477   1.022   4.632   4.683
13412WAT     H140478   1.104   4.575   4.680
13412WAT     H240479   0.970   4.622   4.598
13413WAT      O40480   8.620   6.065   1.872
13413WAT     H140481   8.600   6.113   1.787
13413WAT     H240482   8.541   6.010   1.900
13414WAT      O40483   3.056   6.371   7.485
13414WAT     H140484   3.002   6.453   7.506
13414WAT     H240485   2.995   6.297   7.459
13415WAT      O40486   9.660   6.072   8.379
13415WAT     H140487   9.703   6.124   8.452
13415WAT     H240488   9.632   5.982   8.413
13416WAT      O40489   4.215   9.596   1.330
13416WAT     H140490   4.198   9.694   1.339
13416WAT     H240491   4.227   9.573   1.233
13417WAT      O40492   0.757   0.210   0.732
13417WAT     H140493   0.797   0.261   0.808
13417WAT     H240494   0.689   0.267   0.686
13418WAT      O40495   9.142   4.710   7.557
13418WAT     H140496   9.153   4.618   7.595
13418WAT     H240497   9.142   4.704   7.457
13419WAT      O40498   6.550   3.483   2.920
13419WAT     H140499   6.640   3.450   2.948
13419WAT     H240500   6.541   3.579   2.948
13420WAT      O40501   6.705   3.463   6.463
13420WAT     H140502   6.620   3.486   6.416
13420WAT     H240503   6.684   3.428   6.555
13421WAT      O40504   5.776   8.023   4.450
13421WAT     H140505   5.723   7.959   4.507
13421WAT     H240506   5.808   8.099   4.507
13422WAT      O40507   8.924   7.803   0.402
13422WAT     H140508   9.002   7.828   0.345
13422WAT     H240509   8.928   7.705   0.423
13423WAT      O40510   7.624   4.188   4.795
13423WAT     H140511   7.661   4.254   4.730
13423WAT     H240512   7.650   4.215   4.888
13424WAT      O40513   3.725   6.177   7.987
13424WAT     H140514   3.816   6.136   7.977
13424WAT     H240515   3.711   6.245   7.916
13425WAT      O40516   8.484   2.325   2.604
13425WAT     H140517   8.510   2.237   2.644
13425WAT     H240518   8.400   2.313   2.550
13426WAT      O40519   4.611   3.048   7.749
13426WAT     H140520   4.570   3.058   7.840
13426WAT     H240521   4.700   3.093   7.748
13427WAT      O40522   0.146   2.999   4.362
13427WAT     H140523   0.191   2.910   4.353
13427WAT     H240524   0.117   3.012   4.457
13428WAT      O40525   1.199   8.319   1.915
13428WAT     H140526   1.276   8.338   1.854
13428WAT     H240527   1.232   8.274   1.998
13429WAT      O40528   0.157   5.559   9.446
13429WAT     H140529   0.226   5.568   9.517
13429WAT     H240530   0.178   5.622   9.370
13430WAT      O40531   4.551   2.961   3.704
13430WAT     H140532   4.477   2.923   3.760
13430WAT     H240533   4.578   2.894   3.635
13431WAT      O40534   5.469   0.909   7.130
13431WAT     H140535   5.554   0.962   7.130
13431WAT     H240536   5.446   0.884   7.224
13432WAT      O40537   1.042   4.481   2.669
13432WAT     H140538   0.967   4.543   2.690
13432WAT     H240539   1.014   4.417   2.597
13433WAT      O40540   8.312   0.610   3.628
13433WAT     H140541   8.318   0.709   3.636
13433WAT     H240542   8.375   0.567   3.692
13434WAT      O40543   3.217   3.302   4.400
13434WAT     H140544   3.179   3.364   4.332
13434WAT     H240545   3.147   3.280   4.468
13435WAT      O40546   0.657   4.702   0.983
13435WAT     H140547   0.558   4.689   0.990
13435WAT     H240548   0.701   4.615   0.963
13436WAT      O40549   4.738   9.767   4.626
13436WAT     H140550   4.657   9.748   4.681
13436WAT     H240551   4.814   9.710   4.657
13437WAT      O40552   7.826   8.275   2.696
13437WAT     H140553   7.796   8.350   2.637
13437WAT     H240554   7.757   8.258   2.766
13438WAT      O40555   7.000   1.629   0.461
13438WAT     H140556   6.996   1.536   0.499
13438WAT     H240557   6.928   1.641   0.394
13439WAT      O40558   3.116   7.971   4.316
13439WAT     H140559   3.125   7.878   4.353
13439WAT     H240560   3.200   8.022   4.335
13440WAT      O40561   0.903   6.191   3.847
13440WAT     H140562   0.895   6.136   3.764
13440WAT     H240563   0.990   6.169   3.892
13441WAT      O40564   3.162   2.151   2.934
13441WAT     H140565   3.182   2.157   3.032
13441WAT     H240566   3.245   2.127   2.884
13442WAT      O40567   8.056   4.375   1.740
13442WAT     H140568   8.060   4.463   1.789
13442WAT     H240569   8.056   4.392   1.642
13443WAT      O40570   9.621   2.294   9.797
13443WAT     H140571   9.663   2.337   9.876
13443WAT     H240572   9.577   2.209   9.825
13444WAT      O40573   6.872   5.408   7.398
13444WAT     H140574   6.823   5.466   7.333
13444WAT     H240575   6.970   5.428   7.394
13445WAT      O40576   4.243   5.384   5.527
13445WAT     H140577   4.206   5.462   5.478
13445WAT     H240578   4.284   5.319   5.463
13446WAT      O40579   8.406   5.549   3.001
13446WAT     H140580   8.484   5.552   3.063
13446WAT     H240581   8.366   5.640   2.993
13447WAT      O40582   6.189   0.562   4.969
13447WAT     H140583   6.252   0.507   5.024
13447WAT     H240584   6.238   0.638   4.928
13448WAT      O40585   7.031   3.076   3.211
13448WAT     H140586   7.124   3.089   3.246
13448WAT     H240587   6.976   3.157   3.230
13449WAT      O40588   3.050   8.728   8.694
13449WAT     H140589   3.145   8.740   8.725
13449WAT     H240590   3.040   8.637   8.654
13450WAT      O40591   8.316   3.219   6.417
13450WAT     H140592   8.253   3.239   6.342
13450WAT     H240593   8.354   3.304   6.452
13451WAT      O40594   2.007   2.497   3.252
13451WAT     H140595   2.033   2.496   3.156
13451WAT     H240596   2.090   2.496   3.309
13452WAT      O40597   6.033   2.817   8.359
13452WAT     H140598   6.024   2.844   8.455
13452WAT     H240599   5.946   2.829   8.312
13453WAT      O40600   0.056   1.525   4.751
13453WAT     H140601   0.018   1.612   4.784
13453WAT     H240602   0.149   1.515   4.784
13454WAT      O40603   9.628   1.607   7.608
13454WAT     H140604   9.606   1.531   7.668
13454WAT     H240605   9.681   1.675   7.658
13455WAT      O40606   9.144   3.765   9.085
13455WAT     H140607   9.199   3.837   9.042
13455WAT     H240608   9.205   3.692   9.117
13456WAT      O40609   1.202   7.400   3.912
13456WAT     H140610   1.272   7.415   3.843
13456WAT     H240611   1.242   7.411   4.003
13457WAT      O40612   4.522   9.782   9.688
13457WAT     H140613   4.447   9.760   9.626
13457WAT     H240614   4.609   9.754   9.646
13458WAT      O40615   2.562   2.145   3.821
13458WAT     H140616   2.474   2.099   3.808
13458WAT     H240617   2.569   2.223   3.759
13459WAT      O40618   9.667   4.185   0.193
13459WAT     H140619   9.683   4.211   0.098
13459WAT     H240620   9.657   4.086   0.199
13460WAT      O40621   4.757   5.386   4.242
13460WAT     H140622   4.824   5.319   4.211
13460WAT     H240623   4.718   5.433   4.162
13461WAT      O40624   6.984   0.869   6.139
13461WAT     H140625   7.076   0.840   6.111
13461WAT     H240626   6.945   0.801   6.201
13462WAT      O40627   5.769   8.021   3.751
13462WAT     H140628   5.695   8.063   3.802
13462WAT     H240629   5.825   7.966   3.812
13463WAT      O40630   6.345   6.606   0.772
13463WAT     H140631   6.275   6.572   0.835
13463WAT     H240632   6.412   6.660   0.823
13464WAT      O40633   4.641   4.592   9.076
13464WAT     H140634   4.729   4.574   9.118
13464WAT     H240635   4.586   4.508   9.076
13465WAT      O40636   0.092   1.912   5.429
13465WAT     H140637   0.190   1.894   5.424
13465WAT     H240638   0.076   2.003   5.468
13466WAT      O40639   9.806   3.131   8.764
13466WAT     H140640   9.781   3.111   8.670
13466WAT     H240641   9.728   3.175   8.810
13467WAT      O40642   2.516   7.303   9.464
13467WAT     H140643   2.571   7.367   9.518
13467WAT     H240644   2.520   7.330   9.368
13468WAT      O40645   4.044   8.461   6.889
13468WAT     H140646   4.138   8.426   6.883
13468WAT     H240647   4.025   8.487   6.984
13469WAT      O40648   0.535   2.997   8.234
13469WAT     H140649   0.497   3.026   8.322
13469WAT     H240650   0.473   2.932   8.190
13470WAT      O40651   3.419   4.904   7.497
13470WAT     H140652   3.466   4.907   7.409
13470WAT     H240653   3.407   4.997   7.532
13471WAT      O40654   5.077   3.407   8.823
13471WAT     H140655   5.117   3.412   8.915
13471WAT     H240656   4.999   3.468   8.817
13472WAT      O40657   1.764   9.216   3.338
13472WAT     H140658   1.727   9.134   3.381
13472WAT     H240659   1.815   9.192   3.256
13473WAT      O40660   1.666   4.308   4.409
13473WAT     H140661   1.713   4.348   4.330
13473WAT     H240662   1.709   4.221   4.432
13474WAT      O40663   1.173   9.126   8.640
13474WAT     H140664   1.128   9.208   8.606
13474WAT     H240665   1.266   9.148   8.668
13475WAT      O40666   4.081   0.396   8.302
13475WAT     H140667   3.992   0.350   8.306
13475WAT     H240668   4.146   0.347   8.360
13476WAT      O40669   4.916   7.794   4.736
13476WAT     H140670   4.830   7.846   4.732
13476WAT     H240671   4.922   7.748   4.825
13477WAT      O40672   6.651   4.169   5.441
13477WAT     H140673   6.751   4.161   5.443
13477WAT     H240674   6.611   4.094   5.494
13478WAT      O40675   7.431   5.594   4.892
13478WAT     H140676   7.457   5.498   4.888
13478WAT     H240677   7.506   5.651   4.859
13479WAT      O40678   2.459   3.286   7.043
13479WAT     H140679   2.390   3.265   7.112
13479WAT     H240680   2.507   3.202   7.017
13480WAT      O40681   3.194   9.059   4.763
13480WAT     H140682   3.249   8.983   4.796
13480WAT     H240683   3.198   9.062   4.663
13481WAT      O40684   2.233   7.722   3.514
13481WAT     H140685   2.142   7.687   3.489
13481WAT     H240686   2.272   7.771   3.436
13482WAT      O40687   7.745   2.875   0.593
13482WAT     H140688   7.735   2.837   0.501
13482WAT     H240689   7.757   2.800   0.658
13483WAT      O40690   5.395   3.294   1.643
13483WAT     H140691   5.436   3.276   1.733
13483WAT     H240692   5.462   3.273   1.571
13484WAT      O40693   5.801   5.295   6.524
13484WAT     H140694   5.788   5.372   6.587
13484WAT     H240695   5.765   5.319   6.434
13485WAT      O40696   0.073   0.551   5.829
13485WAT     H140697   0.096   0.570   5.924
13485WAT     H240698   0.157   0.529   5.778
13486WAT      O40699   4.262   0.619   3.901
13486WAT     H140700   4.261   0.553   3.826
13486WAT     H240701   4.171   0.659   3.912
13487WAT      O40702   9.190   4.358   4.246
13487WAT     H140703   9.274   4.373   4.194
13487WAT     H240704   9.213   4.329   4.339
13488WAT      O40705   4.550   0.435   4.338
13488WAT     H140706   4.476   0.400   4.281
13488WAT     H240707   4.624   0.469   4.280
13489WAT      O40708   0.446   3.270   9.164
13489WAT     H140709   0.490   3.223   9.241
13489WAT     H240710   0.347   3.260   9.172
13490WAT      O40711   8.482   0.804   4.584
13490WAT     H140712   8.576   0.828   4.559
13490WAT     H240713   8.465   0.830   4.678
13491WAT      O40714   1.840   3.219   1.194
13491WAT     H140715   1.774   3.269   1.251
13491WAT     H240716   1.801   3.131   1.167
13492WAT      O40717   9.372   5.888   0.880
13492WAT     H140718   9.457   5.869   0.830
13492WAT     H240719   9.300   5.827   0.848
13493WAT      O40720   0.522   0.814   2.999
13493WAT     H140721   0.581   0.848   2.926
13493WAT     H240722   0.577   0.775   3.072
13494WAT      O40723   2.459   6.900   5.688
13494WAT     H140724   2.421   6.879   5.598
13494WAT     H240725   2.406   6.852   5.758
13495WAT      O40726   3.172   1.939   2.312
13495WAT     H140727   3.131   2.009   2.371
13495WAT     H240728   3.162   1.849   2.354
13496WAT      O40729   0.013   0.250   5.016
13496WAT     H140730   0.018   0.344   4.983
13496WAT     H240731   0.036   0.188   4.940
13497WAT      O40732   8.406   4.944   1.616
13497WAT     H140733   8.477   5.008   1.647
13497WAT     H240734   8.318   4.969   1.657
13498WAT      O40735   5.861   0.175   2.370
13498WAT     H140736   5.861   0.253   2.307
13498WAT     H240737   5.847   0.208   2.463
13499WAT      O40738   3.516   6.136   1.037
13499WAT     H140739   3.579   6.206   1.006
13499WAT     H240740   3.430   6.144   0.986
13500WAT      O40741   6.863   1.935   7.109
13500WAT     H140742   6.918   1.852   7.098
13500WAT     H240743   6.914   2.001   7.165
13501WAT      O40744   9.827   1.796   1.290
13501WAT     H140745   9.847   1.882   1.244
13501WAT     H240746   9.772   1.737   1.230
13502WAT      O40747   3.724   3.817   6.508
13502WAT     H140748   3.819   3.846   6.495
13502WAT     H240749   3.665   3.871   6.448
13503WAT      O40750   5.267   0.450   4.817
13503WAT     H140751   5.364   0.425   4.819
13503WAT     H240752   5.238   0.466   4.723
13504WAT      O40753   4.710   1.531   7.082
13504WAT     H140754   4.762   1.549   6.999
13504WAT     H240755   4.770   1.537   7.162
13505WAT      O40756   4.981   1.401   2.106
13505WAT     H140757   4.945   1.352   2.027
13505WAT     H240758   5.080   1.414   2.096
13506WAT      O40759   6.459   6.705   1.029
13506WAT     H140760   6.435   6.608   1.026
13506WAT     H240761   6.419   6.747   1.111
13507WAT      O40762   2.623   6.276   8.404
13507WAT     H140763   2.667   6.365   8.406
13507WAT     H240764   2.633   6.231   8.493
13508WAT      O40765   1.534   7.167   2.910
13508WAT     H140766   1.546   7.248   2.966
13508WAT     H240767   1.562   7.187   2.816
13509WAT      O40768   6.707   4.185   8.965
13509WAT     H140769   6.739   4.277   8.945
13509WAT     H240770   6.774   4.138   9.023
13510WAT      O40771   4.498   9.754   5.125
13510WAT     H140772   4.570   9.695   5.161
13510WAT     H240773   4.456   9.805   5.201
13511WAT      O40774   8.704   7.960   2.567
13511WAT     H140775   8.616   7.925   2.535
13511WAT     H240776   8.694   8.055   2.594
13512WAT      O40777   7.987   7.627   9.568
13512WAT     H140778   8.056   7.574   9.519
13512WAT     H240779   7.967   7.711   9.518
13513WAT      O40780   3.737   5.961   5.805
13513WAT     H140781   3.804   6.002   5.743
13513WAT     H240782   3.781   5.888   5.858
13514WAT      O40783   7.386   0.029   2.843
13514WAT     H140784   7.374   0.089   2.923
13514WAT     H240785   7.313   0.047   2.777
13515WAT      O40786   6.424   1.280   0.974
13515WAT     H140787   6.326   1.284   0.997
13515WAT     H240788   6.441   1.338   0.895
13516WAT      O40789   2.951   0.732   4.615
13516WAT     H140790   2.998   0.809   4.658
13516WAT     H240791   2.996   0.709   4.529
13517WAT      O40792   7.205   0.064   3.940
13517WAT     H140793   7.136   0.027   4.002
13517WAT     H240794   7.296   0.039   3.974
13518WAT      O40795   8.037   6.004   7.413
13518WAT     H140796   8.056   5.958   7.500
13518WAT     H240797   8.023   5.935   7.342
13519WAT      O40798   5.485   9.345   1.035
13519WAT     H140799   5.543   9.414   0.992
13519WAT     H240800   5.531   9.310   1.117
13520WAT      O40801   5.317   0.934   2.928
13520WAT     H140802   5.416   0.942   2.916
13520WAT     H240803   5.279   1.022   2.958
13521WAT      O40804   5.963   9.282   3.025
13521WAT     H140805   5.957   9.244   2.932
13521WAT     H240806   6.059   9.297   3.048
13522WAT      O40807   6.056   6.100   1.384
13522WAT     H140808   6.091   6.007   1.387
13522WAT     H240809   5.957   6.100   1.394
13523WAT      O40810   3.326   1.880   5.178
13523WAT     H140811   3.365   1.922   5.260
13523WAT     H240812   3.253   1.939   5.142
13524WAT      O40813   0.118   4.154   4.887
13524WAT     H140814   0.113   4.054   4.889
13524WAT     H240815   0.071   4.192   4.966
13525WAT      O40816   9.307   3.016   1.507
13525WAT     H140817   9.272   2.943   1.448
13525WAT     H240818   9.318   2.981   1.600
13526WAT      O40819   2.083   4.367   9.675
13526WAT     H140820   2.127   4.343   9.761
13526WAT     H240821   2.053   4.284   9.627
13527WAT      O40822   1.853   5.953   5.581
13527WAT     H140823   1.766   5.944   5.532
13527WAT     H240824   1.838   5.942   5.679
13528WAT      O40825   5.480   0.270   8.185
13528WAT     H140826   5.498   0.285   8.088
13528WAT     H240827   5.553   0.213   8.224
13529WAT      O40828   8.400   4.105   5.778
13529WAT     H140829   8.317   4.103   5.833
13529WAT     H240830   8.460   4.178   5.810
13530WAT      O40831   6.981   8.624   9.177
13530WAT     H140832   7.053   8.692   9.160
13530WAT     H240833   6.894   8.671   9.194
13531WAT      O40834   1.108   1.863   0.964
13531WAT     H140835   1.104   1.841   1.061
13531WAT     H240836   1.123   1.961   0.953
13532WAT      O40837   6.828   6.142   8.831
13532WAT     H140838   6.792   6.192   8.752
13532WAT     H240839   6.803   6.191   8.915
13533WAT      O40840   5.671   3.183   8.393
13533WAT     H140841   5.648   3.128   8.312
13533WAT     H240842   5.588   3.204   8.444
13534WAT      O40843   6.944   8.240   2.713
13534WAT     H140844   6.879   8.243   2.637
13534WAT     H240845   6.897   8.261   2.799
13535WAT      O40846   1.400   6.711   5.380
13535WAT     H140847   1.378   6.716   5.477
13535WAT     H240848   1.367   6.793   5.334
13536WAT      O40849   0.575   4.183   8.488
13536WAT     H140850   0.591   4.225   8.578
13536WAT     H240851   0.647   4.212   8.425
13537WAT      O40852   9.332   2.477   7.742
13537WAT     H140853   9.273   2.404   7.707
13537WAT     H240854   9.284   2.564   7.737
13538WAT      O40855   6.614   3.705   2.293
13538WAT     H140856   6.548   3.767   2.336
13538WAT     H240857   6.570   3.617   2.274
13539WAT      O40858   8.945   3.766   6.091
13539WAT     H140859   8.925   3.668   6.093
13539WAT     H240860   8.974   3.792   5.998
13540WAT      O40861   6.931   1.305   1.401
13540WAT     H140862   6.979   1.349   1.477
13540WAT     H240863   6.833   1.304   1.419
13541WAT      O40864   3.430   6.406   1.208
13541WAT     H140865   3.490   6.414   1.129
13541WAT     H240866   3.467   6.340   1.273
13542WAT      O40867   5.739   8.116   7.264
13542WAT     H140868   5.769   8.143   7.355
13542WAT     H240869   5.765   8.021   7.247
13543WAT      O40870   0.248   6.117   4.407
13543WAT     H140871   0.281   6.035   4.361
13543WAT     H240872   0.169   6.094   4.465
13544WAT      O40873   9.270   4.300   3.846
13544WAT     H140874   9.247   4.205   3.822
13544WAT     H240875   9.343   4.332   3.787
13545WAT      O40876   3.780   7.980   4.534
13545WAT     H140877   3.707   8.043   4.562
13545WAT     H240878   3.741   7.909   4.475
13546WAT      O40879   8.168   7.942   6.380
13546WAT     H140880   8.161   8.011   6.309
13546WAT     H240881   8.206   7.858   6.341
13547WAT      O40882   2.793   1.669   1.667
13547WAT     H140883   2.743   1.582   1.671
13547WAT     H240884   2.892   1.651   1.667
13548WAT      O40885   0.315   9.641   8.990
13548WAT     H140886   0.376   9.716   8.965
13548WAT     H240887   0.245   9.629   8.919
13549WAT      O40888   6.761   3.809   3.765
13549WAT     H140889   6.796   3.733   3.820
13549WAT     H240890   6.664   3.794   3.745
13550WAT      O40891   5.309   5.164   6.936
13550WAT     H140892   5.334   5.261   6.931
13550WAT     H240893   5.368   5.111   6.875
13551WAT      O40894   0.843   6.496   0.397
13551WAT     H140895   0.747   6.481   0.419
13551WAT     H240896   0.850   6.552   0.314
13552WAT      O40897   9.586   2.322   5.206
13552WAT     H140898   9.619   2.285   5.119
13552WAT     H240899   9.490   2.346   5.198
13553WAT      O40900   2.100   5.937   9.430
13553WAT     H140901   2.074   5.995   9.353
13553WAT     H240902   2.050   5.966   9.512
13554WAT      O40903   2.168   8.375   6.993
13554WAT     H140904   2.183   8.278   6.977
13554WAT     H240905   2.129   8.388   7.085
13555WAT      O40906   8.079   7.211   3.456
13555WAT     H140907   8.007   7.275   3.429
13555WAT     H240908   8.036   7.126   3.488
13556WAT      O40909   5.512   0.708   5.358
13556WAT     H140910   5.444   0.682   5.290
13556WAT     H240911   5.572   0.778   5.320
13557WAT      O40912   7.938   5.566   6.834
13557WAT     H140913   8.002   5.635   6.799
13557WAT     H240914   7.903   5.596   6.923
13558WAT      O40915   5.070   4.093   1.364
13558WAT     H140916   5.137   4.105   1.438
13558WAT     H240917   5.089   4.008   1.316
13559WAT      O40918   1.588   7.409   2.129
13559WAT     H140919   1.672   7.385   2.081
13559WAT     H240920   1.566   7.505   2.114
13560WAT      O40921   8.711   2.102   4.252
13560WAT     H140922   8.720   2.059   4.162
13560WAT     H240923   8.790   2.161   4.269
13561WAT      O40924   8.033   3.521   1.706
13561WAT     H140925   7.976   3.439   1.701
13561WAT     H240926   8.031   3.557   1.800
13562WAT      O40927   9.658   3.143   7.869
13562WAT     H140928   9.704   3.202   7.936
13562WAT     H240929   9.691   3.050   7.879
13563WAT      O40930   1.803   0.497   6.819
13563WAT     H140931   1.755   0.438   6.754
13563WAT     H240932   1.875   0.445   6.865
13564WAT      O40933   4.021   0.634   0.191
13564WAT     H140934   4.081   0.714   0.184
13564WAT     H240935   4.009   0.594   0.100
13565WAT      O40936   6.429   1.507   7.143
13565WAT     H140937   6.387   1.417   7.159
13565WAT     H240938   6.363   1.567   7.099
13566WAT      O40939   2.531   5.996   4.277
13566WAT     H140940   2.609   6.038   4.230
13566WAT     H240941   2.538   5.897   4.271
13567WAT      O40942   1.490   6.096   8.156
13567WAT     H140943   1.583   6.079   8.122
13567WAT     H240944   1.424   6.071   8.085
13568WAT      O40945   4.072   1.615   4.520
13568WAT     H140946   4.000   1.665   4.569
13568WAT     H240947   4.161   1.648   4.550
13569WAT      O40948   1.190   8.955   7.896
13569WAT     H140949   1.199   9.002   7.809
13569WAT     H240950   1.153   8.863   7.882
13570WAT      O40951   2.150   5.470   3.154
13570WAT     H140952   2.205   5.551   3.176
13570WAT     H240953   2.053   5.491   3.167
13571WAT      O40954   9.486   1.734   0.796
13571WAT     H140955   9.504   1.722   0.698
13571WAT     H240956   9.537   1.665   0.848
13572WAT      O40957   7.191   6.383   2.714
13572WAT     H140958   7.255   6.323   2.762
13572WAT     H240959   7.228   6.408   2.625
13573WAT      O40960   3.583   5.845   1.753
13573WAT     H140961   3.579   5.808   1.660
13573WAT     H240962   3.495   5.832   1.797
13574WAT      O40963   7.392   4.608   6.378
13574WAT     H140964   7.476   4.554   6.381
13574WAT     H240965   7.395   4.669   6.299
13575WAT      O40966   8.821   4.005   8.068
13575WAT     H140967   8.830   4.027   8.165
13575WAT     H240968   8.838   3.907   8.054
13576WAT      O40969   0.102   8.540   9.823
13576WAT     H140970   0.075   8.612   9.887
13576WAT     H240971   0.201   8.543   9.809
13577WAT      O40972   3.333   0.073   8.990
13577WAT     H140973   3.383   0.087   8.904
13577WAT     H240974   3.323  -0.025   9.007
13578WAT      O40975   6.101   5.520   3.088
13578WAT     H140976   6.090   5.528   3.187
13578WAT     H240977   6.088   5.610   3.046
13579WAT      O40978   9.053   0.064   8.918
13579WAT     H140979   8.985   0.035   8.851
13579WAT     H240980   9.123  -0.007   8.928
13580WAT      O40981   7.543   0.972   6.988
13580WAT     H140982   7.479   0.915   6.937
13580WAT     H240983   7.521   0.968   7.086
13581WAT      O40984   3.350   4.773   9.868
13581WAT     H140985   3.288   4.826   9.810
13581WAT     H240986   3.329   4.791   9.964
13582WAT      O40987   1.575   7.354   8.432
13582WAT     H140988   1.649   7.418   8.411
13582WAT     H240989   1.493   7.406   8.456
13583WAT      O40990   6.473   4.799   6.614
13583WAT     H140991   6.482   4.874   6.548
13583WAT     H240992   6.406   4.823   6.683
13584WAT      O40993   6.983   9.594   2.697
13584WAT     H140994   7.065   9.604   2.754
13584WAT     H240995   6.967   9.678   2.645
13585WAT      O40996   6.826   9.603   4.043
13585WAT     H140997   6.774   9.570   3.965
13585WAT     H240998   6.835   9.702   4.039
13586WAT      O40999   9.755   0.204   5.265
13586WAT     H141000   9.787   0.227   5.357
13586WAT     H241001   9.784   0.276   5.202
13587WAT      O41002   1.533   9.612   4.894
13587WAT     H141003   1.516   9.537   4.829
13587WAT     H241004   1.446   9.652   4.923
13588WAT      O41005   8.614   6.702   3.184
13588WAT     H141006   8.579   6.793   3.208
13588WAT     H241007   8.633   6.651   3.268
13589WAT      O41008   4.927   9.257   6.778
13589WAT     H141009   4.908   9.207   6.694
13589WAT     H241010   4.990   9.332   6.758
13590WAT      O41011   7.623   7.883   3.140
13590WAT     H141012   7.676   7.804   3.109
13590WAT     H241013   7.649   7.964   3.088
13591WAT      O41014   8.714   1.816   7.606
13591WAT     H141015   8.724   1.806   7.705
13591WAT     H241016   8.739   1.909   7.579
13592WAT      O41017   6.376   9.000   7.220
13592WAT     H141018   6.324   9.077   7.182
13592WAT     H241019   6.430   8.957   7.148
13593WAT      O41020   7.371   8.477   2.185
13593WAT     H141021   7.304   8.526   2.240
13593WAT     H241022   7.447   8.537   2.162
13594WAT      O41023   1.462   9.627   1.394
13594WAT     H141024   1.506   9.671   1.472
13594WAT     H241025   1.457   9.691   1.317
13595WAT      O41026   3.012   5.657   8.164
13595WAT     H141027   3.001   5.756   8.178
13595WAT     H241028   2.936   5.622   8.110
13596WAT      O41029   5.633   2.114   0.998
13596WAT     H141030   5.729   2.096   0.977
13596WAT     H241031   5.591   2.033   1.037
13597WAT      O41032   1.388   6.973   3.594
13597WAT     H141033   1.323   6.937   3.660
13597WAT     H241034   1.480   6.974   3.635
13598WAT      O41035   3.433   2.190   8.813
13598WAT     H141036   3.432   2.214   8.910
13598WAT     H241037   3.378   2.257   8.762
13599WAT      O41038   6.964   1.737   3.508
13599WAT     H141039   7.023   1.670   3.465
13599WAT     H241040   6.965   1.822   3.456
13600WAT      O41041   1.008   3.736   3.980
13600WAT     H141042   0.924   3.789   3.991
13600WAT     H241043   0.988   3.639   3.996
13601WAT      O41044   8.140   3.911   2.680
13601WAT     H141045   8.090   3.959   2.752
13601WAT     H241046   8.075   3.869   2.617
13602WAT      O41047   2.046   1.174   8.002
13602WAT     H141048   1.970   1.165   8.067
13602WAT     H241049   2.052   1.269   7.971
13603WAT      O41050   2.987   2.754   0.035
13603WAT     H141051   3.023   2.696   0.108
13603WAT     H241052   2.890   2.734   0.021
13604WAT      O41053   2.124   1.523   5.472
13604WAT     H141054   2.162   1.498   5.561
13604WAT     H241055   2.174   1.474   5.400
13605WAT      O41056   1.347   9.675   6.567
13605WAT     H141057   1.364   9.600   6.632
13605WAT     H241058   1.426   9.684   6.506
13606WAT      O41059   0.908   0.972   2.708
13606WAT     H141060   0.905   1.063   2.667
13606WAT     H241061   0.817   0.931   2.703
13607WAT      O41062   2.910   8.635   6.717
13607WAT     H141063   3.000   8.595   6.701
13607WAT     H241064   2.911   8.687   6.803
13608WAT      O41065   0.967   1.191   1.498
13608WAT     H141066   1.037   1.188   1.427
13608WAT     H241067   0.885   1.236   1.462
13609WAT      O41068   3.750   5.696   7.208
13609WAT     H141069   3.834   5.751   7.215
13609WAT     H241070   3.774   5.601   7.189
13610WAT      O41071   0.775   8.538   0.193
13610WAT     H141072   0.811   8.618   0.241
13610WAT     H241073   0.780   8.458   0.253
13611WAT      O41074   7.546   0.917   7.734
13611WAT     H141075   7.635   0.875   7.717
13611WAT     H241076   7.550   0.973   7.816
13612WAT      O41077   6.815   2.607   3.070
13612WAT     H141078   6.827   2.675   3.143
13612WAT     H241079   6.737   2.634   3.013
13613WAT      O41080   7.137   4.021   0.134
13613WAT     H141081   7.188   4.096   0.093
13613WAT     H241082   7.133   3.944   0.070
13614WAT      O41083   2.152   6.028   6.464
13614WAT     H141084   2.117   6.061   6.552
13614WAT     H241085   2.077   5.987   6.412
13615WAT      O41086   6.341   3.434   2.538
13615WAT     H141087   6.254   3.407   2.497
13615WAT     H241088   6.341   3.413   2.635
13616WAT      O41089   5.340   7.938   4.808
13616WAT     H141090   5.298   7.893   4.729
13616WAT     H241091   5.413   7.879   4.844
13617WAT      O41092   9.622   0.556   0.673
13617WAT     H141093   9.608   0.620   0.748
13617WAT     H241094   9.709   0.508   0.685
13618WAT      O41095   9.088   8.473   0.916
13618WAT     H141096   9.119   8.484   1.010
13618WAT     H241097   9.028   8.394   0.909
13619WAT      O41098   7.842   4.355   9.607
13619WAT     H141099   7.901   4.331   9.531
13619WAT     H241100   7.858   4.450   9.633
13620WAT      O41101   0.198   0.133   5.217
13620WAT     H141102   0.150   0.188   5.148
13620WAT     H241103   0.245   0.194   5.281
13621WAT      O41104   2.349   6.665   7.635
13621WAT     H141105   2.334   6.670   7.734
13621WAT     H241106   2.271   6.705   7.587
13622WAT      O41107   4.786   5.318   6.120
13622WAT     H141108   4.822   5.289   6.032
13622WAT     H241109   4.691   5.347   6.109
13623WAT      O41110   6.826   7.279   7.872
13623WAT     H141111   6.776   7.262   7.787
13623WAT     H241112   6.844   7.377   7.881
13624WAT      O41113   0.389   5.688   3.584
13624WAT     H141114   0.293   5.663   3.574
13624WAT     H241115   0.447   5.626   3.530
13625WAT      O41116   5.580   1.675   7.016
13625WAT     H141117   5.561   1.732   6.936
13625WAT     H241118   5.572   1.578   6.990
13626WAT      O41119   7.535   9.622   2.585
13626WAT     H141120   7.551   9.676   2.667
13626WAT     H241121   7.438   9.605   2.574
13627WAT      O41122   1.247   0.416   9.851
13627WAT     H141123   1.259   0.317   9.845
13627WAT     H241124   1.221   0.451   9.761
13628WAT      O41125   3.895   6.146   9.537
13628WAT     H141126   3.986   6.163   9.574
13628WAT     H241127   3.866   6.053   9.562
13629WAT      O41128   1.594   7.845   6.594
13629WAT     H141129   1.597   7.749   6.620
13629WAT     H241130   1.683   7.887   6.610
13630WAT      O41131   8.934   6.397   6.523
13630WAT     H141132   8.919   6.387   6.621
13630WAT     H241133   8.928   6.494   6.499
13631WAT      O41134   3.773   3.383   6.432
13631WAT     H141135   3.721   3.370   6.348
13631WAT     H241136   3.811   3.295   6.461
13632WAT      O41137   8.130   8.032   3.910
13632WAT     H141138   8.165   8.058   4.000
13632WAT     H241139   8.030   8.024   3.915
13633WAT      O41140   1.467   5.860   6.493
13633WAT     H141141   1.460   5.762   6.507
13633WAT     H241142   1.402   5.889   6.422
13634WAT      O41143   5.430   4.366   0.582
13634WAT     H141144   5.515   4.375   0.531
13634WAT     H241145   5.449   4.371   0.680
13635WAT      O41146   6.263   6.953   9.511
13635WAT     H141147   6.259   6.962   9.412
13635WAT     H241148   6.176   6.919   9.546
13636WAT      O41149   8.675   0.625   3.408
13636WAT     H141150   8.670   0.721   3.380
13636WAT     H241151   8.588   0.580   3.388
13637WAT      O41152   4.321   6.867   8.931
13637WAT     H141153   4.250   6.856   8.862
13637WAT     H241154   4.280   6.893   9.018
13638WAT      O41155   6.076   5.427   9.199
13638WAT     H141156   6.035   5.386   9.117
13638WAT     H241157   6.175   5.412   9.198
13639WAT      O41158   9.871   8.024   6.221
13639WAT     H141159   9.922   7.970   6.287
13639WAT     H241160   9.920   8.025   6.133
13640WAT      O41161   7.719   7.430   2.011
13640WAT     H141162   7.673   7.475   1.934
13640WAT     H241163   7.721   7.331   1.995
13641WAT      O41164   9.671   8.832   6.973
13641WAT     H141165   9.588   8.853   7.023
13641WAT     H241166   9.658   8.749   6.918
13642WAT      O41167   6.780   5.637   3.815
13642WAT     H141168   6.840   5.569   3.856
13642WAT     H241169   6.700   5.650   3.874
13643WAT      O41170   0.890   8.575   1.680
13643WAT     H141171   0.975   8.622   1.655
13643WAT     H241172   0.814   8.639   1.672
13644WAT      O41173   2.357   8.311   2.795
13644WAT     H141174   2.315   8.395   2.761
13644WAT     H241175   2.287   8.254   2.838
13645WAT      O41176   5.180   0.325   1.015
13645WAT     H141177   5.267   0.353   1.055
13645WAT     H241178   5.154   0.389   0.943
13646WAT      O41179   8.470   6.411   3.860
13646WAT     H141180   8.498   6.497   3.818
13646WAT     H241181   8.484   6.416   3.959
13647WAT      O41182   9.227   8.302   6.431
13647WAT     H141183   9.314   8.258   6.409
13647WAT     H241184   9.182   8.253   6.506
13648WAT      O41185   1.023   2.684   5.970
13648WAT     H141186   0.950   2.620   5.993
13648WAT     H241187   1.008   2.722   5.879
13649WAT      O41188   1.438   7.561   5.745
13649WAT     H141189   1.530   7.585   5.776
13649WAT     H241190   1.418   7.610   5.660
13650WAT      O41191   3.192   4.029   1.234
13650WAT     H141192   3.209   4.124   1.205
13650WAT     H241193   3.272   3.996   1.285
13651WAT      O41194   9.649   0.606   1.282
13651WAT     H141195   9.713   0.663   1.334
13651WAT     H241196   9.556   0.619   1.317
13652WAT      O41197   7.901   5.453   3.760
13652WAT     H141198   7.842   5.457   3.840
13652WAT     H241199   7.948   5.364   3.758
13653WAT      O41200   8.640   3.380   4.588
13653WAT     H141201   8.735   3.363   4.562
13653WAT     H241202   8.596   3.294   4.612
13654WAT      O41203   6.071   2.023   5.015
13654WAT     H141204   6.108   2.009   5.107
13654WAT     H241205   5.980   1.982   5.009
13655WAT      O41206   5.054   1.458   8.932
13655WAT     H141207   5.102   1.372   8.910
13655WAT     H241208   5.057   1.519   8.852
13656WAT      O41209   3.217   8.082   3.161
13656WAT     H141210   3.262   8.170   3.148
13656WAT     H241211   3.144   8.072   3.093
13657WAT      O41212   0.062   9.326   7.459
13657WAT     H141213   0.074   9.373   7.547
13657WAT     H241214   0.115   9.242   7.458
13658WAT      O41215   7.612   9.231   8.984
13658WAT     H141216   7.700   9.186   8.970
13658WAT     H241217   7.620   9.328   8.961
13659WAT      O41218   5.722   0.360   7.420
13659WAT     H141219   5.742   0.272   7.376
13659WAT     H241220   5.701   0.344   7.517
13660WAT      O41221   0.894   3.220   7.155
13660WAT     H141222   0.819   3.262   7.205
13660WAT     H241223   0.978   3.227   7.210
13661WAT      O41224   2.247   5.440   8.978
13661WAT     H141225   2.295   5.511   9.032
13661WAT     H241226   2.148   5.451   8.990
13662WAT      O41227   1.520   8.356   3.580
13662WAT     H141228   1.564   8.431   3.531
13662WAT     H241229   1.536   8.368   3.679
13663WAT      O41230   2.872   2.643   0.476
13663WAT     H141231   2.834   2.590   0.551
13663WAT     H241232   2.824   2.621   0.391
13664WAT      O41233   5.368   2.913   2.554
13664WAT     H141234   5.277   2.908   2.595
13664WAT     H241235   5.423   2.980   2.604
13665WAT      O41236   0.237   5.719   2.532
13665WAT     H141237   0.214   5.812   2.561
13665WAT     H241238   0.175   5.689   2.460
13666WAT      O41239   1.449   7.132   0.098
13666WAT     H141240   1.350   7.117   0.101
13666WAT     H241241   1.495   7.052   0.137
13667WAT      O41242   4.379   8.718   9.393
13667WAT     H141243   4.404   8.630   9.432
13667WAT     H241244   4.283   8.716   9.363
13668WAT      O41245   2.436   6.565   2.544
13668WAT     H141246   2.371   6.508   2.594
13668WAT     H241247   2.424   6.661   2.571
13669WAT      O41248   1.951   4.589   3.515
13669WAT     H141249   1.895   4.566   3.435
13669WAT     H241250   2.031   4.641   3.486
13670WAT      O41251   2.800   3.330   6.003
13670WAT     H141252   2.843   3.378   5.927
13670WAT     H241253   2.704   3.358   6.010
13671WAT      O41254   0.125   6.083   8.624
13671WAT     H141255   0.070   6.057   8.703
13671WAT     H241256   0.185   6.159   8.649
13672WAT      O41257   0.918   6.024   3.602
13672WAT     H141258   0.969   6.087   3.543
13672WAT     H241259   0.823   6.020   3.573
13673WAT      O41260   6.312   9.240   9.263
13673WAT     H141261   6.260   9.248   9.178
13673WAT     H241262   6.408   9.261   9.246
13674WAT      O41263   0.397   4.158   2.583
13674WAT     H141264   0.398   4.163   2.483
13674WAT     H241265   0.491   4.152   2.617
13675WAT      O41266   0.269   6.860   1.647
13675WAT     H141267   0.256   6.907   1.734
13675WAT     H241268   0.331   6.912   1.589
13676WAT      O41269   9.298   9.464   5.619
13676WAT     H141270   9.276   9.501   5.710
13676WAT     H241271   9.306   9.539   5.554
13677WAT      O41272   1.296   8.054   3.129
13677WAT     H141273   1.394   8.059   3.112
13677WAT     H241274   1.253   7.997   3.059
13678WAT      O41275   6.671   2.818   5.629
13678WAT     H141276   6.657   2.836   5.726
13678WAT     H241277   6.620   2.884   5.574
13679WAT      O41278   6.660   4.704   3.232
13679WAT     H141279   6.563   4.721   3.248
13679WAT     H241280   6.694   4.766   3.161
13680WAT      O41281   8.702   8.671   4.412
13680WAT     H141282   8.608   8.699   4.392
13680WAT     H241283   8.764   8.748   4.395
13681WAT      O41284   8.153   6.184   8.743
13681WAT     H141285   8.224   6.249   8.716
13681WAT     H241286   8.118   6.138   8.661
13682WAT      O41287   9.774   1.332   4.690
13682WAT     H141288   9.787   1.252   4.749
13682WAT     H241289   9.843   1.401   4.712
13683WAT      O41290   4.305   1.861   6.948
13683WAT     H141291   4.325   1.947   6.901
13683WAT     H241292   4.390   1.823   6.984
13684WAT      O41293   0.215   2.142   0.771
13684WAT     H141294   0.233   2.153   0.673
13684WAT     H241295   0.283   2.193   0.823
13685WAT      O41296   9.489   6.311   4.709
13685WAT     H141297   9.416   6.268   4.656
13685WAT     H241298   9.565   6.248   4.719
13686WAT      O41299   2.182   4.861   8.305
13686WAT     H141300   2.207   4.793   8.237
13686WAT     H241301   2.226   4.839   8.392
13687WAT      O41302   1.831   9.527   4.266
13687WAT     H141303   1.829   9.560   4.171
13687WAT     H241304   1.898   9.453   4.274
13688WAT      O41305   3.007   8.004   1.586
13688WAT     H141306   2.960   7.973   1.503
13688WAT     H241307   3.033   7.925   1.641
13689WAT      O41308   3.350   4.388   8.621
13689WAT     H141309   3.319   4.297   8.649
13689WAT     H241310   3.273   4.438   8.582
13690WAT      O41311   9.691   1.103   6.097
13690WAT     H141312   9.770   1.140   6.048
13690WAT     H241313   9.640   1.178   6.139
13691WAT      O41314   9.851   9.824   2.085
13691WAT     H141315   9.822   9.755   2.018
13691WAT     H241316   9.774   9.884   2.106
13692WAT      O41317   7.771   3.455   7.324
13692WAT     H141318   7.826   3.430   7.243
13692WAT     H241319   7.773   3.554   7.336
13693WAT      O41320   9.469   6.960   4.550
13693WAT     H141321   9.518   7.033   4.503
13693WAT     H241322   9.526   6.877   4.551
13694WAT      O41323   9.408   4.373   7.786
13694WAT     H141324   9.494   4.349   7.831
13694WAT     H241325   9.348   4.293   7.783
13695WAT      O41326   8.056   2.012   5.361
13695WAT     H141327   8.004   2.050   5.437
13695WAT     H241328   8.023   2.052   5.275
13696WAT      O41329   1.073   1.411   8.289
13696WAT     H141330   1.110   1.319   8.276
13696WAT     H241331   1.106   1.448   8.376
13697WAT      O41332   2.999   7.361   9.535
13697WAT     H141333   2.963   7.268   9.528
13697WAT     H241334   2.923   7.426   9.533
13698WAT      O41335   6.265   8.823   6.379
13698WAT     H141336   6.212   8.859   6.455
13698WAT     H241337   6.262   8.888   6.302
13699WAT      O41338   1.323   4.861   9.839
13699WAT     H141339   1.236   4.816   9.817
13699WAT     H241340   1.394   4.792   9.853
13700WAT      O41341   6.918   2.650   0.395
13700WAT     H141342   6.981   2.600   0.454
13700WAT     H241343   6.879   2.727   0.446
13701WAT      O41344   4.948   6.039   8.596
13701WAT     H141345   4.918   6.070   8.686
13701WAT     H241346   4.909   5.949   8.578
13702WAT      O41347   5.986   9.575   2.867
13702WAT     H141348   5.952   9.650   2.811
13702WAT     H241349   5.912   9.511   2.886
13703WAT      O41350   3.329   1.231   9.258
13703WAT     H141351   3.389   1.223   9.338
13703WAT     H241352   3.367   1.178   9.182
13704WAT      O41353   0.171   1.828   3.771
13704WAT     H141354   0.183   1.809   3.673
13704WAT     H241355   0.221   1.759   3.824
13705WAT      O41356   3.229   6.697   5.077
13705WAT     H141357   3.244   6.758   5.000
13705WAT     H241358   3.204   6.750   5.158
13706WAT      O41359   7.813   3.733   0.568
13706WAT     H141360   7.843   3.750   0.474
13706WAT     H241361   7.875   3.778   0.632
13707WAT      O41362   0.489   7.772   8.608
13707WAT     H141363   0.504   7.856   8.661
13707WAT     H241364   0.513   7.693   8.664
13708WAT      O41365   4.731   4.459   0.546
13708WAT     H141366   4.747   4.421   0.637
13708WAT     H241367   4.764   4.554   0.544
13709WAT      O41368   8.271   4.649   7.834
13709WAT     H141369   8.293   4.728   7.891
13709WAT     H241370   8.338   4.577   7.850
13710WAT      O41371   3.627   8.953   7.967
13710WAT     H141372   3.601   9.006   8.048
13710WAT     H241373   3.668   9.014   7.899
13711WAT      O41374   2.071   1.836   8.901
13711WAT     H141375   2.071   1.896   8.981
13711WAT     H241376   2.008   1.760   8.916
13712WAT      O41377   8.029   3.864   6.939
13712WAT     H141378   7.973   3.840   7.019
13712WAT     H241379   7.997   3.951   6.901
13713WAT      O41380   0.292   7.524   0.965
13713WAT     H141381   0.314   7.462   1.041
13713WAT     H241382   0.302   7.475   0.878
13714WAT      O41383   7.092   7.222   9.380
13714WAT     H141384   7.181   7.186   9.406
13714WAT     H241385   7.057   7.171   9.301
13715WAT      O41386   2.813   6.881   1.549
13715WAT     H141387   2.770   6.802   1.506
13715WAT     H241388   2.911   6.883   1.525
13716WAT      O41389   6.488   9.582   2.068
13716WAT     H141390   6.544   9.624   1.997
13716WAT     H241391   6.547   9.548   2.141
13717WAT      O41392   6.081   4.695   6.808
13717WAT     H141393   6.078   4.599   6.836
13717WAT     H241394   6.096   4.700   6.709
13718WAT      O41395   4.917   8.049   5.076
13718WAT     H141396   4.877   8.000   5.153
13718WAT     H241397   4.845   8.075   5.012
13719WAT      O41398   3.026   4.392   2.885
13719WAT     H141399   3.017   4.364   2.789
13719WAT     H241400   3.102   4.343   2.928
13720WAT      O41401   2.443   9.542   7.243
13720WAT     H141402   2.352   9.524   7.206
13720WAT     H241403   2.435   9.589   7.331
13721WAT      O41404   9.494   3.355   8.827
13721WAT     H141405   9.398   3.376   8.849
13721WAT     H241406   9.519   3.400   8.742
13722WAT      O41407   4.056   1.868   3.409
13722WAT     H141408   4.094   1.925   3.337
13722WAT     H241409   3.959   1.852   3.391
13723WAT      O41410   3.949   5.012   6.453
13723WAT     H141411   4.025   4.970   6.403
13723WAT     H241412   3.984   5.050   6.539
13724WAT      O41413   8.019   3.384   7.827
13724WAT     H141414   7.998   3.426   7.738
13724WAT     H241415   8.108   3.418   7.859
13725WAT      O41416   4.479   3.907   7.966
13725WAT     H141417   4.405   3.840   7.975
13725WAT     H241418   4.526   3.893   7.879
13726WAT      O41419   4.748   8.443   8.623
13726WAT     H141420   4.817   8.488   8.679
13726WAT     H241421   4.791   8.401   8.543
13727WAT      O41422   4.101   3.477   8.898
13727WAT     H141423   4.027   3.413   8.915
13727WAT     H241424   4.080   3.532   8.817
13728WAT      O41425   5.898   7.925   9.652
13728WAT     H141426   5.917   8.015   9.613
13728WAT     H241427   5.970   7.901   9.717
13729WAT      O41428   0.968   2.860   8.235
13729WAT     H141429   0.895   2.869   8.167
13729WAT     H241430   0.957   2.774   8.285
13730WAT      O41431   5.161   2.999   5.831
13730WAT     H141432   5.150   2.904   5.861
13730WAT     H241433   5.160   3.002   5.731
13731WAT      O41434   7.690   9.082   7.612
13731WAT     H141435   7.649   9.075   7.703
13731WAT     H241436   7.623   9.055   7.543
13732WAT      O41437   8.204   0.320   8.271
13732WAT     H141438   8.145   0.332   8.351
13732WAT     H241439   8.158   0.357   8.190
13733WAT      O41440   2.710   6.245   0.476
13733WAT     H141441   2.691   6.166   0.418
13733WAT     H241442   2.679   6.328   0.430
13734WAT      O41443   7.456   7.213   7.388
13734WAT     H141444   7.529   7.234   7.453
13734WAT     H241445   7.467   7.268   7.306
13735WAT      O41446   8.546   1.073   6.098
13735WAT     H141447   8.457   1.086   6.142
13735WAT     H241448   8.596   1.160   6.099
13736WAT      O41449   5.691   3.311   7.097
13736WAT     H141450   5.789   3.299   7.112
13736WAT     H241451   5.670   3.408   7.088
13737WAT      O41452   3.704   2.668   3.244
13737WAT     H141453   3.617   2.619   3.237
13737WAT     H241454   3.762   2.624   3.313
13738WAT      O41455   1.278   9.493   7.742
13738WAT     H141456   1.268   9.589   7.766
13738WAT     H241457   1.322   9.485   7.653
13739WAT      O41458   5.267   1.571   9.049
13739WAT     H141459   5.196   1.512   9.009
13739WAT     H241460   5.239   1.667   9.041
13740WAT      O41461   4.030   8.285   9.610
13740WAT     H141462   4.105   8.343   9.641
13740WAT     H241463   4.003   8.312   9.518
13741WAT      O41464   0.660   9.046   3.645
13741WAT     H141465   0.643   9.144   3.636
13741WAT     H241466   0.735   9.019   3.585
13742WAT      O41467   5.739   6.469   7.647
13742WAT     H141468   5.836   6.490   7.658
13742WAT     H241469   5.702   6.439   7.735
13743WAT      O41470   5.604   1.810   3.497
13743WAT     H141471   5.577   1.871   3.572
13743WAT     H241472   5.698   1.778   3.513
13744WAT      O41473   0.429   5.902   4.636
13744WAT     H141474   0.405   5.873   4.729
13744WAT     H241475   0.460   5.997   4.637
13745WAT      O41476   7.883   1.907   4.992
13745WAT     H141477   7.827   1.962   4.930
13745WAT     H241478   7.877   1.811   4.967
13746WAT      O41479   3.489   4.949   8.757
13746WAT     H141480   3.584   4.957   8.727
13746WAT     H241481   3.452   5.041   8.773
13747WAT      O41482   2.113   4.725   6.711
13747WAT     H141483   2.124   4.818   6.746
13747WAT     H241484   2.203   4.681   6.706
13748WAT      O41485   1.368   1.284   7.360
13748WAT     H141486   1.346   1.216   7.290
13748WAT     H241487   1.406   1.238   7.440
13749WAT      O41488   4.498   9.746   8.011
13749WAT     H141489   4.504   9.646   8.008
13749WAT     H241490   4.542   9.785   7.930
13750WAT      O41491   3.423   9.388   1.574
13750WAT     H141492   3.477   9.394   1.490
13750WAT     H241493   3.438   9.470   1.629
13751WAT      O41494   1.589   1.814   6.647
13751WAT     H141495   1.628   1.903   6.671
13751WAT     H241496   1.559   1.767   6.730
13752WAT      O41497   6.958   2.018   8.771
13752WAT     H141498   6.897   1.962   8.715
13752WAT     H241499   7.010   2.080   8.712
13753WAT      O41500   0.414   7.906   1.983
13753WAT     H141501   0.424   7.944   2.075
13753WAT     H241502   0.393   7.981   1.919
13754WAT      O41503   8.492   2.471   7.543
13754WAT     H141504   8.532   2.389   7.501
13754WAT     H241505   8.527   2.481   7.636
13755WAT      O41506   6.895   0.457   3.802
13755WAT     H141507   6.820   0.400   3.836
13755WAT     H241508   6.920   0.427   3.710
13756WAT      O41509   3.573   6.823   7.187
13756WAT     H141510   3.613   6.914   7.173
13756WAT     H241511   3.647   6.757   7.200
13757WAT      O41512   9.220   4.021   9.761
13757WAT     H141513   9.246   4.043   9.667
13757WAT     H241514   9.249   4.095   9.821
13758WAT      O41515   8.370   0.431   5.949
13758WAT     H141516   8.315   0.372   5.890
13758WAT     H241517   8.323   0.518   5.963
13759WAT      O41518   0.006   1.045   2.672
13759WAT     H141519  -0.025   1.025   2.580
13759WAT     H241520   0.095   1.002   2.688
13760WAT      O41521   7.154   3.830   9.050
13760WAT     H141522   7.074   3.775   9.072
13760WAT     H241523   7.153   3.914   9.104
13761WAT      O41524   8.893   7.094   1.945
13761WAT     H141525   8.950   7.032   1.999
13761WAT     H241526   8.925   7.188   1.958
13762WAT      O41527   8.671   3.097   7.188
13762WAT     H141528   8.744   3.142   7.240
13762WAT     H241529   8.684   3.115   7.090
13763WAT      O41530   8.398   1.285   0.018
13763WAT     H141531   8.429   1.365  -0.033
13763WAT     H241532   8.348   1.224  -0.044
13764WAT      O41533   1.304   7.736   9.613
13764WAT     H141534   1.254   7.769   9.693
13764WAT     H241535   1.401   7.727   9.636
13765WAT      O41536   6.492   5.645   9.134
13765WAT     H141537   6.582   5.615   9.166
13765WAT     H241538   6.469   5.732   9.177
13766WAT      O41539   9.040   2.155   3.045
13766WAT     H141540   8.982   2.106   3.110
13766WAT     H241541   8.984   2.184   2.967
13767WAT      O41542   8.882   0.485   5.694
13767WAT     H141543   8.947   0.428   5.745
13767WAT     H241544   8.817   0.527   5.758
13768WAT      O41545   3.877   6.458   8.000
13768WAT     H141546   3.954   6.460   7.937
13768WAT     H241547   3.793   6.435   7.950
13769WAT      O41548   1.426   2.676   5.534
13769WAT     H141549   1.440   2.652   5.630
13769WAT     H241550   1.466   2.606   5.476
13770WAT      O41551   3.084   3.959   6.244
13770WAT     H141552   3.091   3.903   6.161
13770WAT     H241553   3.049   3.904   6.319
13771WAT      O41554   3.822   8.015   8.723
13771WAT     H141555   3.874   7.974   8.648
13771WAT     H241556   3.738   8.056   8.688
13772WAT      O41557   7.243   8.871   6.633
13772WAT     H141558   7.188   8.929   6.694
13772WAT     H241559   7.302   8.929   6.577
13773WAT      O41560   5.327   7.473   5.314
13773WAT     H141561   5.386   7.529   5.371
13773WAT     H241562   5.279   7.406   5.371
13774WAT      O41563   4.151   6.527   9.743
13774WAT     H141564   4.219   6.508   9.671
13774WAT     H241565   4.114   6.618   9.730
13775WAT      O41566   9.522   4.108   3.075
13775WAT     H141567   9.595   4.087   3.140
13775WAT     H241568   9.445   4.150   3.124
13776WAT      O41569   3.913   5.160   2.374
13776WAT     H141570   3.918   5.062   2.391
13776WAT     H241571   3.883   5.176   2.280
13777WAT      O41572   4.272   2.408   1.328
13777WAT     H141573   4.205   2.432   1.398
13777WAT     H241574   4.278   2.308   1.321
13778WAT      O41575   6.288   9.039   4.589
13778WAT     H141576   6.318   9.133   4.571
13778WAT     H241577   6.367   8.983   4.613
13779WAT      O41578   7.396   5.104   3.665
13779WAT     H141579   7.451   5.073   3.588
13779WAT     H241580   7.371   5.025   3.722
13780WAT      O41581   8.489   5.239   7.871
13780WAT     H141582   8.506   5.337   7.858
13780WAT     H241583   8.429   5.205   7.799
13781WAT      O41584   0.962   7.962   9.719
13781WAT     H141585   0.884   8.008   9.677
13781WAT     H241586   1.034   8.029   9.737
13782WAT      O41587   6.513   1.713   8.099
13782WAT     H141588   6.594   1.739   8.046
13782WAT     H241589   6.473   1.795   8.140
13783WAT      O41590   6.777   8.269   1.893
13783WAT     H141591   6.780   8.193   1.828
13783WAT     H241592   6.870   8.300   1.912
13784WAT      O41593   9.013   7.197   4.234
13784WAT     H141594   9.079   7.272   4.237
13784WAT     H241595   9.056   7.117   4.191
13785WAT      O41596   9.881   6.215   1.833
13785WAT     H141597   9.954   6.188   1.897
13785WAT     H241598   9.906   6.302   1.789
13786WAT      O41599   6.341   3.391   2.801
13786WAT     H141600   6.424   3.439   2.827
13786WAT     H241601   6.262   3.435   2.844
13787WAT      O41602   0.690   2.660   6.101
13787WAT     H141603   0.740   2.677   6.185
13787WAT     H241604   0.643   2.571   6.106
13788WAT      O41605   5.022   7.146   1.049
13788WAT     H141606   4.999   7.063   1.100
13788WAT     H241607   4.938   7.197   1.029
13789WAT      O41608   6.288   6.171   6.529
13789WAT     H141609   6.301   6.102   6.458
13789WAT     H241610   6.224   6.241   6.497
13790WAT      O41611   5.211   3.971   8.501
13790WAT     H141612   5.262   3.965   8.416
13790WAT     H241613   5.252   3.910   8.569
13791WAT      O41614   8.494   5.825   9.106
13791WAT     H141615   8.591   5.806   9.122
13791WAT     H241616   8.455   5.755   9.047
13792WAT      O41617   5.091   3.463   6.373
13792WAT     H141618   5.165   3.455   6.306
13792WAT     H241619   5.098   3.551   6.420
13793WAT      O41620   9.258   1.452   9.093
13793WAT     H141621   9.312   1.372   9.066
13793WAT     H241622   9.197   1.427   9.168
13794WAT      O41623   5.334   9.248   6.348
13794WAT     H141624   5.413   9.306   6.370
13794WAT     H241625   5.337   9.223   6.252
13795WAT      O41626   0.446   0.780   9.456
13795WAT     H141627   0.419   0.768   9.552
13795WAT     H241628   0.545   0.786   9.450
13796WAT      O41629   2.005   6.114   2.384
13796WAT     H141630   1.995   6.148   2.291
13796WAT     H241631   2.019   6.191   2.446
13797WAT      O41632   9.040   9.776   9.474
13797WAT     H141633   9.072   9.681   9.468
13797WAT     H241634   8.973   9.793   9.402
13798WAT      O41635   8.775   5.369   0.481
13798WAT     H141636   8.735   5.458   0.506
13798WAT     H241637   8.864   5.360   0.526
13799WAT      O41638   5.791   1.271   5.052
13799WAT     H141639   5.724   1.251   4.982
13799WAT     H241640   5.747   1.319   5.128
13800WAT      O41641   8.078   8.426   5.457
13800WAT     H141642   7.991   8.473   5.441
13800WAT     H241643   8.092   8.411   5.555
13801WAT      O41644   0.537   8.255   6.814
13801WAT     H141645   0.523   8.212   6.725
13801WAT     H241646   0.547   8.354   6.801
13802WAT      O41647   0.883   6.789   1.740
13802WAT     H141648   0.866   6.843   1.658
13802WAT     H241649   0.908   6.696   1.715
13803WAT      O41650   3.542   4.549   8.705
13803WAT     H141651   3.618   4.489   8.730
13803WAT     H241652   3.467   4.495   8.668
13804WAT      O41653   4.267   5.171   3.565
13804WAT     H141654   4.175   5.210   3.568
13804WAT     H241655   4.332   5.238   3.601
13805WAT      O41656   8.309   4.855   1.387
13805WAT     H141657   8.358   4.887   1.468
13805WAT     H241658   8.275   4.762   1.403
13806WAT      O41659   2.926   9.363   8.691
13806WAT     H141660   2.980   9.443   8.664
13806WAT     H241661   2.869   9.333   8.615
13807WAT      O41662   1.857   3.030   3.736
13807WAT     H141663   1.829   2.975   3.814
13807WAT     H241664   1.776   3.068   3.691
13808WAT      O41665   7.599   8.739   0.453
13808WAT     H141666   7.588   8.837   0.433
13808WAT     H241667   7.640   8.728   0.544
13809WAT      O41668   2.243   1.672   4.892
13809WAT     H141669   2.193   1.648   4.975
13809WAT     H241670   2.321   1.729   4.915
13810WAT      O41671   7.527   4.735   7.884
13810WAT     H141672   7.491   4.644   7.908
13810WAT     H241673   7.626   4.729   7.875
13811WAT      O41674   5.823   4.428   6.824
13811WAT     H141675   5.843   4.423   6.727
13811WAT     H241676   5.741   4.483   6.839
13812WAT      O41677   8.493   6.958   0.638
13812WAT     H141678   8.433   6.889   0.679
13812WAT     H241679   8.506   6.936   0.541
13813WAT      O41680   6.471   0.696   5.318
13813WAT     H141681   6.410   0.678   5.241
13813WAT     H241682   6.523   0.780   5.301
13814WAT      O41683   2.770   5.662   7.965
13814WAT     H141684   2.682   5.616   7.978
13814WAT     H241685   2.763   5.757   7.994
13815WAT      O41686   0.715   4.660   9.581
13815WAT     H141687   0.660   4.653   9.664
13815WAT     H241688   0.665   4.711   9.511
13816WAT      O41689   5.808   2.497   3.029
13816WAT     H141690   5.756   2.489   2.944
13816WAT     H241691   5.887   2.435   3.026
13817WAT      O41692   5.568   0.741   8.248
13817WAT     H141693   5.609   0.653   8.271
13817WAT     H241694   5.480   0.727   8.203
13818WAT      O41695   9.868   0.278   7.704
13818WAT     H141696   9.859   0.366   7.659
13818WAT     H241697   9.910   0.212   7.642
13819WAT      O41698   0.107   3.531   8.950
13819WAT     H141699   0.051   3.613   8.964
13819WAT     H241700   0.173   3.523   9.024
13820WAT      O41701   6.256   4.776   5.084
13820WAT     H141702   6.305   4.703   5.036
13820WAT     H241703   6.215   4.837   5.016
13821WAT      O41704   1.473   0.614   3.221
13821WAT     H141705   1.552   0.607   3.283
13821WAT     H241706   1.439   0.708   3.221
13822WAT      O41707   1.411   6.439   4.805
13822WAT     H141708   1.510   6.445   4.817
13822WAT     H241709   1.374   6.375   4.873
13823WAT      O41710   5.380   0.820   0.955
13823WAT     H141711   5.289   0.858   0.941
13823WAT     H241712   5.373   0.723   0.981
13824WAT      O41713   0.299   8.994   4.768
13824WAT     H141714   0.373   9.060   4.759
13824WAT     H241715   0.336   8.902   4.775
13825WAT      O41716   7.855   7.338   0.545
13825WAT     H141717   7.913   7.400   0.492
13825WAT     H241718   7.798   7.285   0.482
13826WAT      O41719   7.426   8.556   2.811
13826WAT     H141720   7.400   8.462   2.789
13826WAT     H241721   7.386   8.583   2.898
13827WAT      O41722   4.045   9.617   4.984
13827WAT     H141723   4.002   9.533   4.953
13827WAT     H241724   3.986   9.663   5.050
13828WAT      O41725   2.854   6.948   3.796
13828WAT     H141726   2.934   7.005   3.775
13828WAT     H241727   2.873   6.892   3.877
13829WAT      O41728   0.918   8.779   6.009
13829WAT     H141729   1.001   8.835   6.005
13829WAT     H241730   0.857   8.815   6.080
13830WAT      O41731   0.630   3.757   3.007
13830WAT     H141732   0.548   3.803   2.973
13830WAT     H241733   0.700   3.826   3.026
13831WAT      O41734   3.111   6.910   3.506
13831WAT     H141735   3.079   6.917   3.411
13831WAT     H241736   3.167   6.828   3.516
13832WAT      O41737   9.438   4.512   5.131
13832WAT     H141738   9.460   4.461   5.048
13832WAT     H241739   9.408   4.449   5.203
13833WAT      O41740   0.102   9.486   2.395
13833WAT     H141741   0.129   9.412   2.456
13833WAT     H241742   0.068   9.564   2.448
13834WAT      O41743   7.121   0.680   2.319
13834WAT     H141744   7.088   0.686   2.413
13834WAT     H241745   7.064   0.739   2.261
13835WAT      O41746   8.012   3.909   8.210
13835WAT     H141747   8.095   3.937   8.161
13835WAT     H241748   7.932   3.944   8.162
13836WAT      O41749   7.936   9.288   0.202
13836WAT     H141750   7.985   9.203   0.222
13836WAT     H241751   7.967   9.323   0.113
13837WAT      O41752   0.859   8.982   6.503
13837WAT     H141753   0.815   8.917   6.441
13837WAT     H241754   0.958   8.978   6.490
13838WAT      O41755   5.836   8.940   6.926
13838WAT     H141756   5.753   8.927   6.980
13838WAT     H241757   5.905   8.988   6.981
13839WAT      O41758   0.931   3.691   3.236
13839WAT     H141759   0.901   3.665   3.328
13839WAT     H241760   0.878   3.641   3.168
13840WAT      O41761   7.790   1.506   2.896
13840WAT     H141762   7.713   1.515   2.833
13840WAT     H241763   7.854   1.437   2.862
13841WAT      O41764   8.949   0.861   5.043
13841WAT     H141765   8.881   0.896   4.978
13841WAT     H241766   8.902   0.825   5.124
13842WAT      O41767   8.081   3.854   6.165
13842WAT     H141768   8.018   3.898   6.230
13842WAT     H241769   8.167   3.833   6.212
13843WAT      O41770   7.632   6.544   5.054
13843WAT     H141771   7.575   6.472   5.014
13843WAT     H241772   7.728   6.518   5.047
13844WAT      O41773   4.566   4.680   8.421
13844WAT     H141774   4.499   4.737   8.470
13844WAT     H241775   4.635   4.739   8.379
13845WAT      O41776   9.222   7.155   6.490
13845WAT     H141777   9.272   7.195   6.413
13845WAT     H241778   9.184   7.067   6.464
13846WAT      O41779   5.221   2.091   8.287
13846WAT     H141780   5.314   2.060   8.266
13846WAT     H241781   5.194   2.057   8.377
13847WAT      O41782   6.849   2.340   3.042
13847WAT     H141783   6.834   2.439   3.035
13847WAT     H241784   6.763   2.292   3.025
13848WAT      O41785   1.472   3.646   4.665
13848WAT     H141786   1.430   3.558   4.640
13848WAT     H241787   1.547   3.666   4.602
13849WAT      O41788   5.376   8.965   8.246
13849WAT     H141789   5.304   9.011   8.194
13849WAT     H241790   5.370   8.991   8.343
13850WAT      O41791   1.348   4.243   4.129
13850WAT     H141792   1.379   4.171   4.067
13850WAT     H241793   1.290   4.307   4.079
13851WAT      O41794   6.630   0.507   1.506
13851WAT     H141795   6.626   0.551   1.595
13851WAT     H241796   6.623   0.408   1.518
13852WAT      O41797   0.539   0.079   5.992
13852WAT     H141798   0.594  -0.003   6.005
13852WAT     H241799   0.473   0.087   6.067
13853WAT      O41800   3.761   2.304   1.941
13853WAT     H141801   3.693   2.366   1.982
13853WAT     H241802   3.804   2.350   1.864
13854WAT      O41803   0.991   5.829   2.601
13854WAT     H141804   0.980   5.849   2.504
13854WAT     H241805   0.929   5.886   2.655
13855WAT      O41806   7.483   1.456   8.626
13855WAT     H141807   7.524   1.541   8.659
13855WAT     H241808   7.443   1.406   8.703
13856WAT      O41809   6.868   4.770   9.309
13856WAT     H141810   6.957   4.760   9.264
13856WAT     H241811   6.798   4.722   9.256
13857WAT      O41812   0.710   7.629   0.059
13857WAT     H141813   0.644   7.566   0.019
13857WAT     H241814   0.786   7.578   0.100
13858WAT      O41815   7.386   0.843   4.628
13858WAT     H141816   7.320   0.894   4.574
13858WAT     H241817   7.348   0.824   4.719
13859WAT      O41818   0.566   6.680   1.425
13859WAT     H141819   0.623   6.737   1.366
13859WAT     H241820   0.472   6.679   1.391
13860WAT      O41821   6.575   8.130   4.189
13860WAT     H141822   6.656   8.147   4.132
13860WAT     H241823   6.543   8.037   4.174
13861WAT      O41824   8.342   2.127   5.757
13861WAT     H141825   8.256   2.076   5.756
13861WAT     H241826   8.324   2.224   5.772
13862WAT      O41827   3.173   7.918   9.766
13862WAT     H141828   3.246   7.927   9.698
13862WAT     H241829   3.209   7.944   9.856
13863WAT      O41830   6.308   3.620   2.070
13863WAT     H141831   6.214   3.614   2.104
13863WAT     H241832   6.368   3.565   2.128
13864WAT      O41833   1.064   2.486   6.195
13864WAT     H141834   1.147   2.521   6.152
13864WAT     H241835   1.086   2.404   6.249
13865WAT      O41836   6.357   4.543   7.978
13865WAT     H141837   6.358   4.614   7.908
13865WAT     H241838   6.280   4.482   7.963
13866WAT      O41839   0.985   2.110   3.218
13866WAT     H141840   0.949   2.031   3.169
13866WAT     H241841   1.084   2.117   3.203
13867WAT      O41842   8.176   2.559   1.926
13867WAT     H141843   8.189   2.634   1.991
13867WAT     H241844   8.101   2.581   1.864
13868WAT      O41845   6.910   0.740   3.818
13868WAT     H141846   6.910   0.640   3.815
13868WAT     H241847   6.857   0.775   3.740
13869WAT      O41848   5.064   5.140   6.767
13869WAT     H141849   5.024   5.051   6.747
13869WAT     H241850   5.128   5.132   6.844
13870WAT      O41851   2.393   5.190   2.480
13870WAT     H141852   2.460   5.262   2.496
13870WAT     H241853   2.397   5.162   2.384
13871WAT      O41854   6.236   7.767   1.268
13871WAT     H141855   6.185   7.751   1.184
13871WAT     H241856   6.321   7.817   1.246
13872WAT      O41857   7.286   1.541   2.918
13872WAT     H141858   7.215   1.592   2.966
13872WAT     H241859   7.244   1.472   2.859
13873WAT      O41860   3.856   6.537   9.562
13873WAT     H141861   3.815   6.537   9.653
13873WAT     H241862   3.837   6.624   9.517
13874WAT      O41863   1.743   7.107   1.944
13874WAT     H141864   1.735   7.077   2.039
13874WAT     H241865   1.764   7.205   1.942
13875WAT      O41866   4.102   1.619   8.933
13875WAT     H141867   4.074   1.538   8.882
13875WAT     H241868   4.174   1.667   8.883
13876WAT      O41869   4.169   5.266   3.089
13876WAT     H141870   4.241   5.197   3.098
13876WAT     H241871   4.154   5.310   3.177
13877WAT      O41872   1.821   9.591   9.348
13877WAT     H141873   1.820   9.691   9.361
13877WAT     H241874   1.915   9.558   9.353
13878WAT      O41875   9.640   5.384   7.782
13878WAT     H141876   9.616   5.288   7.795
13878WAT     H241877   9.711   5.410   7.848
13879WAT      O41878   3.582   6.383   8.853
13879WAT     H141879   3.514   6.327   8.899
13879WAT     H241880   3.609   6.338   8.767
13880WAT      O41881   9.316   8.696   0.050
13880WAT     H141882   9.220   8.680   0.027
13880WAT     H241883   9.333   8.795   0.052
13881WAT      O41884   5.454   2.383   4.638
13881WAT     H141885   5.375   2.344   4.590
13881WAT     H241886   5.447   2.482   4.639
13882WAT      O41887   4.391   1.629   3.848
13882WAT     H141888   4.434   1.632   3.758
13882WAT     H241889   4.462   1.632   3.919
13883WAT      O41890   0.870   9.300   3.469
13883WAT     H141891   0.969   9.293   3.459
13883WAT     H241892   0.846   9.293   3.566
13884WAT      O41893   9.508   0.370   1.928
13884WAT     H141894   9.485   0.430   1.851
13884WAT     H241895   9.476   0.412   2.013
13885WAT      O41896   5.177   9.033   4.549
13885WAT     H141897   5.213   9.104   4.488
13885WAT     H241898   5.081   9.015   4.527
13886WAT      O41899   4.634   6.204   3.620
13886WAT     H141900   4.619   6.290   3.668
13886WAT     H241901   4.569   6.197   3.544
13887WAT      O41902   4.488   2.902   8.186
13887WAT     H141903   4.395   2.868   8.193
13887WAT     H241904   4.521   2.929   8.277
13888WAT      O41905   7.195   0.472   9.218
13888WAT     H141906   7.173   0.521   9.134
13888WAT     H241907   7.185   0.373   9.203
13889WAT      O41908   8.165   9.317   3.987
13889WAT     H141909   8.129   9.397   4.034
13889WAT     H241910   8.264   9.316   3.992
13890WAT      O41911   3.013   6.007   8.387
13890WAT     H141912   3.108   5.987   8.409
13890WAT     H241913   2.979   5.942   8.320
13891WAT      O41914   0.498   4.125   7.323
13891WAT     H141915   0.545   4.060   7.381
13891WAT     H241916   0.416   4.082   7.285
13892WAT      O41917   8.455   6.291   7.719
13892WAT     H141918   8.470   6.268   7.623
13892WAT     H241919   8.541   6.323   7.759
13893WAT      O41920   6.036   4.575   8.503
13893WAT     H141921   6.041   4.667   8.463
13893WAT     H241922   6.118   4.559   8.559
13894WAT      O41923   4.492   9.715   6.267
13894WAT     H141924   4.572   9.716   6.327
13894WAT     H241925   4.424   9.651   6.304
13895WAT      O41926   7.629   5.043   6.825
13895WAT     H141927   7.721   5.052   6.862
13895WAT     H241928   7.574   5.122   6.851
13896WAT      O41929   6.924   5.807   3.348
13896WAT     H141930   6.847   5.825   3.286
13896WAT     H241931   6.891   5.755   3.427
13897WAT      O41932   7.245   1.512   7.621
13897WAT     H141933   7.201   1.594   7.655
13897WAT     H241934   7.202   1.431   7.663
13898WAT      O41935   0.140   3.596   2.076
13898WAT     H141936   0.047   3.601   2.040
13898WAT     H241937   0.202   3.641   2.012
13899WAT      O41938   5.086   2.199   3.835
13899WAT     H141939   5.071   2.108   3.797
13899WAT     H241940   5.064   2.200   3.932
13900WAT      O41941   2.063   1.014   7.082
13900WAT     H141942   2.033   0.927   7.043
13900WAT     H241943   1.996   1.085   7.060
13901WAT      O41944   8.002   0.671   0.458
13901WAT     H141945   8.046   0.642   0.543
13901WAT     H241946   8.021   0.768   0.442
13902WAT      O41947   0.631   0.148   6.497
13902WAT     H141948   0.625   0.218   6.426
13902WAT     H241949   0.722   0.150   6.538
13903WAT      O41950   0.505   0.776   2.291
13903WAT     H141951   0.459   0.817   2.212
13903WAT     H241952   0.604   0.782   2.280
13904WAT      O41953   8.083   8.165   1.068
13904WAT     H141954   8.127   8.103   1.003
13904WAT     H241955   7.993   8.193   1.034
13905WAT      O41956   2.813   1.622   3.887
13905WAT     H141957   2.764   1.576   3.961
13905WAT     H241958   2.811   1.721   3.903
13906WAT      O41959   0.448   2.291   9.266
13906WAT     H141960   0.509   2.229   9.215
13906WAT     H241961   0.375   2.323   9.205
13907WAT      O41962   8.139   9.186   3.341
13907WAT     H141963   8.192   9.133   3.275
13907WAT     H241964   8.159   9.283   3.331
13908WAT      O41965   8.863   3.783   4.326
13908WAT     H141966   8.852   3.767   4.424
13908WAT     H241967   8.937   3.849   4.311
13909WAT      O41968   0.545   6.024   8.358
13909WAT     H141969   0.551   5.926   8.372
13909WAT     H241970   0.624   6.055   8.303
13910WAT      O41971   6.918   2.680   8.668
13910WAT     H141972   6.837   2.735   8.688
13910WAT     H241973   6.899   2.619   8.591
13911WAT      O41974   5.137   3.685   7.981
13911WAT     H141975   5.224   3.637   7.987
13911WAT     H241976   5.079   3.659   8.058
13912WAT      O41977   6.931   7.428   5.184
13912WAT     H141978   6.967   7.484   5.109
13912WAT     H241979   6.878   7.485   5.246
13913WAT      O41980   9.016   3.701   0.550
13913WAT     H141981   9.000   3.711   0.649
13913WAT     H241982   9.034   3.605   0.529
13914WAT      O41983   6.872   0.820   0.368
13914WAT     H141984   6.916   0.893   0.315
13914WAT     H241985   6.779   0.805   0.334
13915WAT      O41986   8.923   7.770   3.625
13915WAT     H141987   8.914   7.861   3.664
13915WAT     H241988   8.835   7.723   3.627
13916WAT      O41989   8.467   9.006   9.367
13916WAT     H141990   8.399   9.063   9.412
13916WAT     H241991   8.423   8.922   9.335
13917WAT      O41992   1.098   8.465   6.794
13917WAT     H141993   1.036   8.470   6.873
13917WAT     H241994   1.067   8.393   6.732
13918WAT      O41995   9.102   5.875   3.990
13918WAT     H141996   9.057   5.837   4.071
13918WAT     H241997   9.110   5.804   3.920
13919WAT      O41998   3.761   7.609   4.747
13919WAT     H141999   3.798   7.578   4.659
13919WAT     H242000   3.780   7.540   4.817
13920WAT      O42001   6.062   0.038   5.005
13920WAT     H142002   6.152   0.053   5.044
13920WAT     H242003   6.003   0.117   5.025
13921WAT      O42004   1.972   0.834   9.748
13921WAT     H142005   2.042   0.828   9.676
13921WAT     H242006   2.003   0.784   9.829
13922WAT      O42007   2.151   9.158   6.531
13922WAT     H142008   2.242   9.115   6.525
13922WAT     H242009   2.147   9.236   6.469
13923WAT      O42010   1.931   8.630   7.210
13923WAT     H142011   1.851   8.664   7.261
13923WAT     H242012   1.932   8.672   7.119
13924WAT      O42013   9.364   2.017   7.539
13924WAT     H142014   9.375   2.075   7.458
13924WAT     H242015   9.442   2.029   7.600
13925WAT      O42016   5.103   9.335   5.817
13925WAT     H142017   5.070   9.338   5.723
13925WAT     H242018   5.050   9.399   5.873
13926WAT      O42019   1.610   9.410   5.321
13926WAT     H142020   1.658   9.395   5.235
13926WAT     H242021   1.563   9.498   5.319
13927WAT      O42022   7.365   4.984   6.412
13927WAT     H142023   7.296   5.055   6.427
13927WAT     H242024   7.395   4.986   6.317
13928WAT      O42025   1.094   2.557   0.199
13928WAT     H142026   1.018   2.618   0.221
13928WAT     H242027   1.180   2.600   0.225
13929WAT      O42028   6.729   9.138   5.752
13929WAT     H142029   6.774   9.079   5.684
13929WAT     H242030   6.794   9.161   5.824
13930WAT      O42031   2.280   5.049   3.893
13930WAT     H142032   2.292   5.083   3.800
13930WAT     H242033   2.363   5.000   3.921
13931WAT      O42034   9.445   0.289   6.084
13931WAT     H142035   9.497   0.289   6.169
13931WAT     H242036   9.473   0.367   6.028
13932WAT      O42037   0.500   9.300   9.189
13932WAT     H142038   0.526   9.239   9.114
13932WAT     H242039   0.416   9.348   9.164
13933WAT      O42040   8.237   4.140   3.280
13933WAT     H142041   8.208   4.212   3.343
13933WAT     H242042   8.242   4.053   3.328
13934WAT      O42043   1.343   4.573   4.247
13934WAT     H142044   1.432   4.620   4.244
13934WAT     H242045   1.358   4.474   4.251
13935WAT      O42046   5.307   0.458   7.184
13935WAT     H142047   5.402   0.474   7.156
13935WAT     H242048   5.246   0.490   7.112
13936WAT      O42049   3.720   1.464   4.789
13936WAT     H142050   3.673   1.377   4.774
13936WAT     H242051   3.680   1.535   4.730
13937WAT      O42052   0.371   6.546   7.448
13937WAT     H142053   0.330   6.560   7.538
13937WAT     H242054   0.299   6.529   7.380
13938WAT      O42055   7.518   5.281   6.947
13938WAT     H142056   7.427   5.292   6.908
13938WAT     H242057   7.580   5.348   6.906
13939WAT      O42058   2.618   3.102   9.037
13939WAT     H142059   2.677   3.045   9.094
13939WAT     H242060   2.566   3.044   8.974
13940WAT      O42061   1.873   4.519   8.335
13940WAT     H142062   1.935   4.512   8.414
13940WAT     H242063   1.799   4.452   8.345
13941WAT      O42064   4.201   5.183   1.515
13941WAT     H142065   4.180   5.213   1.608
13941WAT     H242066   4.272   5.241   1.476
13942WAT      O42067   7.908   1.328   5.505
13942WAT     H142068   7.820   1.309   5.463
13942WAT     H242069   7.896   1.384   5.586
13943WAT      O42070   5.953   2.264   8.612
13943WAT     H142071   5.892   2.220   8.546
13943WAT     H242072   5.997   2.195   8.669
13944WAT      O42073   5.952   9.711   1.165
13944WAT     H142074   6.005   9.736   1.246
13944WAT     H242075   5.856   9.700   1.191
13945WAT      O42076   2.097   5.831   1.101
13945WAT     H142077   2.003   5.833   1.066
13945WAT     H242078   2.112   5.747   1.152
13946WAT      O42079   6.688   7.825   1.877
13946WAT     H142080   6.643   7.914   1.892
13946WAT     H242081   6.726   7.792   1.963
13947WAT      O42082   3.150   2.562   4.219
13947WAT     H142083   3.066   2.521   4.185
13947WAT     H242084   3.141   2.578   4.318
13948WAT      O42085   0.851   6.556   6.423
13948WAT     H142086   0.758   6.589   6.406
13948WAT     H242087   0.851   6.498   6.505
13949WAT      O42088   2.057   6.534   1.701
13949WAT     H142089   2.132   6.588   1.740
13949WAT     H242090   2.033   6.572   1.611
13950WAT      O42091   8.078   1.936   6.799
13950WAT     H142092   8.015   1.986   6.859
13950WAT     H242093   8.163   1.917   6.848
13951WAT      O42094   4.133   7.683   1.171
13951WAT     H142095   4.066   7.717   1.238
13951WAT     H242096   4.099   7.700   1.079
13952WAT      O42097   7.181   4.258   7.022
13952WAT     H142098   7.093   4.214   7.040
13952WAT     H242099   7.231   4.204   6.953
13953WAT      O42100   7.762   4.686   6.756
13953WAT     H142101   7.806   4.769   6.720
13953WAT     H242102   7.828   4.634   6.810
13954WAT      O42103   6.218   4.085   7.471
13954WAT     H142104   6.176   4.118   7.387
13954WAT     H242105   6.197   4.149   7.545
13955WAT      O42106   4.529   8.818   9.826
13955WAT     H142107   4.485   8.841   9.739
13955WAT     H242108   4.481   8.741   9.868
13956WAT      O42109   4.053   6.995   0.775
13956WAT     H142110   3.984   6.953   0.834
13956WAT     H242111   4.031   6.975   0.679
13957WAT      O42112   5.424   6.013   5.082
13957WAT     H142113   5.329   6.007   5.113
13957WAT     H242114   5.462   6.102   5.106
13958WAT      O42115   2.241   2.729   3.585
13958WAT     H142116   2.178   2.659   3.619
13958WAT     H242117   2.234   2.735   3.486
13959WAT      O42118   5.173   7.134   6.568
13959WAT     H142119   5.249   7.191   6.537
13959WAT     H242120   5.207   7.066   6.632
13960WAT      O42121   2.460   0.848   6.225
13960WAT     H142122   2.442   0.853   6.323
13960WAT     H242123   2.552   0.883   6.206
13961WAT      O42124   0.610   5.481   0.250
13961WAT     H142125   0.681   5.469   0.319
13961WAT     H242126   0.567   5.571   0.261
13962WAT      O42127   6.494   2.814   0.322
13962WAT     H142128   6.511   2.844   0.228
13962WAT     H242129   6.401   2.840   0.349
13963WAT      O42130   0.940   0.944   1.159
13963WAT     H142131   0.901   0.877   1.222
13963WAT     H242132   0.871   0.969   1.091
13964WAT      O42133   1.392   0.765   8.833
13964WAT     H142134   1.325   0.776   8.759
13964WAT     H242135   1.343   0.751   8.920
13965WAT      O42136   2.598   2.308   7.239
13965WAT     H142137   2.513   2.302   7.186
13965WAT     H242138   2.665   2.361   7.187
13966WAT      O42139   9.664   2.133   5.379
13966WAT     H142140   9.623   2.214   5.337
13966WAT     H242141   9.644   2.133   5.477
13967WAT      O42142   2.139   8.038   0.525
13967WAT     H142143   2.113   8.110   0.460
13967WAT     H242144   2.084   8.047   0.608
13968WAT      O42145   4.642   8.690   0.649
13968WAT     H142146   4.628   8.653   0.741
13968WAT     H242147   4.708   8.765   0.654
13969WAT      O42148   9.569   9.543   4.037
13969WAT     H142149   9.579   9.591   3.949
13969WAT     H242150   9.635   9.580   4.103
13970WAT      O42151   0.943   0.310   7.588
13970WAT     H142152   1.002   0.319   7.508
13970WAT     H242153   0.998   0.314   7.671
13971WAT      O42154   3.803   2.388   4.721
13971WAT     H142155   3.780   2.422   4.812
13971WAT     H242156   3.750   2.305   4.702
13972WAT      O42157   4.498   8.400   1.992
13972WAT     H142158   4.402   8.425   1.997
13972WAT     H242159   4.554   8.472   2.033
13973WAT      O42160   1.739   8.514   8.085
13973WAT     H142161   1.752   8.600   8.135
13973WAT     H242162   1.695   8.532   7.998
13974WAT      O42163   7.848   2.481   8.891
13974WAT     H142164   7.866   2.560   8.831
13974WAT     H242165   7.753   2.451   8.878
13975WAT      O42166   5.707   9.394   7.906
13975WAT     H142167   5.802   9.363   7.899
13975WAT     H242168   5.687   9.458   7.832
13976WAT      O42169   3.610   5.127   5.721
13976WAT     H142170   3.600   5.170   5.632
13976WAT     H242171   3.700   5.147   5.759
13977WAT      O42172   1.357   5.142   2.757
13977WAT     H142173   1.374   5.054   2.712
13977WAT     H242174   1.269   5.139   2.804
13978WAT      O42175   6.521   3.981   6.858
13978WAT     H142176   6.503   4.049   6.787
13978WAT     H242177   6.605   4.003   6.907
13979WAT      O42178   7.202   4.233   7.822
13979WAT     H142179   7.267   4.159   7.804
13979WAT     H242180   7.250   4.320   7.824
13980WAT      O42181   9.857   2.696   9.852
13980WAT     H142182   9.856   2.780   9.797
13980WAT     H242183   9.797   2.708   9.931
13981WAT      O42184   5.746   8.106   8.806
13981WAT     H142185   5.766   8.111   8.904
13981WAT     H242186   5.652   8.136   8.790
13982WAT      O42187   1.410   2.092   5.823
13982WAT     H142188   1.317   2.056   5.813
13982WAT     H242189   1.408   2.192   5.823
13983WAT      O42190   5.724   7.804   1.400
13983WAT     H142191   5.648   7.814   1.336
13983WAT     H242192   5.762   7.894   1.421
13984WAT      O42193   0.106   0.436   0.938
13984WAT     H142194   0.041   0.491   0.991
13984WAT     H242195   0.079   0.438   0.841
13985WAT      O42196   2.311   0.847   4.744
13985WAT     H142197   2.309   0.780   4.818
13985WAT     H242198   2.257   0.813   4.667
13986WAT      O42199   1.814   5.623   7.014
13986WAT     H142200   1.728   5.582   6.985
13986WAT     H242201   1.808   5.722   7.010
13987WAT      O42202   2.569   2.358   0.514
13987WAT     H142203   2.613   2.268   0.507
13987WAT     H242204   2.506   2.358   0.592
13988WAT      O42205   6.830   9.142   4.961
13988WAT     H142206   6.881   9.084   4.898
13988WAT     H242207   6.732   9.134   4.942
13989WAT      O42208   9.610   6.863   5.333
13989WAT     H142209   9.530   6.879   5.275
13989WAT     H242210   9.647   6.773   5.314
13990WAT      O42211   5.628   2.461   1.673
13990WAT     H142212   5.688   2.386   1.701
13990WAT     H242213   5.553   2.470   1.739
13991WAT      O42214   0.919   5.021   2.095
13991WAT     H142215   0.898   4.924   2.091
13991WAT     H242216   0.911   5.054   2.189
13992WAT      O42217   5.888   8.549   8.906
13992WAT     H142218   5.918   8.460   8.941
13992WAT     H242219   5.960   8.617   8.922
13993WAT      O42220   2.530   0.051   0.401
13993WAT     H142221   2.465  -0.000   0.457
13993WAT     H242222   2.597   0.095   0.459
13994WAT      O42223   0.576   0.374   5.647
13994WAT     H142224   0.518   0.315   5.703
13994WAT     H242225   0.641   0.318   5.596
13995WAT      O42226   0.133   2.642   1.668
13995WAT     H142227   0.127   2.543   1.683
13995WAT     H242228   0.228   2.671   1.676
13996WAT      O42229   8.373   3.303   7.324
13996WAT     H142230   8.423   3.221   7.351
13996WAT     H242231   8.377   3.370   7.398
13997WAT      O42232   0.511   0.515   4.576
13997WAT     H142233   0.476   0.449   4.510
13997WAT     H242234   0.493   0.607   4.543
13998WAT      O42235   2.120   3.973   4.858
13998WAT     H142236   2.180   3.935   4.929
13998WAT     H242237   2.166   3.966   4.769
13999WAT      O42238   9.168   7.689   8.276
13999WAT     H142239   9.138   7.688   8.181
13999WAT     H242240   9.254   7.639   8.284
14000WAT      O42241   6.076   6.642   2.973
14000WAT     H142242   6.038   6.656   3.064
14000WAT     H242243   6.091   6.730   2.929
14001WAT      O42244   9.297   9.169   2.054
14001WAT     H142245   9.312   9.163   2.153
14001WAT     H242246   9.348   9.097   2.008
14002WAT      O42247   2.194   0.796   9.591
14002WAT     H142248   2.284   0.761   9.567
14002WAT     H242249   2.129   0.770   9.519
14003WAT      O42250   9.551   4.234   1.574
14003WAT     H142251   9.621   4.176   1.615
14003WAT     H242252   9.591   4.287   1.499
14004WAT      O42253   3.845   5.930   6.882
14004WAT     H142254   3.839   5.833   6.862
14004WAT     H242255   3.837   5.945   6.981
14005WAT      O42256   7.721   5.177   3.131
14005WAT     H142257   7.742   5.246   3.063
14005WAT     H242258   7.767   5.091   3.107
14006WAT      O42259   8.086   4.280   6.831
14006WAT     H142260   8.122   4.362   6.876
14006WAT     H242261   8.161   4.229   6.789
14007WAT      O42262   7.636   6.474   1.451
14007WAT     H142263   7.613   6.394   1.506
14007WAT     H242264   7.728   6.465   1.414
14008WAT      O42265   2.833   7.452   9.208
14008WAT     H142266   2.912   7.512   9.220
14008WAT     H242267   2.832   7.416   9.115
14009WAT      O42268   9.271   8.386   7.476
14009WAT     H142269   9.305   8.309   7.422
14009WAT     H242270   9.273   8.469   7.421
14010WAT      O42271   3.447   5.639   0.911
14010WAT     H142272   3.435   5.671   1.005
14010WAT     H242273   3.364   5.594   0.880
14011WAT      O42274   2.031   1.887   2.078
14011WAT     H142275   2.113   1.913   2.129
14011WAT     H242276   2.010   1.957   2.010
14012WAT      O42277   3.046   2.868   3.616
14012WAT     H142278   3.095   2.952   3.593
14012WAT     H242279   2.949   2.879   3.597
14013WAT      O42280   6.042   2.954   4.158
14013WAT     H142281   6.053   2.926   4.253
14013WAT     H242282   5.966   2.904   4.117
14014WAT      O42283   4.860   4.936   3.168
14014WAT     H142284   4.892   5.026   3.196
14014WAT     H242285   4.814   4.943   3.080
14015WAT      O42286   2.857   4.676   1.949
14015WAT     H142287   2.941   4.642   1.991
14015WAT     H242288   2.818   4.748   2.006
14016WAT      O42289   9.555   3.715   5.435
14016WAT     H142290   9.548   3.746   5.341
14016WAT     H242291   9.646   3.737   5.471
14017WAT      O42292   4.924   3.722   5.482
14017WAT     H142293   5.012   3.743   5.524
14017WAT     H242294   4.866   3.673   5.547
14018WAT      O42295   6.639   4.545   2.063
14018WAT     H142296   6.709   4.480   2.034
14018WAT     H242297   6.568   4.496   2.115
14019WAT      O42298   1.139   9.350   3.423
14019WAT     H142299   1.182   9.416   3.363
14019WAT     H242300   1.171   9.364   3.517
14020WAT      O42301   5.737   4.663   2.786
14020WAT     H142302   5.780   4.736   2.839
14020WAT     H242303   5.722   4.695   2.692
14021WAT      O42304   0.574   1.259   3.896
14021WAT     H142305   0.612   1.339   3.942
14021WAT     H242306   0.509   1.290   3.826
14022WAT      O42307   3.930   7.481   6.282
14022WAT     H142308   3.892   7.519   6.366
14022WAT     H242309   3.874   7.511   6.204
14023WAT      O42310   7.115   8.871   1.081
14023WAT     H142311   7.106   8.897   0.985
14023WAT     H242312   7.110   8.952   1.139
14024WAT      O42313   4.743   3.316   5.874
14024WAT     H142314   4.777   3.292   5.965
14024WAT     H242315   4.643   3.317   5.875
14025WAT      O42316   6.465   6.087   3.235
14025WAT     H142317   6.491   6.035   3.154
14025WAT     H242318   6.546   6.126   3.277
14026WAT      O42319   2.970   9.135   8.380
14026WAT     H142320   3.027   9.102   8.455
14026WAT     H242321   2.997   9.088   8.296
14027WAT      O42322   1.339   9.123   6.442
14027WAT     H142323   1.424   9.091   6.483
14027WAT     H242324   1.298   9.194   6.500
14028WAT      O42325   6.992   9.300   8.763
14028WAT     H142326   7.087   9.296   8.733
14028WAT     H242327   6.989   9.336   8.857
14029WAT      O42328   8.040   8.666   9.274
14029WAT     H142329   8.090   8.713   9.201
14029WAT     H242330   8.023   8.571   9.246
14030WAT      O42331   7.371   9.162   0.919
14030WAT     H142332   7.430   9.222   0.971
14030WAT     H242333   7.368   9.072   0.962
14031WAT      O42334   4.040   2.646   1.814
14031WAT     H142335   4.101   2.570   1.792
14031WAT     H242336   3.953   2.634   1.767
14032WAT      O42337   9.217   1.228   8.732
14032WAT     H142338   9.204   1.156   8.663
14032WAT     H242339   9.283   1.294   8.698
14033WAT      O42340   5.355   7.884   2.872
14033WAT     H142341   5.344   7.983   2.864
14033WAT     H242342   5.423   7.853   2.806
14034WAT      O42343   4.485   4.934   4.160
14034WAT     H142344   4.492   4.969   4.067
14034WAT     H242345   4.418   4.859   4.162
14035WAT      O42346   7.726   3.385   4.036
14035WAT     H142347   7.693   3.443   4.110
14035WAT     H242348   7.760   3.442   3.961
14036WAT      O42349   7.325   9.802   8.094
14036WAT     H142350   7.373   9.883   8.127
14036WAT     H242351   7.265   9.827   8.018
14037WAT      O42352   5.893   7.135   0.846
14037WAT     H142353   5.975   7.120   0.792
14037WAT     H242354   5.878   7.233   0.860
14038WAT      O42355   0.404   8.816   9.252
14038WAT     H142356   0.368   8.726   9.229
14038WAT     H242357   0.361   8.848   9.336
14039WAT      O42358   9.456   2.633   0.128
14039WAT     H142359   9.556   2.635   0.128
14039WAT     H242360   9.420   2.714   0.081
14040WAT      O42361   1.244   2.380   6.004
14040WAT     H142362   1.194   2.437   5.940
14040WAT     H242363   1.196   2.293   6.016
14041WAT      O42364   8.440   6.310   8.983
14041WAT     H142365   8.450   6.220   9.025
14041WAT     H242366   8.352   6.315   8.936
14042WAT      O42367   6.119   7.124   0.715
14042WAT     H142368   6.076   7.047   0.668
14042WAT     H242369   6.094   7.209   0.668
14043WAT      O42370   3.567   9.162   2.275
14043WAT     H142371   3.631   9.145   2.350
14043WAT     H242372   3.618   9.171   2.189
14044WAT      O42373   5.860   4.257   4.604
14044WAT     H142374   5.829   4.347   4.635
14044WAT     H242375   5.951   4.265   4.563
14045WAT      O42376   7.851   0.681   9.196
14045WAT     H142377   7.897   0.762   9.233
14045WAT     H242378   7.832   0.695   9.099
14046WAT      O42379   9.199   5.761   7.207
14046WAT     H142380   9.200   5.691   7.135
14046WAT     H242381   9.123   5.823   7.191
14047WAT      O42382   6.639   3.068   8.853
14047WAT     H142383   6.573   3.143   8.858
14047WAT     H242384   6.674   3.047   8.944
14048WAT      O42385   1.933   2.124   0.760
14048WAT     H142386   2.029   2.130   0.730
14048WAT     H242387   1.883   2.062   0.699
14049WAT      O42388   3.117   0.927   1.111
14049WAT     H142389   3.138   0.987   1.034
14049WAT     H242390   3.183   0.943   1.184
14050WAT      O42391   3.866   8.600   1.578
14050WAT     H142392   3.924   8.531   1.620
14050WAT     H242393   3.804   8.638   1.647
14051WAT      O42394   4.048   0.076   7.170
14051WAT     H142395   4.026   0.036   7.259
14051WAT     H242396   4.124   0.026   7.129
14052WAT      O42397   6.201   7.867   9.347
14052WAT     H142398   6.257   7.794   9.385
14052WAT     H242399   6.121   7.828   9.302
14053WAT      O42400   1.905   4.049   2.196
14053WAT     H142401   1.844   4.082   2.124
14053WAT     H242402   1.956   3.969   2.163
14054WAT      O42403   6.635   6.037   8.531
14054WAT     H142404   6.715   5.985   8.564
14054WAT     H242405   6.659   6.134   8.524
14055WAT      O42406   4.201   6.427   3.060
14055WAT     H142407   4.296   6.427   3.029
14055WAT     H242408   4.139   6.428   2.981
14056WAT      O42409   8.635   5.253   2.745
14056WAT     H142410   8.709   5.193   2.774
14056WAT     H242411   8.576   5.273   2.824
14057WAT      O42412   2.509   6.805   8.212
14057WAT     H142413   2.576   6.807   8.286
14057WAT     H242414   2.430   6.861   8.236
14058WAT      O42415   3.557   5.868   1.101
14058WAT     H142416   3.499   5.803   1.151
14058WAT     H242417   3.507   5.955   1.089
14059WAT      O42418   1.955   9.778   5.306
14059WAT     H142419   2.000   9.693   5.333
14059WAT     H242420   2.024   9.849   5.292
14060WAT      O42421   5.737   3.514   2.616
14060WAT     H142422   5.694   3.539   2.703
14060WAT     H242423   5.667   3.509   2.545
14061WAT      O42424   7.644   9.387   7.729
14061WAT     H142425   7.646   9.294   7.767
14061WAT     H242426   7.737   9.415   7.705
14062WAT      O42427   0.685   4.363   9.857
14062WAT     H142428   0.682   4.439   9.922
14062WAT     H242429   0.643   4.392   9.770
14063WAT      O42430   5.982   3.932   6.475
14063WAT     H142431   6.006   3.982   6.391
14063WAT     H242432   5.915   3.985   6.527
14064WAT      O42433   5.735   2.381   0.720
14064WAT     H142434   5.706   2.421   0.633
14064WAT     H242435   5.668   2.312   0.749
14065WAT      O42436   8.496   8.240   0.670
14065WAT     H142437   8.556   8.258   0.591
14065WAT     H242438   8.466   8.327   0.709
14066WAT      O42439   1.214   7.729   4.076
14066WAT     H142440   1.290   7.690   4.129
14066WAT     H242441   1.247   7.758   3.986
14067WAT      O42442   9.723   1.283   0.811
14067WAT     H142443   9.722   1.278   0.711
14067WAT     H242444   9.784   1.213   0.848
14068WAT      O42445   3.492   8.657   4.257
14068WAT     H142446   3.394   8.670   4.273
14068WAT     H242447   3.520   8.710   4.177
14069WAT      O42448   9.676   1.284   6.351
14069WAT     H142449   9.713   1.193   6.371
14069WAT     H242450   9.576   1.281   6.353
14070WAT      O42451   3.466   8.141   8.098
14070WAT     H142452   3.382   8.100   8.063
14070WAT     H242453   3.475   8.234   8.063
14071WAT      O42454   9.015   0.335   3.517
14071WAT     H142455   8.965   0.377   3.441
14071WAT     H242456   8.963   0.348   3.602
14072WAT      O42457   5.840   9.745   0.150
14072WAT     H142458   5.761   9.751   0.211
14072WAT     H242459   5.814   9.695   0.067
14073WAT      O42460   8.698   0.604   3.690
14073WAT     H142461   8.642   0.676   3.732
14073WAT     H242462   8.680   0.600   3.592
14074WAT      O42463   2.478   6.686   9.558
14074WAT     H142464   2.478   6.599   9.608
14074WAT     H242465   2.383   6.716   9.546
14075WAT      O42466   5.308   2.128   6.738
14075WAT     H142467   5.243   2.081   6.679
14075WAT     H242468   5.356   2.199   6.685
14076WAT      O42469   4.041   2.349   4.230
14076WAT     H142470   4.037   2.432   4.287
14076WAT     H242471   3.951   2.333   4.190
14077WAT      O42472   6.502   2.317   8.451
14077WAT     H142473   6.403   2.301   8.447
14077WAT     H242474   6.519   2.404   8.497
14078WAT      O42475   7.077   6.078   1.237
14078WAT     H142476   7.063   6.040   1.145
14078WAT     H242477   7.108   6.173   1.230
14079WAT      O42478   6.534   2.325   6.299
14079WAT     H142479   6.468   2.393   6.266
14079WAT     H242480   6.528   2.318   6.398
14080WAT      O42481   8.669   1.946   8.572
14080WAT     H142482   8.670   1.854   8.612
14080WAT     H242483   8.715   1.944   8.484
14081WAT      O42484   7.669   3.719   5.065
14081WAT     H142485   7.694   3.640   5.121
14081WAT     H242486   7.748   3.748   5.011
14082WAT      O42487   7.317   1.822   1.068
14082WAT     H142488   7.384   1.820   1.142
14082WAT     H242489   7.291   1.917   1.049
14083WAT      O42490   2.273   7.053   2.635
14083WAT     H142491   2.223   7.061   2.722
14083WAT     H242492   2.245   6.970   2.587
14084WAT      O42493   9.511   3.249   5.838
14084WAT     H142494   9.450   3.301   5.897
14084WAT     H242495   9.578   3.310   5.796
14085WAT      O42496   7.400   8.276   2.803
14085WAT     H142497   7.306   8.306   2.787
14085WAT     H242498   7.419   8.275   2.901
14086WAT      O42499   3.249   3.267   6.668
14086WAT     H142500   3.197   3.270   6.582
14086WAT     H242501   3.298   3.180   6.674
14087WAT      O42502   4.777   6.923   5.807
14087WAT     H142503   4.827   6.844   5.772
14087WAT     H242504   4.679   6.908   5.798
14088WAT      O42505   0.037   0.494   7.533
14088WAT     H142506   0.040   0.532   7.441
14088WAT     H242507   0.130   0.472   7.563
14089WAT      O42508   6.357   2.216   2.127
14089WAT     H142509   6.386   2.210   2.223
14089WAT     H242510   6.414   2.284   2.079
14090WAT      O42511   9.629   8.808   0.940
14090WAT     H142512   9.559   8.874   0.966
14090WAT     H242513   9.667   8.765   1.022
14091WAT      O42514   6.670   2.367   0.170
14091WAT     H142515   6.631   2.286   0.214
14091WAT     H242516   6.641   2.449   0.220
14092WAT      O42517   1.211   0.892   4.792
14092WAT     H142518   1.146   0.941   4.735
14092WAT     H242519   1.180   0.892   4.887
14093WAT      O42520   5.705   1.496   6.077
14093WAT     H142521   5.643   1.511   6.000
14093WAT     H242522   5.683   1.561   6.150
14094WAT      O42523   5.796   6.202   0.134
14094WAT     H142524   5.708   6.241   0.160
14094WAT     H242525   5.803   6.109   0.171
14095WAT      O42526   2.952   6.303   4.702
14095WAT     H142527   3.008   6.379   4.734
14095WAT     H242528   2.857   6.333   4.690
14096WAT      O42529   5.157   9.575   3.532
14096WAT     H142530   5.111   9.532   3.455
14096WAT     H242531   5.248   9.534   3.543
14097WAT      O42532   6.925   2.977   7.430
14097WAT     H142533   6.874   2.911   7.374
14097WAT     H242534   7.023   2.968   7.411
14098WAT      O42535   5.299   5.121   0.415
14098WAT     H142536   5.291   5.195   0.348
14098WAT     H242537   5.345   5.043   0.372
14099WAT      O42538   3.512   7.664   9.594
14099WAT     H142539   3.582   7.651   9.523
14099WAT     H242540   3.444   7.730   9.561
14100WAT      O42541   1.819   1.828   5.421
14100WAT     H142542   1.869   1.864   5.342
14100WAT     H242543   1.724   1.858   5.416
14101WAT      O42544   6.891   0.376   8.068
14101WAT     H142545   6.945   0.314   8.125
14101WAT     H242546   6.924   0.373   7.974
14102WAT      O42547   8.987   1.214   2.194
14102WAT     H142548   8.966   1.128   2.148
14102WAT     H242549   9.035   1.195   2.280
14103WAT      O42550   2.931   2.138   9.504
14103WAT     H142551   2.836   2.166   9.490
14103WAT     H242552   2.993   2.207   9.467
14104WAT      O42553   4.806   6.346   5.285
14104WAT     H142554   4.833   6.405   5.362
14104WAT     H242555   4.718   6.376   5.249
14105WAT      O42556   7.951   9.390   4.736
14105WAT     H142557   8.000   9.303   4.721
14105WAT     H242558   7.973   9.425   4.827
14106WAT      O42559   7.862   1.111   0.674
14106WAT     H142560   7.868   1.039   0.743
14106WAT     H242561   7.943   1.169   0.680
14107WAT      O42562   2.272   8.468   1.298
14107WAT     H142563   2.278   8.536   1.225
14107WAT     H242564   2.180   8.430   1.302
14108WAT      O42565   0.204   0.356   5.996
14108WAT     H142566   0.120   0.325   6.041
14108WAT     H242567   0.237   0.439   6.040
14109WAT      O42568   4.592   7.249   3.913
14109WAT     H142569   4.655   7.319   3.879
14109WAT     H242570   4.594   7.249   4.013
14110WAT      O42571   6.414   7.413   8.062
14110WAT     H142572   6.413   7.336   7.999
14110WAT     H242573   6.346   7.480   8.034
14111WAT      O42574   7.102   6.694   7.083
14111WAT     H142575   7.122   6.684   7.180
14111WAT     H242576   7.137   6.783   7.051
14112WAT      O42577   3.066   1.821   0.466
14112WAT     H142578   3.093   1.725   0.457
14112WAT     H242579   3.034   1.856   0.378
14113WAT      O42580   9.548   6.889   3.607
14113WAT     H142581   9.579   6.816   3.668
14113WAT     H242582   9.589   6.878   3.517
14114WAT      O42583   8.522   3.577   4.386
14114WAT     H142584   8.554   3.503   4.446
14114WAT     H242585   8.565   3.568   4.297
14115WAT      O42586   4.101   3.900   4.288
14115WAT     H142587   4.042   3.954   4.350
14115WAT     H242588   4.138   3.960   4.218
14116WAT      O42589   6.218   1.265   2.079
14116WAT     H142590   6.279   1.257   2.000
14116WAT     H242591   6.260   1.326   2.147
14117WAT      O42592   9.406   7.800   9.494
14117WAT     H142593   9.503   7.816   9.475
14117WAT     H242594   9.355   7.885   9.484
14118WAT      O42595   8.817   2.345   6.962
14118WAT     H142596   8.883   2.420   6.962
14118WAT     H242597   8.788   2.326   6.868
14119WAT      O42598   5.521   8.731   7.512
14119WAT     H142599   5.467   8.654   7.480
14119WAT     H242600   5.461   8.804   7.543
14120WAT      O42601   2.855   8.636   0.613
14120WAT     H142602   2.927   8.614   0.547
14120WAT     H242603   2.884   8.611   0.705
14121WAT      O42604   4.701   2.931   2.930
14121WAT     H142605   4.640   2.906   2.855
14121WAT     H242606   4.759   2.852   2.953
14122WAT      O42607   1.647   6.137   5.297
14122WAT     H142608   1.743   6.110   5.294
14122WAT     H242609   1.629   6.205   5.226
14123WAT      O42610   4.136   5.428   9.106
14123WAT     H142611   4.174   5.345   9.148
14123WAT     H242612   4.083   5.402   9.025
14124WAT      O42613   6.306   0.466   2.396
14124WAT     H142614   6.348   0.531   2.459
14124WAT     H242615   6.212   0.447   2.425
14125WAT      O42616   5.530   0.449   6.873
14125WAT     H142617   5.446   0.400   6.851
14125WAT     H242618   5.508   0.542   6.902
14126WAT      O42619   7.232   5.606   9.135
14126WAT     H142620   7.257   5.697   9.169
14126WAT     H242621   7.160   5.567   9.192
14127WAT      O42622   5.428   9.340   7.318
14127WAT     H142623   5.374   9.346   7.402
14127WAT     H242624   5.456   9.432   7.290
14128WAT      O42625   4.803   1.626   7.866
14128WAT     H142626   4.765   1.695   7.805
14128WAT     H242627   4.770   1.643   7.959
14129WAT      O42628   0.279   4.996   1.472
14129WAT     H142629   0.236   5.083   1.448
14129WAT     H242630   0.305   4.997   1.568
14130WAT      O42631   8.730   9.647   0.322
14130WAT     H142632   8.799   9.674   0.389
14130WAT     H242633   8.775   9.624   0.236
14131WAT      O42634   5.946   3.758   4.083
14131WAT     H142635   5.855   3.795   4.103
14131WAT     H242636   6.007   3.833   4.055
14132WAT      O42637   9.497   5.248   8.254
14132WAT     H142638   9.461   5.236   8.161
14132WAT     H242639   9.586   5.202   8.261
14133WAT      O42640   9.473   3.395   1.586
14133WAT     H142641   9.487   3.297   1.571
14133WAT     H242642   9.496   3.419   1.680
14134WAT      O42643   4.762   0.045   0.462
14134WAT     H142644   4.752  -0.016   0.541
14134WAT     H242645   4.739  -0.005   0.379
14135WAT      O42646   8.170   0.324   6.964
14135WAT     H142647   8.262   0.288   6.950
14135WAT     H242648   8.142   0.310   7.059
14136WAT      O42649   0.731   5.077   7.602
14136WAT     H142650   0.829   5.067   7.583
14136WAT     H242651   0.715   5.072   7.700
14137WAT      O42652   6.430   0.772   9.843
14137WAT     H142653   6.494   0.762   9.766
14137WAT     H242654   6.370   0.849   9.826
14138WAT      O42655   8.439   0.882   2.389
14138WAT     H142656   8.416   0.954   2.323
14138WAT     H242657   8.533   0.853   2.375
14139WAT      O42658   4.215   6.101   1.308
14139WAT     H142659   4.218   6.161   1.388
14139WAT     H242660   4.250   6.011   1.332
14140WAT      O42661   5.949   1.254   2.040
14140WAT     H142662   5.928   1.166   1.997
14140WAT     H242663   6.045   1.255   2.068
14141WAT      O42664   5.470   1.281   1.242
14141WAT     H142665   5.566   1.309   1.251
14141WAT     H242666   5.417   1.319   1.318
14142WAT      O42667   2.071   0.245   8.156
14142WAT     H142668   2.129   0.200   8.223
14142WAT     H242669   2.072   0.344   8.171
14143WAT      O42670   2.762   6.516   5.447
14143WAT     H142671   2.756   6.590   5.513
14143WAT     H242672   2.824   6.445   5.482
14144WAT      O42673   5.950   7.655   4.116
14144WAT     H142674   5.930   7.584   4.048
14144WAT     H242675   5.887   7.645   4.194
14145WAT      O42676   1.259   6.786   1.649
14145WAT     H142677   1.263   6.851   1.573
14145WAT     H242678   1.175   6.802   1.701
14146WAT      O42679   5.503   9.173   5.311
14146WAT     H142680   5.467   9.259   5.349
14146WAT     H242681   5.570   9.135   5.374
14147WAT      O42682   8.347   3.514   9.384
14147WAT     H142683   8.394   3.562   9.458
14147WAT     H242684   8.395   3.530   9.298
14148WAT      O42685   9.435   1.273   8.989
14148WAT     H142686   9.377   1.219   8.928
14148WAT     H242687   9.516   1.219   9.013
14149WAT      O42688   3.161   4.078   9.852
14149WAT     H142689   3.101   4.056   9.929
14149WAT     H242690   3.116   4.050   9.767
14150WAT      O42691   1.451   1.243   5.543
14150WAT     H142692   1.549   1.246   5.566
14150WAT     H242693   1.402   1.192   5.613
14151WAT      O42694   3.899   4.002   8.772
14151WAT     H142695   3.851   3.971   8.853
14151WAT     H242696   3.835   4.012   8.696
14152WAT      O42697   6.512   1.450   7.482
14152WAT     H142698   6.455   1.371   7.457
14152WAT     H242699   6.492   1.476   7.576
14153WAT      O42700   5.724   6.584   3.591
14153WAT     H142701   5.734   6.539   3.502
14153WAT     H242702   5.735   6.515   3.663
14154WAT      O42703   7.440   3.060   0.815
14154WAT     H142704   7.469   3.037   0.722
14154WAT     H242705   7.370   3.131   0.812
14155WAT      O42706   7.410   6.083   9.012
14155WAT     H142707   7.312   6.089   8.994
14155WAT     H242708   7.437   6.156   9.074
14156WAT      O42709   5.659   2.345   0.313
14156WAT     H142710   5.698   2.330   0.222
14156WAT     H242711   5.663   2.260   0.365
14157WAT      O42712   7.132   3.806   5.151
14157WAT     H142713   7.199   3.867   5.193
14157WAT     H242714   7.177   3.751   5.080
14158WAT      O42715   7.015   6.589   0.378
14158WAT     H142716   7.092   6.528   0.395
14158WAT     H242717   6.935   6.536   0.350
14159WAT      O42718   3.289   8.011   0.105
14159WAT     H142719   3.328   8.100   0.083
14159WAT     H242720   3.355   7.959   0.159
14160WAT      O42721   5.800   7.866   8.103
14160WAT     H142722   5.712   7.914   8.095
14160WAT     H242723   5.801   7.788   8.041
14161WAT      O42724   0.446   9.536   5.184
14161WAT     H142725   0.462   9.634   5.196
14161WAT     H242726   0.367   9.508   5.239
14162WAT      O42727   8.524   3.894   5.674
14162WAT     H142728   8.493   3.980   5.716
14162WAT     H242729   8.479   3.817   5.720
14163WAT      O42730   7.909   7.481   8.593
14163WAT     H142731   7.859   7.567   8.581
14163WAT     H242732   7.985   7.495   8.657
14164WAT      O42733   6.163   3.759   5.414
14164WAT     H142734   6.199   3.679   5.463
14164WAT     H242735   6.065   3.746   5.397
14165WAT      O42736   9.290   1.070   7.602
14165WAT     H142737   9.286   1.160   7.560
14165WAT     H242738   9.215   1.013   7.568
14166WAT      O42739   2.232   5.466   4.539
14166WAT     H142740   2.269   5.516   4.460
14166WAT     H242741   2.207   5.531   4.611
14167WAT      O42742   8.300   0.928   0.241
14167WAT     H142743   8.394   0.962   0.234
14167WAT     H242744   8.261   0.918   0.150
14168WAT      O42745   9.155   0.709   4.721
14168WAT     H142746   9.230   0.761   4.762
14168WAT     H242747   9.072   0.721   4.777
14169WAT      O42748   1.315   1.706   0.854
14169WAT     H142749   1.305   1.752   0.943
14169WAT     H242750   1.241   1.735   0.793
14170WAT      O42751   8.532   9.790   8.289
14170WAT     H142752   8.548   9.696   8.257
14170WAT     H242753   8.460   9.832   8.234
14171WAT      O42754   1.564   3.532   2.868
14171WAT     H142755   1.486   3.472   2.884
14171WAT     H242756   1.555   3.574   2.777
14172WAT      O42757   3.700   9.097   0.654
14172WAT     H142758   3.614   9.145   0.670
14172WAT     H242759   3.713   9.083   0.556
14173WAT      O42760   6.114   8.969   4.269
14173WAT     H142761   6.214   8.963   4.270
14173WAT     H242762   6.083   9.022   4.348
14174WAT      O42763   1.108   1.486   1.198
14174WAT     H142764   1.082   1.417   1.131
14174WAT     H242765   1.177   1.448   1.260
14175WAT      O42766   7.983   8.527   4.528
14175WAT     H142767   7.939   8.438   4.539
14175WAT     H242768   7.919   8.592   4.488
14176WAT      O42769   3.828   6.239   5.127
14176WAT     H142770   3.867   6.211   5.039
14176WAT     H242771   3.849   6.170   5.196
14177WAT      O42772   1.588   8.708   8.947
14177WAT     H142773   1.528   8.629   8.960
14177WAT     H242774   1.536   8.783   8.905
14178WAT      O42775   2.506   5.268   1.260
14178WAT     H142776   2.556   5.339   1.310
14178WAT     H242777   2.425   5.308   1.218
14179WAT      O42778   8.748   5.782   2.685
14179WAT     H142779   8.804   5.837   2.747
14179WAT     H242780   8.785   5.788   2.593
14180WAT      O42781   4.903   7.955   9.323
14180WAT     H142782   4.814   7.920   9.293
14180WAT     H242783   4.959   7.976   9.243
14181WAT      O42784   1.531   9.820   8.848
14181WAT     H142785   1.511   9.723   8.858
14181WAT     H242786   1.560   9.839   8.754
14182WAT      O42787   7.435   6.403   6.075
14182WAT     H142788   7.501   6.462   6.122
14182WAT     H242789   7.348   6.406   6.124
14183WAT      O42790   7.786   5.370   9.846
14183WAT     H142791   7.692   5.393   9.823
14183WAT     H242792   7.848   5.431   9.797
14184WAT      O42793   0.574   1.096   6.957
14184WAT     H142794   0.582   1.009   7.006
14184WAT     H242795   0.539   1.079   6.865
14185WAT      O42796   5.157   7.580   2.938
14185WAT     H142797   5.193   7.660   2.986
14185WAT     H242798   5.233   7.520   2.913
14186WAT      O42799   8.837   4.813   4.042
14186WAT     H142800   8.895   4.758   3.984
14186WAT     H242801   8.850   4.786   4.138
14187WAT      O42802   5.444   3.560   8.315
14187WAT     H142803   5.402   3.489   8.258
14187WAT     H242804   5.450   3.528   8.410
14188WAT      O42805   8.369   3.676   2.302
14188WAT     H142806   8.328   3.621   2.229
14188WAT     H242807   8.343   3.638   2.391
14189WAT      O42808   1.494   1.519   4.588
14189WAT     H142809   1.484   1.567   4.675
14189WAT     H242810   1.418   1.455   4.577
14190WAT      O42811   2.911   9.562   7.590
14190WAT     H142812   2.891   9.610   7.504
14190WAT     H242813   2.828   9.560   7.646
14191WAT      O42814   3.731   9.764   8.826
14191WAT     H142815   3.787   9.758   8.909
14191WAT     H242816   3.720   9.673   8.787
14192WAT      O42817   2.788   6.277   4.989
14192WAT     H142818   2.831   6.245   5.073
14192WAT     H242819   2.858   6.286   4.918
14193WAT      O42820   6.370   3.151   0.108
14193WAT     H142821   6.429   3.075   0.078
14193WAT     H242822   6.285   3.114   0.145
14194WAT      O42823   4.437   4.062   1.681
14194WAT     H142824   4.387   4.019   1.606
14194WAT     H242825   4.532   4.033   1.680
14195WAT      O42826   3.887   3.359   4.118
14195WAT     H142827   3.832   3.440   4.141
14195WAT     H242828   3.848   3.315   4.037
14196WAT      O42829   9.806   4.701   2.577
14196WAT     H142830   9.839   4.695   2.483
14196WAT     H242831   9.746   4.781   2.587
14197WAT      O42832   6.092   9.054   7.538
14197WAT     H142833   6.005   9.017   7.570
14197WAT     H242834   6.142   8.983   7.488
14198WAT      O42835   9.746   8.727   8.956
14198WAT     H142836   9.668   8.695   9.009
14198WAT     H242837   9.804   8.786   9.014
14199WAT      O42838   7.253   7.098   5.065
14199WAT     H142839   7.289   7.018   5.113
14199WAT     H242840   7.156   7.084   5.046
14200WAT      O42841   8.988   0.346   7.557
14200WAT     H142842   9.045   0.320   7.479
14200WAT     H242843   8.914   0.405   7.526
14201WAT      O42844   7.227   9.381   1.014
14201WAT     H142845   7.274   9.323   0.948
14201WAT     H242846   7.254   9.355   1.107
14202WAT      O42847   3.681   0.086   6.426
14202WAT     H142848   3.670   0.135   6.339
14202WAT     H242849   3.591   0.067   6.465
14203WAT      O42850   9.238   1.047   2.199
14203WAT     H142851   9.251   1.127   2.140
14203WAT     H242852   9.327   1.006   2.219
14204WAT      O42853   2.231   1.109   2.146
14204WAT     H142854   2.140   1.149   2.155
14204WAT     H242855   2.239   1.064   2.057
14205WAT      O42856   8.957   1.012   3.756
14205WAT     H142857   8.995   0.999   3.664
14205WAT     H242858   8.949   0.923   3.801
14206WAT      O42859   4.218   3.072   6.778
14206WAT     H142860   4.220   3.066   6.878
14206WAT     H242861   4.311   3.063   6.742
14207WAT      O42862   5.667   3.936   8.121
14207WAT     H142863   5.593   3.868   8.125
14207WAT     H242864   5.727   3.915   8.044
14208WAT      O42865   8.385   7.580   6.695
14208WAT     H142866   8.291   7.566   6.665
14208WAT     H242867   8.408   7.512   6.765
14209WAT      O42868   8.532   7.272   4.925
14209WAT     H142869   8.492   7.219   4.850
14209WAT     H242870   8.603   7.219   4.969
14210WAT      O42871   8.161   0.676   1.472
14210WAT     H142872   8.106   0.753   1.440
14210WAT     H242873   8.244   0.669   1.417
14211WAT      O42874   5.902   1.464   1.381
14211WAT     H142875   5.888   1.562   1.373
14211WAT     H242876   5.997   1.446   1.408
14212WAT      O42877   4.033   6.164   3.365
14212WAT     H142878   3.965   6.100   3.329
14212WAT     H242879   4.111   6.113   3.401
14213WAT      O42880   9.596   3.838   0.767
14213WAT     H142881   9.675   3.777   0.774
14213WAT     H242882   9.618   3.913   0.705
14214WAT      O42883   8.241   8.522   4.411
14214WAT     H142884   8.162   8.539   4.471
14214WAT     H242885   8.218   8.448   4.347
14215WAT      O42886   2.836   2.131   4.793
14215WAT     H142887   2.798   2.054   4.743
14215WAT     H242888   2.935   2.136   4.777
14216WAT      O42889   8.501   5.331   7.018
14216WAT     H142890   8.600   5.317   7.016
14216WAT     H242891   8.478   5.395   7.091
14217WAT      O42892   5.411   5.865   3.102
14217WAT     H142893   5.433   5.869   3.199
14217WAT     H242894   5.382   5.955   3.070
14218WAT      O42895   0.061   7.799   9.378
14218WAT     H142896   0.086   7.892   9.351
14218WAT     H242897   0.144   7.747   9.399
14219WAT      O42898   8.687   9.641   4.077
14219WAT     H142899   8.613   9.706   4.058
14219WAT     H242900   8.653   9.569   4.137
14220WAT      O42901   6.387   2.202   2.409
14220WAT     H142902   6.309   2.234   2.464
14220WAT     H242903   6.469   2.251   2.436
14221WAT      O42904   0.967   4.338   5.016
14221WAT     H142905   1.027   4.327   4.937
14221WAT     H242906   0.886   4.390   4.989
14222WAT      O42907   6.021   7.163   7.507
14222WAT     H142908   6.070   7.097   7.450
14222WAT     H242909   6.069   7.250   7.507
14223WAT      O42910   0.932   7.392   5.719
14223WAT     H142911   0.989   7.405   5.638
14223WAT     H242912   0.842   7.358   5.692
14224WAT      O42913   0.303   4.112   8.745
14224WAT     H142914   0.305   4.199   8.795
14224WAT     H242915   0.396   4.084   8.724
14225WAT      O42916   0.509   0.004   8.951
14225WAT     H142917   0.564   0.082   8.981
14225WAT     H242918   0.568  -0.074   8.934
14226WAT      O42919   4.379   9.195   1.494
14226WAT     H142920   4.446   9.257   1.456
14226WAT     H242921   4.358   9.123   1.428
14227WAT      O42922   9.303   8.003   3.971
14227WAT     H142923   9.252   8.083   4.003
14227WAT     H242924   9.305   8.003   3.871
14228WAT      O42925   6.707   8.303   0.547
14228WAT     H142926   6.645   8.324   0.622
14228WAT     H242927   6.661   8.321   0.460
14229WAT      O42928   5.196   6.662   3.800
14229WAT     H142929   5.172   6.650   3.896
14229WAT     H242930   5.223   6.574   3.761
14230WAT      O42931   2.701   2.745   5.652
14230WAT     H142932   2.616   2.762   5.701
14230WAT     H242933   2.734   2.831   5.612
14231WAT      O42934   8.012   9.175   6.659
14231WAT     H142935   7.916   9.200   6.645
14231WAT     H242936   8.057   9.246   6.712
14232WAT      O42937   5.142   8.485   9.142
14232WAT     H142938   5.134   8.576   9.102
14232WAT     H242939   5.139   8.493   9.242
14233WAT      O42940   8.169   2.581   2.683
14233WAT     H142941   8.130   2.499   2.640
14233WAT     H242942   8.202   2.643   2.612
14234WAT      O42943   9.860   4.873   0.078
14234WAT     H142944   9.932   4.844   0.141
14234WAT     H242945   9.886   4.847  -0.015
14235WAT      O42946   1.997   8.557   1.530
14235WAT     H142947   1.897   8.568   1.528
14235WAT     H242948   2.019   8.460   1.515
14236WAT      O42949   5.798   0.856   8.642
14236WAT     H142950   5.873   0.921   8.655
14236WAT     H242951   5.765   0.862   8.548
14237WAT      O42952   1.695   7.252   3.784
14237WAT     H142953   1.596   7.233   3.783
14237WAT     H242954   1.737   7.206   3.863
14238WAT      O42955   5.690   4.801   8.148
14238WAT     H142956   5.635   4.794   8.231
14238WAT     H242957   5.685   4.715   8.097
14239WAT      O42958   8.197   4.939   3.807
14239WAT     H142959   8.121   5.004   3.815
14239WAT     H242960   8.275   4.984   3.764
14240WAT      O42961   4.590   7.168   5.587
14240WAT     H142962   4.664   7.233   5.570
14240WAT     H242963   4.577   7.157   5.685
14241WAT      O42964   8.312   3.013   1.949
14241WAT     H142965   8.377   3.063   2.006
14241WAT     H242966   8.289   2.926   1.993
14242WAT      O42967   0.811   5.261   0.426
14242WAT     H142968   0.887   5.207   0.462
14242WAT     H242969   0.783   5.328   0.494
14243WAT      O42970   8.039   3.822   0.708
14243WAT     H142971   8.109   3.889   0.683
14243WAT     H242972   8.079   3.731   0.710
14244WAT      O42973   3.294   2.851   7.475
14244WAT     H142974   3.216   2.906   7.445
14244WAT     H242975   3.282   2.757   7.446
14245WAT      O42976   0.218   3.438   3.906
14245WAT     H142977   0.193   3.378   3.983
14245WAT     H242978   0.136   3.483   3.872
14246WAT      O42979   9.615   7.108   3.738
14246WAT     H142980   9.584   7.030   3.684
14246WAT     H242981   9.591   7.094   3.834
14247WAT      O42982   6.951   6.058   5.346
14247WAT     H142983   6.896   6.050   5.428
14247WAT     H242984   6.980   5.968   5.315
14248WAT      O42985   3.463   4.947   9.245
14248WAT     H142986   3.507   4.996   9.319
14248WAT     H242987   3.494   4.852   9.244
14249WAT      O42988   2.031   5.072   8.309
14249WAT     H142989   1.957   5.023   8.355
14249WAT     H242990   2.109   5.011   8.296
14250WAT      O42991   3.698   3.431   4.535
14250WAT     H142992   3.712   3.526   4.506
14250WAT     H242993   3.610   3.398   4.501
14251WAT      O42994   9.599   3.167   9.644
14251WAT     H142995   9.639   3.144   9.733
14251WAT     H242996   9.596   3.086   9.587
14252WAT      O42997   8.540   9.192   7.780
14252WAT     H142998   8.555   9.237   7.692
14252WAT     H242999   8.453   9.222   7.819
14253WAT      O43000   8.744   5.252   7.018
14253WAT     H143001   8.720   5.171   7.072
14253WAT     H243002   8.803   5.225   6.942
14254WAT      O43003   7.674   8.741   3.462
14254WAT     H143004   7.614   8.665   3.487
14254WAT     H243005   7.619   8.819   3.431
14255WAT      O43006   0.272   7.605   9.408
14255WAT     H143007   0.368   7.632   9.414
14255WAT     H243008   0.266   7.518   9.359
14256WAT      O43009   4.797   4.331   2.759
14256WAT     H143010   4.892   4.355   2.777
14256WAT     H243011   4.743   4.414   2.745
14257WAT      O43012   2.214   8.760   3.728
14257WAT     H143013   2.221   8.859   3.722
14257WAT     H243014   2.190   8.733   3.821
14258WAT      O43015   6.028   7.505   2.378
14258WAT     H143016   6.024   7.574   2.451
14258WAT     H243017   5.995   7.418   2.413
14259WAT      O43018   8.422   0.277   6.939
14259WAT     H143019   8.463   0.229   6.862
14259WAT     H243020   8.494   0.325   6.991
14260WAT      O43021   3.698   8.832   8.486
14260WAT     H143022   3.653   8.758   8.537
14260WAT     H243023   3.714   8.909   8.547
14261WAT      O43024   6.464   7.009   7.549
14261WAT     H143025   6.393   6.966   7.605
14261WAT     H243026   6.533   6.941   7.525
14262WAT      O43027   3.248   3.763   1.995
14262WAT     H143028   3.211   3.774   2.087
14262WAT     H243029   3.176   3.775   1.927
14263WAT      O43030   3.907   6.276   9.888
14263WAT     H143031   3.983   6.256   9.826
14263WAT     H243032   3.837   6.329   9.839
14264WAT      O43033   8.903   5.883   2.888
14264WAT     H143034   8.913   5.874   2.987
14264WAT     H243035   8.987   5.922   2.849
14265WAT      O43036   7.672   2.125   6.966
14265WAT     H143037   7.604   2.071   7.016
14265WAT     H243038   7.762   2.082   6.976
14266WAT      O43039   2.593   0.538   5.204
14266WAT     H143040   2.659   0.470   5.235
14266WAT     H243041   2.508   0.529   5.255
14267WAT      O43042   2.763   2.154   0.491
14267WAT     H143043   2.823   2.150   0.571
14267WAT     H243044   2.748   2.062   0.456
14268WAT      O43045   6.959   0.111   3.725
14268WAT     H143046   6.972   0.021   3.684
14268WAT     H243047   6.935   0.101   3.822
14269WAT      O43048   9.238   7.103   2.134
14269WAT     H143049   9.309   7.171   2.116
14269WAT     H243050   9.223   7.049   2.051
14270WAT      O43051   0.793   4.789   0.758
14270WAT     H143052   0.718   4.774   0.822
14270WAT     H243053   0.872   4.735   0.787
14271WAT      O43054   3.998   6.070   0.399
14271WAT     H143055   3.996   6.141   0.470
14271WAT     H243056   4.043   5.989   0.434
14272WAT      O43057   6.854   6.006   7.625
14272WAT     H143058   6.885   6.072   7.556
14272WAT     H243059   6.755   5.991   7.614
14273WAT      O43060   7.798   2.634   3.194
14273WAT     H143061   7.870   2.703   3.189
14273WAT     H243062   7.839   2.545   3.216
14274WAT      O43063   9.353   8.934   4.982
14274WAT     H143064   9.286   8.964   5.050
14274WAT     H243065   9.431   8.891   5.029
14275WAT      O43066   3.115   1.345   4.287
14275WAT     H143067   3.119   1.314   4.192
14275WAT     H243068   3.197   1.314   4.335
14276WAT      O43069   9.645   1.129   0.149
14276WAT     H143070   9.560   1.130   0.096
14276WAT     H243071   9.634   1.182   0.233
14277WAT      O43072   2.906   7.839   7.453
14277WAT     H143073   2.840   7.764   7.450
14277WAT     H243074   2.999   7.801   7.451
14278WAT      O43075   3.103   0.649   1.013
14278WAT     H143076   3.122   0.742   1.045
14278WAT     H243077   3.072   0.593   1.089
14279WAT      O43078   5.908   5.973   0.761
14279WAT     H143079   5.862   6.003   0.677
14279WAT     H243080   5.904   5.874   0.768
14280WAT      O43081   8.536   7.175   0.151
14280WAT     H143082   8.590   7.250   0.188
14280WAT     H243083   8.444   7.207   0.129
14281WAT      O43084   4.325   3.779   7.654
14281WAT     H143085   4.412   3.731   7.661
14281WAT     H243086   4.253   3.725   7.699
14282WAT      O43087   0.787   3.938   7.294
14282WAT     H143088   0.838   3.861   7.332
14282WAT     H243089   0.746   3.911   7.206
14283WAT      O43090   6.510   4.541   9.532
14283WAT     H143091   6.508   4.469   9.463
14283WAT     H243092   6.458   4.512   9.612
14284WAT      O43093   1.216   9.650   9.455
14284WAT     H143094   1.192   9.664   9.551
14284WAT     H243095   1.311   9.674   9.440
14285WAT      O43096   8.438   6.390   3.363
14285WAT     H143097   8.360   6.448   3.385
14285WAT     H243098   8.419   6.339   3.280
14286WAT      O43099   9.283   3.768   3.518
14286WAT     H143100   9.294   3.773   3.617
14286WAT     H243101   9.201   3.817   3.490
14287WAT      O43102   9.668   9.636   8.587
14287WAT     H143103   9.751   9.640   8.531
14287WAT     H243104   9.590   9.610   8.529
14288WAT      O43105   0.656   1.079   4.346
14288WAT     H143106   0.621   1.021   4.272
14288WAT     H243107   0.660   1.026   4.431
14289WAT      O43108   9.016   8.726   9.421
14289WAT     H143109   9.060   8.647   9.378
14289WAT     H243110   9.041   8.729   9.518
14290WAT      O43111   7.695   4.836   8.340
14290WAT     H143112   7.736   4.879   8.421
14290WAT     H243113   7.648   4.906   8.285
14291WAT      O43114   4.497   8.910   1.016
14291WAT     H143115   4.503   8.947   0.923
14291WAT     H243116   4.498   8.986   1.082
14292WAT      O43117   4.374   7.970   1.944
14292WAT     H143118   4.454   8.021   1.974
14292WAT     H243119   4.338   8.011   1.861
14293WAT      O43120   3.715   9.598   6.594
14293WAT     H143121   3.815   9.598   6.594
14293WAT     H243122   3.682   9.524   6.653
14294WAT      O43123   9.840   7.410   4.563
14294WAT     H143124   9.806   7.318   4.584
14294WAT     H243125   9.810   7.436   4.471
14295WAT      O43126   4.968   7.793   3.922
14295WAT     H143127   4.999   7.771   3.830
14295WAT     H243128   4.887   7.739   3.944
14296WAT      O43129   6.784   6.680   9.793
14296WAT     H143130   6.746   6.711   9.880
14296WAT     H243131   6.797   6.759   9.733
14297WAT      O43132   6.647   6.889   9.070
14297WAT     H143133   6.567   6.862   9.015
14297WAT     H243134   6.617   6.914   9.162
14298WAT      O43135   9.761   5.022   0.924
14298WAT     H143136   9.725   5.111   0.895
14298WAT     H243137   9.825   5.034   0.999
14299WAT      O43138   6.632   6.581   3.182
14299WAT     H143139   6.537   6.611   3.192
14299WAT     H243140   6.667   6.547   3.269
14300WAT      O43141   4.433   2.919   9.508
14300WAT     H143142   4.419   2.884   9.601
14300WAT     H243143   4.350   2.905   9.455
14301WAT      O43144   0.407   9.602   5.725
14301WAT     H143145   0.331   9.563   5.673
14301WAT     H243146   0.451   9.674   5.672
14302WAT      O43147   7.450   8.325   7.856
14302WAT     H143148   7.447   8.243   7.914
14302WAT     H243149   7.545   8.355   7.845
14303WAT      O43150   8.215   7.183   4.374
14303WAT     H143151   8.138   7.245   4.360
14303WAT     H243152   8.215   7.149   4.468
14304WAT      O43153   3.944   9.596   9.607
14304WAT     H143154   3.882   9.518   9.596
14304WAT     H243155   3.916   9.670   9.546
14305WAT      O43156   5.924   6.173   8.639
14305WAT     H143157   5.918   6.240   8.564
14305WAT     H243158   5.836   6.125   8.647
14306WAT      O43159   2.774   0.076   5.244
14306WAT     H143160   2.683   0.102   5.213
14306WAT     H243161   2.769  -0.009   5.297
14307WAT      O43162   3.375   8.277   0.620
14307WAT     H143163   3.363   8.206   0.689
14307WAT     H243164   3.472   8.289   0.600
14308WAT      O43165   5.073   9.075   3.122
14308WAT     H143166   5.110   9.166   3.104
14308WAT     H243167   5.143   9.018   3.166
14309WAT      O43168   0.162   9.367   9.746
14309WAT     H143169   0.093   9.315   9.796
14309WAT     H243170   0.125   9.457   9.722
14310WAT      O43171   5.746   6.545   8.469
14310WAT     H143172   5.678   6.570   8.400
14310WAT     H243173   5.785   6.456   8.446
14311WAT      O43174   8.212   7.813   1.416
14311WAT     H143175   8.167   7.889   1.370
14311WAT     H243176   8.152   7.776   1.487
14312WAT      O43177   1.952   2.726   9.306
14312WAT     H143178   1.867   2.773   9.328
14312WAT     H243179   1.965   2.725   9.207
14313WAT      O43180   6.978   8.398   7.301
14313WAT     H143181   6.922   8.321   7.332
14313WAT     H243182   7.001   8.386   7.204
14314WAT      O43183   5.777   3.524   4.033
14314WAT     H143184   5.844   3.597   4.042
14314WAT     H243185   5.768   3.498   3.937
14315WAT      O43186   6.521   3.835   2.738
14315WAT     H143187   6.590   3.837   2.665
14315WAT     H243188   6.563   3.802   2.822
14316WAT      O43189   1.954   9.253   3.526
14316WAT     H143190   1.889   9.242   3.450
14316WAT     H243191   2.024   9.182   3.521
14317WAT      O43192   6.549   7.839   2.210
14317WAT     H143193   6.633   7.798   2.175
14317WAT     H243194   6.470   7.799   2.163
14318WAT      O43195   1.782   1.092   8.775
14318WAT     H143196   1.741   1.080   8.865
14318WAT     H243197   1.881   1.085   8.782
14319WAT      O43198   6.999   2.006   5.994
14319WAT     H143199   7.021   1.951   5.913
14319WAT     H243200   7.056   1.976   6.070
14320WAT      O43201   8.191   6.707   4.544
14320WAT     H143202   8.119   6.768   4.513
14320WAT     H243203   8.269   6.761   4.577
14321WAT      O43204   1.593   8.624   7.868
14321WAT     H143205   1.556   8.662   7.783
14321WAT     H243206   1.520   8.575   7.916
14322WAT      O43207   9.654   0.153   4.211
14322WAT     H143208   9.665   0.121   4.117
14322WAT     H243209   9.687   0.082   4.274
14323WAT      O43210   3.204   4.883   9.130
14323WAT     H143211   3.212   4.828   9.047
14323WAT     H243212   3.294   4.918   9.156
14324WAT      O43213   5.129   9.067   7.049
14324WAT     H143214   5.183   9.041   6.969
14324WAT     H243215   5.104   9.163   7.042
14325WAT      O43216   1.779   9.548   2.993
14325WAT     H143217   1.765   9.562   2.895
14325WAT     H243218   1.877   9.543   3.012
14326WAT      O43219   1.157   7.500   5.094
14326WAT     H143220   1.209   7.476   5.177
14326WAT     H243221   1.084   7.433   5.080
14327WAT      O43222   7.451   7.530   5.869
14327WAT     H143223   7.529   7.593   5.878
14327WAT     H243224   7.423   7.500   5.960
14328WAT      O43225   1.632   7.495   7.424
14328WAT     H143226   1.726   7.496   7.458
14328WAT     H243227   1.577   7.557   7.480
14329WAT      O43228   4.266   1.038   4.459
14329WAT     H143229   4.207   0.963   4.491
14329WAT     H243230   4.253   1.118   4.518
14330WAT      O43231   9.434   9.139   4.457
14330WAT     H143232   9.474   9.188   4.535
14330WAT     H243233   9.335   9.136   4.467
14331WAT      O43234   4.672   3.749   3.736
14331WAT     H143235   4.605   3.820   3.755
14331WAT     H243236   4.763   3.781   3.762
14332WAT      O43237   7.466   7.657   2.116
14332WAT     H143238   7.523   7.729   2.155
14332WAT     H243239   7.509   7.621   2.033
14333WAT      O43240   1.765   7.753   1.560
14333WAT     H143241   1.807   7.778   1.473
14333WAT     H243242   1.666   7.748   1.549
14334WAT      O43243   5.315   5.970   5.426
14334WAT     H143244   5.246   5.964   5.497
14334WAT     H243245   5.390   6.030   5.455
14335WAT      O43246   4.935   2.898   2.265
14335WAT     H143247   4.856   2.843   2.288
14335WAT     H243248   4.975   2.935   2.349
14336WAT      O43249   6.654   9.307   2.086
14336WAT     H143250   6.730   9.367   2.112
14336WAT     H243251   6.615   9.265   2.168
14337WAT      O43252   3.744   7.496   6.989
14337WAT     H143253   3.695   7.513   6.903
14337WAT     H243254   3.834   7.458   6.969
14338WAT      O43255   4.962   3.710   1.300
14338WAT     H143256   4.884   3.748   1.251
14338WAT     H243257   4.948   3.612   1.315
14339WAT      O43258   7.762   5.784   4.555
14339WAT     H143259   7.839   5.721   4.566
14339WAT     H243260   7.725   5.776   4.463
14340WAT      O43261   2.971   4.330   1.468
14340WAT     H143262   2.959   4.232   1.450
14340WAT     H243263   2.942   4.351   1.561
14341WAT      O43264   1.814   7.364   1.950
14341WAT     H143265   1.828   7.404   1.860
14341WAT     H243266   1.901   7.330   1.986
14342WAT      O43267   3.073   3.076   7.367
14342WAT     H143268   3.058   3.167   7.406
14342WAT     H243269   3.089   3.084   7.268
14343WAT      O43270   5.188   7.236   5.034
14343WAT     H143271   5.172   7.158   4.973
14343WAT     H243272   5.100   7.279   5.057
14344WAT      O43273   0.096   2.421   4.141
14344WAT     H143274   0.037   2.386   4.214
14344WAT     H243275   0.050   2.495   4.093
14345WAT      O43276   6.078   6.832   4.853
14345WAT     H143277   6.157   6.846   4.794
14345WAT     H243278   6.106   6.785   4.936
14346WAT      O43279   0.142   9.103   6.406
14346WAT     H143280   0.130   9.202   6.418
14346WAT     H243281   0.181   9.064   6.489
14347WAT      O43282   5.381   7.001   2.652
14347WAT     H143283   5.302   7.033   2.599
14347WAT     H243284   5.401   6.906   2.628
14348WAT      O43285   7.989   2.448   1.554
14348WAT     H143286   8.016   2.353   1.568
14348WAT     H243287   7.984   2.467   1.456
14349WAT      O43288   1.821   4.537   3.286
14349WAT     H143289   1.881   4.553   3.208
14349WAT     H243290   1.740   4.486   3.257
14350WAT      O43291   7.709   7.642   6.718
14350WAT     H143292   7.630   7.585   6.696
14350WAT     H243293   7.680   7.716   6.779
14351WAT      O43294   2.040   8.609   4.623
14351WAT     H143295   1.998   8.562   4.544
14351WAT     H243296   1.970   8.627   4.692
14352WAT      O43297   0.698   3.472   0.818
14352WAT     H143298   0.634   3.395   0.813
14352WAT     H243299   0.723   3.488   0.913
14353WAT      O43300   5.719   9.693   8.168
14353WAT     H143301   5.817   9.715   8.169
14353WAT     H243302   5.707   9.595   8.183
14354WAT      O43303   2.247   4.337   4.318
14354WAT     H143304   2.253   4.434   4.343
14354WAT     H243305   2.333   4.291   4.342
14355WAT      O43306   8.857   4.399   8.091
14355WAT     H143307   8.896   4.455   8.164
14355WAT     H243308   8.931   4.366   8.032
14356WAT      O43309   2.317   7.889   4.152
14356WAT     H143310   2.232   7.861   4.106
14356WAT     H243311   2.295   7.933   4.239
14357WAT      O43312   4.571   2.760   1.965
14357WAT     H143313   4.655   2.711   1.941
14357WAT     H243314   4.496   2.695   1.972
14358WAT      O43315   2.584   4.851   4.963
14358WAT     H143316   2.498   4.869   4.917
14358WAT     H243317   2.595   4.912   5.041
14359WAT      O43318   0.600   2.825   3.827
14359WAT     H143319   0.555   2.899   3.777
14359WAT     H243320   0.556   2.815   3.917
14360WAT      O43321   6.942   3.204   6.876
14360WAT     H143322   6.902   3.113   6.863
14360WAT     H243323   6.974   3.213   6.970
14361WAT      O43324   0.772   9.348   7.355
14361WAT     H143325   0.797   9.271   7.415
14361WAT     H243326   0.729   9.312   7.272
14362WAT      O43327   3.305   1.751   8.676
14362WAT     H143328   3.364   1.734   8.755
14362WAT     H243329   3.250   1.669   8.657
14363WAT      O43330   3.010   4.017   0.199
14363WAT     H143331   2.957   3.932   0.193
14363WAT     H243332   2.947   4.095   0.203
14364WAT      O43333   3.544   2.262   2.998
14364WAT     H143334   3.633   2.247   3.041
14364WAT     H243335   3.475   2.206   3.044
14365WAT      O43336   1.714   6.404   1.931
14365WAT     H143337   1.736   6.321   1.982
14365WAT     H243338   1.729   6.484   1.989
14366WAT      O43339   5.185   7.111   1.750
14366WAT     H143340   5.177   7.012   1.760
14366WAT     H243341   5.097   7.154   1.770
14367WAT      O43342   0.992   8.991   0.384
14367WAT     H143343   0.938   9.065   0.343
14367WAT     H243344   0.973   8.987   0.482
14368WAT      O43345   2.093   0.502   8.233
14368WAT     H143346   2.018   0.564   8.253
14368WAT     H243347   2.179   0.540   8.266
14369WAT      O43348   5.574   0.109   3.262
14369WAT     H143349   5.501   0.161   3.218
14369WAT     H243350   5.657   0.163   3.265
14370WAT      O43351   2.169   8.588   5.041
14370WAT     H143352   2.211   8.512   5.090
14370WAT     H243353   2.140   8.658   5.107
14371WAT      O43354   6.869   8.018   8.027
14371WAT     H143355   6.797   8.040   7.961
14371WAT     H243356   6.956   8.056   7.995
14372WAT      O43357   1.938   6.974   3.217
14372WAT     H143358   2.027   6.967   3.263
14372WAT     H243359   1.869   6.927   3.272
14373WAT      O43360   6.072   8.061   2.740
14373WAT     H143361   6.087   8.086   2.644
14373WAT     H243362   6.156   8.075   2.792
14374WAT      O43363   6.239   9.410   9.728
14374WAT     H143364   6.224   9.371   9.637
14374WAT     H243365   6.164   9.473   9.749
14375WAT      O43366   5.369   0.605   9.377
14375WAT     H143367   5.388   0.655   9.462
14375WAT     H243368   5.412   0.515   9.381
14376WAT      O43369   2.022   5.907   6.809
14376WAT     H143370   2.115   5.871   6.809
14376WAT     H243371   2.015   5.983   6.744
14377WAT      O43372   3.844   8.644   7.559
14377WAT     H143373   3.853   8.656   7.658
14377WAT     H243374   3.840   8.547   7.537
14378WAT      O43375   0.358   3.842   4.585
14378WAT     H143376   0.410   3.853   4.500
14378WAT     H243377   0.332   3.746   4.595
14379WAT      O43378   5.955   3.878   1.705
14379WAT     H143379   5.958   3.972   1.739
14379WAT     H243380   5.896   3.873   1.625
14380WAT      O43381   4.332   0.050   5.340
14380WAT     H143382   4.377   0.139   5.339
14380WAT     H243383   4.236   0.061   5.315
14381WAT      O43384   2.586   3.073   1.051
14381WAT     H143385   2.515   3.108   1.112
14381WAT     H243386   2.631   3.149   1.004
14382WAT      O43387   3.013   7.406   6.674
14382WAT     H143388   3.035   7.440   6.583
14382WAT     H243389   2.936   7.343   6.668
14383WAT      O43390   6.234   1.815   3.266
14383WAT     H143391   6.146   1.861   3.260
14383WAT     H243392   6.233   1.732   3.209
14384WAT      O43393   3.855   0.216   2.147
14384WAT     H143394   3.882   0.142   2.086
14384WAT     H243395   3.837   0.180   2.239
14385WAT      O43396   9.562   0.298   3.386
14385WAT     H143397   9.586   0.318   3.291
14385WAT     H243398   9.465   0.274   3.392
14386WAT      O43399   4.081   8.186   5.079
14386WAT     H143400   4.110   8.111   5.018
14386WAT     H243401   4.072   8.270   5.026
14387WAT      O43402   1.763   1.283   9.593
14387WAT     H143403   1.758   1.183   9.597
14387WAT     H243404   1.774   1.319   9.685
14388WAT      O43405   8.825   1.008   9.235
14388WAT     H143406   8.830   1.075   9.162
14388WAT     H243407   8.733   0.969   9.238
14389WAT      O43408   7.929   3.120   0.533
14389WAT     H143409   8.024   3.090   0.546
14389WAT     H243410   7.868   3.041   0.538
14390WAT      O43411   8.120   3.117   6.593
14390WAT     H143412   8.181   3.124   6.515
14390WAT     H243413   8.158   3.168   6.670
14391WAT      O43414   6.832   4.716   1.172
14391WAT     H143415   6.783   4.643   1.124
14391WAT     H243416   6.793   4.804   1.147
14392WAT      O43417   1.957   3.307   7.694
14392WAT     H143418   1.946   3.337   7.599
14392WAT     H243419   2.053   3.284   7.711
14393WAT      O43420   7.680   3.531   4.260
14393WAT     H143421   7.758   3.592   4.269
14393WAT     H243422   7.597   3.586   4.243
14394WAT      O43423   7.225   9.828   3.686
14394WAT     H143424   7.181   9.891   3.749
14394WAT     H243425   7.258   9.748   3.735
14395WAT      O43426   9.500   0.968   4.367
14395WAT     H143427   9.589   0.935   4.399
14395WAT     H243428   9.462   0.901   4.302
14396WAT      O43429   9.125   5.574   1.383
14396WAT     H143430   9.058   5.642   1.353
14396WAT     H243431   9.198   5.567   1.315
14397WAT      O43432   2.234   2.184   7.733
14397WAT     H143433   2.286   2.199   7.649
14397WAT     H243434   2.288   2.213   7.812
14398WAT      O43435   8.753   5.937   7.158
14398WAT     H143436   8.847   5.958   7.185
14398WAT     H243437   8.747   5.840   7.134
14399WAT      O43438   4.235   7.830   9.198
14399WAT     H143439   4.199   7.741   9.171
14399WAT     H243440   4.229   7.894   9.122
14400WAT      O43441   9.217   8.906   5.402
14400WAT     H143442   9.144   8.925   5.468
14400WAT     H243443   9.235   8.987   5.348
14401WAT      O43444   5.948   9.028   8.442
14401WAT     H143445   5.980   9.109   8.493
14401WAT     H243446   5.870   8.988   8.490
14402WAT      O43447   8.521   4.985   7.566
14402WAT     H143448   8.513   4.909   7.631
14402WAT     H243449   8.493   5.070   7.611
14403WAT      O43450   7.115   2.437   4.047
14403WAT     H143451   7.057   2.486   3.981
14403WAT     H243452   7.083   2.456   4.140
14404WAT      O43453   9.352   2.078   5.922
14404WAT     H143454   9.420   2.144   5.951
14404WAT     H243455   9.370   1.990   5.966
14405WAT      O43456   0.754   9.745   0.140
14405WAT     H143457   0.778   9.842   0.144
14405WAT     H243458   0.743   9.710   0.233
14406WAT      O43459   9.769   9.488   2.994
14406WAT     H143460   9.756   9.410   2.933
14406WAT     H243461   9.815   9.562   2.945
14407WAT      O43462   7.228   3.493   2.442
14407WAT     H143463   7.182   3.573   2.404
14407WAT     H243464   7.247   3.428   2.369
14408WAT      O43465   2.645   1.440   0.900
14408WAT     H143466   2.625   1.524   0.849
14408WAT     H243467   2.570   1.375   0.887
14409WAT      O43468   6.199   6.901   3.712
14409WAT     H143469   6.168   6.931   3.622
14409WAT     H243470   6.123   6.856   3.760
14410WAT      O43471   5.994   0.132   4.556
14410WAT     H143472   5.922   0.117   4.488
14410WAT     H243473   6.017   0.045   4.600
14411WAT      O43474   3.215   1.040   7.455
14411WAT     H143475   3.248   1.069   7.366
14411WAT     H243476   3.181   1.119   7.506
14412WAT      O43477   0.426   3.108   8.478
14412WAT     H143478   0.441   3.205   8.460
14412WAT     H243479   0.348   3.097   8.539
14413WAT      O43480   9.441   3.273   3.285
14413WAT     H143481   9.469   3.348   3.345
14413WAT     H243482   9.400   3.310   3.202
14414WAT      O43483   2.859   1.022   3.086
14414WAT     H143484   2.770   1.001   3.125
14414WAT     H243485   2.929   1.014   3.157
14415WAT      O43486   5.034   0.503   1.363
14415WAT     H143487   5.095   0.468   1.292
14415WAT     H243488   5.058   0.599   1.383
14416WAT      O43489   1.768   0.463   3.158
14416WAT     H143490   1.796   0.375   3.197
14416WAT     H243491   1.814   0.537   3.207
14417WAT      O43492   7.436   8.473   6.200
14417WAT     H143493   7.474   8.443   6.113
14417WAT     H243494   7.509   8.483   6.268
14418WAT      O43495   5.456   0.470   0.713
14418WAT     H143496   5.449   0.385   0.764
14418WAT     H243497   5.385   0.534   0.744
14419WAT      O43498   8.981   9.403   8.491
14419WAT     H143499   8.910   9.333   8.489
14419WAT     H243500   8.999   9.435   8.399
14420WAT      O43501   5.258   2.371   2.872
14420WAT     H143502   5.179   2.314   2.893
14420WAT     H243503   5.330   2.354   2.940
14421WAT      O43504   4.141   2.962   4.511
14421WAT     H143505   4.150   3.015   4.595
14421WAT     H243506   4.044   2.950   4.489
14422WAT      O43507   3.118   2.313   0.531
14422WAT     H143508   3.200   2.261   0.507
14422WAT     H243509   3.145   2.397   0.578
14423WAT      O43510   2.241   4.621   7.165
14423WAT     H143511   2.146   4.592   7.165
14423WAT     H243512   2.288   4.579   7.087
14424WAT      O43513   0.494   0.917   6.317
14424WAT     H143514   0.583   0.937   6.278
14424WAT     H243515   0.441   1.002   6.326
14425WAT      O43516   6.775   5.610   4.678
14425WAT     H143517   6.822   5.523   4.693
14425WAT     H243518   6.836   5.686   4.700
14426WAT      O43519   8.022   3.544   2.229
14426WAT     H143520   7.973   3.630   2.213
14426WAT     H243521   7.986   3.500   2.312
14427WAT      O43522   9.178   1.737   0.753
14427WAT     H143523   9.223   1.648   0.751
14427WAT     H243524   9.146   1.761   0.661
14428WAT      O43525   2.696   2.245   2.299
14428WAT     H143526   2.701   2.280   2.393
14428WAT     H243527   2.692   2.322   2.235
14429WAT      O43528   5.676   3.505   0.056
14429WAT     H143529   5.607   3.458  -0.000
14429WAT     H243530   5.645   3.506   0.151
14430WAT      O43531   1.400   7.353   4.552
14430WAT     H143532   1.465   7.284   4.523
14430WAT     H243533   1.448   7.427   4.599
14431WAT      O43534   9.311   0.266   5.395
14431WAT     H143535   9.285   0.345   5.340
14431WAT     H243536   9.315   0.293   5.491
14432WAT      O43537   2.680   4.942   3.778
14432WAT     H143538   2.754   4.930   3.844
14432WAT     H243539   2.594   4.958   3.828
14433WAT      O43540   8.359   3.705   5.825
14433WAT     H143541   8.335   3.614   5.788
14433WAT     H243542   8.329   3.711   5.920
14434WAT      O43543   8.974   5.731   1.232
14434WAT     H143544   9.021   5.818   1.250
14434WAT     H243545   8.888   5.749   1.184
14435WAT      O43546   3.120   0.022   0.001
14435WAT     H143547   3.191  -0.032   0.045
14435WAT     H243548   3.039  -0.035  -0.015
14436WAT      O43549   4.173   6.442   1.144
14436WAT     H143550   4.115   6.435   1.063
14436WAT     H243551   4.116   6.437   1.226
14437WAT      O43552   6.240   9.823   3.367
14437WAT     H143553   6.239   9.856   3.272
14437WAT     H243554   6.150   9.786   3.390
14438WAT      O43555   4.122   5.711   2.583
14438WAT     H143556   4.059   5.678   2.653
14438WAT     H243557   4.211   5.730   2.624
14439WAT      O43558   2.444   2.030   2.759
14439WAT     H143559   2.405   1.947   2.719
14439WAT     H243560   2.460   2.015   2.856
14440WAT      O43561   0.088   2.652   4.686
14440WAT     H143562   0.015   2.644   4.619
14440WAT     H243563   0.164   2.703   4.646
14441WAT      O43564   9.054   8.436   8.396
14441WAT     H143565   9.078   8.513   8.454
14441WAT     H243566   8.994   8.374   8.446
14442WAT      O43567   5.518   5.240   8.077
14442WAT     H143568   5.536   5.229   8.175
14442WAT     H243569   5.601   5.272   8.031
14443WAT      O43570   2.676   0.824   6.854
14443WAT     H143571   2.579   0.835   6.836
14443WAT     H243572   2.711   0.745   6.804
14444WAT      O43573   1.607   3.045   6.109
14444WAT     H143574   1.563   3.020   6.023
14444WAT     H243575   1.705   3.060   6.094
14445WAT      O43576   2.057   6.041   8.400
14445WAT     H143577   2.033   6.116   8.462
14445WAT     H243578   2.105   6.079   8.320
14446WAT      O43579   9.846   4.982   4.250
14446WAT     H143580   9.900   5.056   4.290
14446WAT     H243581   9.750   5.011   4.243
14447WAT      O43582   3.093   8.522   2.347
14447WAT     H143583   3.077   8.534   2.445
14447WAT     H243584   3.189   8.537   2.328
14448WAT      O43585   4.633   2.702   1.661
14448WAT     H143586   4.676   2.782   1.703
14448WAT     H243587   4.539   2.725   1.634
14449WAT      O43588   0.500   6.793   2.704
14449WAT     H143589   0.522   6.858   2.777
14449WAT     H243590   0.541   6.704   2.726
14450WAT      O43591   3.420   7.367   5.417
14450WAT     H143592   3.334   7.340   5.375
14450WAT     H243593   3.472   7.425   5.354
14451WAT      O43594   6.913   3.176   0.018
14451WAT     H143595   6.971   3.168  -0.063
14451WAT     H243596   6.908   3.272   0.047
14452WAT      O43597   0.512   0.019   9.390
14452WAT     H143598   0.546  -0.035   9.313
14452WAT     H243599   0.480  -0.042   9.463
14453WAT      O43600   9.643   2.750   7.614
14453WAT     H143601   9.675   2.778   7.705
14453WAT     H243602   9.696   2.798   7.545
14454WAT      O43603   3.234   7.532   8.003
14454WAT     H143604   3.159   7.490   8.053
14454WAT     H243605   3.236   7.496   7.910
14455WAT      O43606   3.294   8.584   3.476
14455WAT     H143607   3.283   8.495   3.520
14455WAT     H243608   3.250   8.655   3.533
14456WAT      O43609   3.934   8.574   5.025
14456WAT     H143610   3.961   8.666   4.999
14456WAT     H243611   3.961   8.509   4.954
14457WAT      O43612   6.101   0.816   0.039
14457WAT     H143613   6.029   0.834   0.106
14457WAT     H243614   6.071   0.743  -0.023
14458WAT      O43615   6.168   2.460   3.821
14458WAT     H143616   6.166   2.479   3.723
14458WAT     H243617   6.251   2.408   3.843
14459WAT      O43618   5.725   9.597   3.194
14459WAT     H143619   5.650   9.603   3.260
14459WAT     H243620   5.777   9.513   3.210
14460WAT      O43621   6.601   4.425   1.460
14460WAT     H143622   6.550   4.464   1.537
14460WAT     H243623   6.541   4.367   1.406
14461WAT      O43624   3.818   5.966   4.746
14461WAT     H143625   3.752   6.036   4.717
14461WAT     H243626   3.828   5.898   4.673
14462WAT      O43627   9.873   8.903   4.434
14462WAT     H143628   9.912   8.817   4.467
14462WAT     H243629   9.773   8.899   4.441
14463WAT      O43630   5.869   6.442   2.951
14463WAT     H143631   5.876   6.440   2.851
14463WAT     H243632   5.928   6.514   2.987
14464WAT      O43633   3.842   8.706   9.021
14464WAT     H143634   3.834   8.748   9.112
14464WAT     H243635   3.862   8.777   8.953
14465WAT      O43636   2.053   4.081   8.480
14465WAT     H143637   2.015   4.032   8.558
14465WAT     H243638   1.991   4.072   8.402
14466WAT      O43639   7.735   3.647   3.541
14466WAT     H143640   7.810   3.618   3.481
14466WAT     H243641   7.689   3.726   3.501
14467WAT      O43642   9.001   0.223   7.205
14467WAT     H143643   9.068   0.297   7.212
14467WAT     H243644   8.922   0.255   7.151
14468WAT      O43645   8.544   0.155   3.746
14468WAT     H143646   8.510   0.084   3.685
14468WAT     H243647   8.520   0.245   3.710
14469WAT      O43648   3.197   9.389   9.214
14469WAT     H143649   3.268   9.331   9.174
14469WAT     H243650   3.234   9.438   9.292
14470WAT      O43651   5.066   0.801   8.159
14470WAT     H143652   4.974   0.826   8.189
14470WAT     H243653   5.133   0.849   8.216
14471WAT      O43654   1.998   2.646   2.356
14471WAT     H143655   2.010   2.554   2.394
14471WAT     H243656   1.903   2.660   2.331
14472WAT      O43657   8.197   7.279   5.079
14472WAT     H143658   8.248   7.218   5.139
14472WAT     H243659   8.099   7.259   5.087
14473WAT      O43660   4.156   6.557   4.828
14473WAT     H143661   4.254   6.555   4.848
14473WAT     H243662   4.119   6.648   4.848
14474WAT      O43663   3.822   0.297   1.638
14474WAT     H143664   3.910   0.291   1.685
14474WAT     H243665   3.750   0.320   1.703
14475WAT      O43666   3.899   2.745   1.216
14475WAT     H143667   3.881   2.672   1.151
14475WAT     H243668   3.966   2.809   1.177
14476WAT      O43669   7.043   3.752   8.121
14476WAT     H143670   7.057   3.843   8.081
14476WAT     H243671   7.089   3.684   8.065
14477WAT      O43672   4.109   2.074   0.217
14477WAT     H143673   4.205   2.093   0.235
14477WAT     H243674   4.099   2.035   0.125
14478WAT      O43675   6.293   1.675   4.282
14478WAT     H143676   6.232   1.621   4.224
14478WAT     H243677   6.298   1.635   4.373
14479WAT      O43678   9.222   3.102   4.941
14479WAT     H143679   9.231   3.043   4.861
14479WAT     H243680   9.208   3.045   5.022
14480WAT      O43681   8.973   3.121   0.938
14480WAT     H143682   8.938   3.028   0.926
14480WAT     H243683   9.073   3.119   0.937
14481WAT      O43684   6.602   8.183   6.422
14481WAT     H143685   6.652   8.269   6.417
14481WAT     H243686   6.665   8.107   6.406
14482WAT      O43687   6.765   0.426   4.721
14482WAT     H143688   6.796   0.442   4.627
14482WAT     H243689   6.669   0.450   4.730
14483WAT      O43690   2.860   6.500   6.209
14483WAT     H143691   2.910   6.587   6.214
14483WAT     H243692   2.922   6.428   6.177
14484WAT      O43693   0.025   2.844   8.564
14484WAT     H143694   0.092   2.918   8.567
14484WAT     H243695  -0.066   2.881   8.577
14485WAT      O43696   5.802   2.451   3.806
14485WAT     H143697   5.781   2.500   3.721
14485WAT     H243698   5.864   2.375   3.786
14486WAT      O43699   1.114   5.987   6.524
14486WAT     H143700   1.080   5.906   6.571
14486WAT     H243701   1.147   5.961   6.433
14487WAT      O43702   0.339   9.590   8.650
14487WAT     H143703   0.246   9.555   8.641
14487WAT     H243704   0.337   9.677   8.701
14488WAT      O43705   1.813   7.533   7.895
14488WAT     H143706   1.876   7.475   7.948
14488WAT     H243707   1.719   7.508   7.916
14489WAT      O43708   8.026   0.710   7.516
14489WAT     H143709   8.048   0.808   7.515
14489WAT     H243710   8.017   0.679   7.610
14490WAT      O43711   6.781   8.239   9.642
14490WAT     H143712   6.705   8.286   9.687
14490WAT     H243713   6.841   8.199   9.712
14491WAT      O43714   5.769   2.037   7.011
14491WAT     H143715   5.784   1.962   6.946
14491WAT     H243716   5.684   2.085   6.988
14492WAT      O43717   5.991   4.066   3.717
14492WAT     H143718   5.966   4.118   3.799
14492WAT     H243719   6.085   4.033   3.726
14493WAT      O43720   4.481   9.838   2.228
14493WAT     H143721   4.535   9.770   2.179
14493WAT     H243722   4.401   9.863   2.174
14494WAT      O43723   6.002   8.609   9.602
14494WAT     H143724   5.952   8.672   9.543
14494WAT     H243725   6.100   8.631   9.599
14495WAT      O43726   2.131   6.081   0.621
14495WAT     H143727   2.210   6.081   0.683
14495WAT     H243728   2.127   6.169   0.573
14496WAT      O43729   3.520   7.224   2.384
14496WAT     H143730   3.426   7.256   2.380
14496WAT     H243731   3.581   7.295   2.348
14497WAT      O43732   7.861   4.628   1.543
14497WAT     H143733   7.813   4.582   1.617
14497WAT     H243734   7.912   4.706   1.579
14498WAT      O43735   7.167   6.115   8.903
14498WAT     H143736   7.212   6.093   8.817
14498WAT     H243737   7.105   6.041   8.929
14499WAT      O43738   9.820   1.783   3.290
14499WAT     H143739   9.843   1.687   3.271
14499WAT     H243740   9.757   1.817   3.221
14500WAT      O43741   3.669   2.938   0.833
14500WAT     H143742   3.623   2.854   0.864
14500WAT     H243743   3.766   2.933   0.858
14501WAT      O43744   4.493   2.862   5.866
14501WAT     H143745   4.458   2.865   5.773
14501WAT     H243746   4.573   2.923   5.874
14502WAT      O43747   5.644   1.267   0.136
14502WAT     H143748   5.693   1.343   0.179
14502WAT     H243749   5.694   1.238   0.054
14503WAT      O43750   1.278   3.829   4.020
14503WAT     H143751   1.316   3.780   4.099
14503WAT     H243752   1.182   3.805   4.009
14504WAT      O43753   5.808   8.103   6.265
14504WAT     H143754   5.800   8.051   6.350
14504WAT     H243755   5.729   8.163   6.255
14505WAT      O43756   4.056   2.497   0.966
14505WAT     H143757   4.026   2.426   1.031
14505WAT     H243758   4.141   2.538   0.999
14506WAT      O43759   2.793   3.670   3.637
14506WAT     H143760   2.806   3.766   3.610
14506WAT     H243761   2.856   3.647   3.711
14507WAT      O43762   9.110   3.458   1.394
14507WAT     H143763   9.137   3.441   1.299
14507WAT     H243764   9.182   3.511   1.440
14508WAT      O43765   0.641   5.167   1.476
14508WAT     H143766   0.629   5.246   1.415
14508WAT     H243767   0.696   5.193   1.555
14509WAT      O43768   0.903   4.558   7.304
14509WAT     H143769   0.826   4.516   7.257
14509WAT     H243770   0.871   4.635   7.360
14510WAT      O43771   3.103   1.517   0.531
14510WAT     H143772   3.066   1.424   0.523
14510WAT     H243773   3.195   1.520   0.492
14511WAT      O43774   5.396   9.424   0.285
14511WAT     H143775   5.460   9.470   0.224
14511WAT     H243776   5.373   9.484   0.361
14512WAT      O43777   6.129   4.772   0.600
14512WAT     H143778   6.158   4.865   0.580
14512WAT     H243779   6.077   4.736   0.523
14513WAT      O43780   6.174   8.066   3.656
14513WAT     H143781   6.270   8.054   3.628
14513WAT     H243782   6.168   8.066   3.755
14514WAT      O43783   3.002   9.190   0.841
14514WAT     H143784   3.072   9.207   0.771
14514WAT     H243785   2.990   9.092   0.853
14515WAT      O43786   8.074   0.389   5.892
14515WAT     H143787   8.063   0.451   5.814
14515WAT     H243788   8.016   0.309   5.879
14516WAT      O43789   9.503   1.933   1.103
14516WAT     H143790   9.457   1.954   1.017
14516WAT     H243791   9.451   1.863   1.152
14517WAT      O43792   7.966   9.030   6.417
14517WAT     H143793   7.999   9.074   6.501
14517WAT     H243794   7.915   9.097   6.363
14518WAT      O43795   2.215   5.478   6.573
14518WAT     H143796   2.235   5.547   6.643
14518WAT     H243797   2.118   5.481   6.550
14519WAT      O43798   9.338   9.604   0.401
14519WAT     H143799   9.436   9.603   0.421
14519WAT     H243800   9.324   9.636   0.307
14520WAT      O43801   8.927   8.999   3.934
14520WAT     H143802   8.920   8.926   3.865
14520WAT     H243803   8.842   9.003   3.987
14521WAT      O43804   7.203   4.694   8.641
14521WAT     H143805   7.184   4.674   8.545
14521WAT     H243806   7.238   4.788   8.648
14522WAT      O43807   6.692   1.398   3.633
14522WAT     H143808   6.725   1.394   3.539
14522WAT     H243809   6.754   1.345   3.692
14523WAT      O43810   2.433   1.894   4.680
14523WAT     H143811   2.400   1.823   4.617
14523WAT     H243812   2.431   1.859   4.773
14524WAT      O43813   1.894   1.657   0.146
14524WAT     H143814   1.979   1.707   0.130
14524WAT     H243815   1.894   1.620   0.238
14525WAT      O43816   7.223   9.719   8.667
14525WAT     H143817   7.242   9.813   8.640
14525WAT     H243818   7.143   9.685   8.617
14526WAT      O43819   4.175   6.719   0.402
14526WAT     H143820   4.184   6.653   0.328
14526WAT     H243821   4.266   6.745   0.435
14527WAT      O43822   2.505   8.614   9.592
14527WAT     H143823   2.523   8.640   9.687
14527WAT     H243824   2.592   8.595   9.546
14528WAT      O43825   1.525   6.707   3.151
14528WAT     H143826   1.484   6.738   3.236
14528WAT     H243827   1.620   6.680   3.167
14529WAT      O43828   8.482   1.904   5.507
14529WAT     H143829   8.556   1.946   5.558
14529WAT     H243830   8.438   1.833   5.563
14530WAT      O43831   8.893   8.011   3.730
14530WAT     H143832   8.872   8.087   3.790
14530WAT     H243833   8.883   8.039   3.634
14531WAT      O43834   6.208   7.195   2.259
14531WAT     H143835   6.181   7.154   2.172
14531WAT     H243836   6.147   7.163   2.332
14532WAT      O43837   5.539   4.684   4.746
14532WAT     H143838   5.545   4.731   4.834
14532WAT     H243839   5.558   4.750   4.672
14533WAT      O43840   9.605   4.112   7.603
14533WAT     H143841   9.619   4.129   7.505
14533WAT     H243842   9.596   4.199   7.651
14534WAT      O43843   2.683   4.981   6.129
14534WAT     H143844   2.765   4.999   6.182
14534WAT     H243845   2.704   4.989   6.031
14535WAT      O43846   4.591   2.125   2.343
14535WAT     H143847   4.686   2.145   2.320
14535WAT     H243848   4.568   2.032   2.315
14536WAT      O43849   4.797   4.302   1.752
14536WAT     H143850   4.897   4.305   1.765
14536WAT     H243851   4.772   4.363   1.677
14537WAT      O43852   7.305   9.045   2.300
14537WAT     H143853   7.336   8.967   2.355
14537WAT     H243854   7.361   9.125   2.320
14538WAT      O43855   4.329   5.709   1.800
14538WAT     H143856   4.304   5.746   1.889
14538WAT     H243857   4.387   5.774   1.752
14539WAT      O43858   0.117   2.877   6.462
14539WAT     H143859   0.122   2.781   6.489
14539WAT     H243860   0.187   2.929   6.512
14540WAT      O43861   2.349   1.972   5.107
14540WAT     H143862   2.318   2.063   5.081
14540WAT     H243863   2.321   1.953   5.201
14541WAT      O43864   0.613   9.088   9.370
14541WAT     H143865   0.616   9.156   9.297
14541WAT     H243866   0.651   9.002   9.337
14542WAT      O43867   6.984   1.169   1.172
14542WAT     H143868   7.020   1.241   1.112
14542WAT     H243869   6.943   1.211   1.253
14543WAT      O43870   1.475   0.872   7.480
14543WAT     H143871   1.518   0.782   7.475
14543WAT     H243872   1.451   0.893   7.575
14544WAT      O43873   8.427   0.505   2.409
14544WAT     H143874   8.454   0.417   2.447
14544WAT     H243875   8.336   0.531   2.443
14545WAT      O43876   7.846   6.767   6.103
14545WAT     H143877   7.781   6.736   6.034
14545WAT     H243878   7.918   6.699   6.115
14546WAT      O43879   1.196   3.539   5.022
14546WAT     H143880   1.107   3.552   4.978
14546WAT     H243881   1.241   3.458   4.985
14547WAT      O43882   8.970   3.012   8.195
14547WAT     H143883   8.928   3.047   8.111
14547WAT     H243884   9.030   3.082   8.233
14548WAT      O43885   1.210   0.559   2.881
14548WAT     H143886   1.184   0.520   2.969
14548WAT     H243887   1.173   0.652   2.873
14549WAT      O43888   1.583   1.621   7.582
14549WAT     H143889   1.662   1.650   7.636
14549WAT     H243890   1.612   1.551   7.516
14550WAT      O43891   3.372   0.419   5.477
14550WAT     H143892   3.334   0.493   5.534
14550WAT     H243893   3.441   0.456   5.416
14551WAT      O43894   3.872   9.046   2.970
14551WAT     H143895   3.814   8.968   2.948
14551WAT     H243896   3.863   9.116   2.899
14552WAT      O43897   6.555   3.084   7.987
14552WAT     H143898   6.504   3.147   8.045
14552WAT     H243899   6.614   3.137   7.925
14553WAT      O43900   9.022   8.019   9.029
14553WAT     H143901   9.007   8.058   8.938
14553WAT     H243902   8.943   7.962   9.054
14554WAT      O43903   9.405   7.224   6.292
14554WAT     H143904   9.434   7.130   6.311
14554WAT     H243905   9.485   7.281   6.275
14555WAT      O43906   5.279   0.231   0.742
14555WAT     H143907   5.233   0.214   0.830
14555WAT     H243908   5.374   0.202   0.748
14556WAT      O43909   2.859   2.634   3.817
14556WAT     H143910   2.894   2.712   3.869
14556WAT     H243911   2.935   2.573   3.793
14557WAT      O43912   7.276   2.747   9.654
14557WAT     H143913   7.347   2.677   9.646
14557WAT     H243914   7.258   2.766   9.751
14558WAT      O43915   4.186   4.371   7.834
14558WAT     H143916   4.153   4.309   7.905
14558WAT     H243917   4.265   4.330   7.788
14559WAT      O43918   7.654   2.776   7.627
14559WAT     H143919   7.639   2.724   7.543
14559WAT     H243920   7.567   2.813   7.660
14560WAT      O43921   5.510   1.673   4.418
14560WAT     H143922   5.485   1.583   4.452
14560WAT     H243923   5.473   1.743   4.479
14561WAT      O43924   4.555   4.900   3.217
14561WAT     H143925   4.536   4.802   3.210
14561WAT     H243926   4.649   4.918   3.189
14562WAT      O43927   5.985   3.148   2.180
14562WAT     H143928   6.080   3.134   2.207
14562WAT     H243929   5.971   3.244   2.157
14563WAT      O43930   3.947   0.868   0.803
14563WAT     H143931   3.894   0.942   0.762
14563WAT     H243932   3.889   0.818   0.868
14564WAT      O43933   7.437   2.999   6.694
14564WAT     H143934   7.344   2.987   6.730
14564WAT     H243935   7.455   2.929   6.625
14565WAT      O43936   4.722   4.474   1.180
14565WAT     H143937   4.654   4.413   1.220
14565WAT     H243938   4.813   4.449   1.213
14566WAT      O43939   1.803   5.390   9.015
14566WAT     H143940   1.823   5.325   9.088
14566WAT     H243941   1.821   5.348   8.926
14567WAT      O43942   6.185   9.545   6.682
14567WAT     H143943   6.156   9.466   6.628
14567WAT     H243944   6.104   9.591   6.720
14568WAT      O43945   8.117   8.547   7.684
14568WAT     H143946   8.123   8.458   7.729
14568WAT     H243947   8.022   8.577   7.681
14569WAT      O43948   6.808   0.231   4.896
14569WAT     H143949   6.790   0.318   4.851
14569WAT     H243950   6.874   0.179   4.843
14570WAT      O43951   4.192   7.209   4.131
14570WAT     H143952   4.247   7.170   4.058
14570WAT     H243953   4.203   7.308   4.131
14571WAT      O43954   3.035   4.438   8.737
14571WAT     H143955   3.054   4.341   8.721
14571WAT     H243956   3.059   4.462   8.831
14572WAT      O43957   3.733   4.891   7.835
14572WAT     H143958   3.771   4.981   7.854
14572WAT     H243959   3.634   4.898   7.824
14573WAT      O43960   2.707   0.570   1.708
14573WAT     H143961   2.738   0.532   1.621
14573WAT     H243962   2.785   0.602   1.761
14574WAT      O43963   7.025   8.380   8.173
14574WAT     H143964   7.079   8.458   8.144
14574WAT     H243965   6.954   8.361   8.105
14575WAT      O43966   6.797   7.858   8.387
14575WAT     H143967   6.790   7.760   8.405
14575WAT     H243968   6.857   7.900   8.454
14576WAT      O43969   4.349   3.320   9.458
14576WAT     H143970   4.305   3.410   9.452
14576WAT     H243971   4.340   3.285   9.551
14577WAT      O43972   4.325   8.973   2.435
14577WAT     H143973   4.278   8.895   2.478
14577WAT     H243974   4.310   9.055   2.490
14578WAT      O43975   6.118   4.372   5.733
14578WAT     H143976   6.204   4.338   5.695
14578WAT     H243977   6.133   4.400   5.828
14579WAT      O43978   6.901   7.779   0.555
14579WAT     H143979   6.834   7.730   0.611
14579WAT     H243980   6.884   7.877   0.559
14580WAT      O43981   1.653   5.829   3.855
14580WAT     H143982   1.656   5.919   3.813
14580WAT     H243983   1.626   5.761   3.787
14581WAT      O43984   3.229   2.423   7.626
14581WAT     H143985   3.319   2.380   7.640
14581WAT     H243986   3.175   2.367   7.564
14582WAT      O43987   7.192   3.402   9.008
14582WAT     H143988   7.167   3.429   8.916
14582WAT     H243989   7.289   3.378   9.011
14583WAT      O43990   9.721   1.573   0.550
14583WAT     H143991   9.737   1.478   0.524
14583WAT     H243992   9.627   1.599   0.530
14584WAT      O43993   4.359   5.565   9.411
14584WAT     H143994   4.398   5.543   9.322
14584WAT     H243995   4.373   5.488   9.473
14585WAT      O43996   7.422   8.332   7.578
14585WAT     H143997   7.403   8.293   7.668
14585WAT     H243998   7.510   8.297   7.545
14586WAT      O43999   2.661   1.620   5.994
14586WAT     H144000   2.598   1.594   5.921
14586WAT     H244001   2.609   1.642   6.077
14587WAT      O44002   5.943   3.339   8.378
14587WAT     H144003   5.948   3.439   8.379
14587WAT     H244004   5.847   3.311   8.369
14588WAT      O44005   1.758   7.385   5.208
14588WAT     H144006   1.798   7.475   5.221
14588WAT     H244007   1.783   7.326   5.285
14589WAT      O44008   8.965   6.334   2.504
14589WAT     H144009   9.013   6.380   2.578
14589WAT     H244010   8.907   6.262   2.542
14590WAT      O44011   0.306   4.532   7.229
14590WAT     H144012   0.332   4.511   7.135
14590WAT     H244013   0.342   4.462   7.291
14591WAT      O44014   7.259   8.374   6.882
14591WAT     H144015   7.230   8.468   6.867
14591WAT     H244016   7.337   8.372   6.944
14592WAT      O44017   9.520   4.790   8.046
14592WAT     H144018   9.442   4.730   8.032
14592WAT     H244019   9.505   4.845   8.128
14593WAT      O44020   1.106   6.105   1.395
14593WAT     H144021   1.196   6.135   1.428
14593WAT     H244022   1.048   6.184   1.378
14594WAT      O44023   7.546   7.726   9.160
14594WAT     H144024   7.491   7.694   9.082
14594WAT     H244025   7.632   7.675   9.163
14595WAT      O44026   8.825   8.006   6.686
14595WAT     H144027   8.822   8.043   6.779
14595WAT     H244028   8.895   7.936   6.680
14596WAT      O44029   4.189   7.653   5.503
14596WAT     H144030   4.167   7.747   5.532
14596WAT     H244031   4.288   7.644   5.493
14597WAT      O44032   9.560   3.462   0.604
14597WAT     H144033   9.604   3.379   0.637
14597WAT     H244034   9.504   3.441   0.524
14598WAT      O44035   1.014   4.717   2.383
14598WAT     H144036   1.037   4.811   2.357
14598WAT     H244037   1.000   4.713   2.482
14599WAT      O44038   8.869   2.967   2.695
14599WAT     H144039   8.794   3.021   2.733
14599WAT     H244040   8.832   2.897   2.634
14600WAT      O44041   3.777   8.824   9.293
14600WAT     H144042   3.800   8.752   9.359
14600WAT     H244043   3.685   8.807   9.256
14601WAT      O44044   6.668   1.594   7.086
14601WAT     H144045   6.711   1.656   7.152
14601WAT     H244046   6.582   1.560   7.123
14602WAT      O44047   3.299   0.285   7.360
14602WAT     H144048   3.355   0.304   7.441
14602WAT     H244049   3.345   0.217   7.303
14603WAT      O44050   5.746   2.580   3.600
14603WAT     H144051   5.762   2.677   3.581
14603WAT     H244052   5.738   2.530   3.514
14604WAT      O44053   7.964   9.794   4.462
14604WAT     H144054   7.954   9.828   4.556
14604WAT     H244055   7.893   9.834   4.404
14605WAT      O44056   9.498   0.617   9.081
14605WAT     H144057   9.401   0.594   9.090
14605WAT     H244058   9.550   0.569   9.152
14606WAT      O44059   1.287   1.808   2.867
14606WAT     H144060   1.255   1.799   2.962
14606WAT     H244061   1.366   1.869   2.865
14607WAT      O44062   2.704   8.344   6.945
14607WAT     H144063   2.793   8.381   6.971
14607WAT     H244064   2.652   8.322   7.028
14608WAT      O44065   5.352   9.320   5.931
14608WAT     H144066   5.267   9.320   5.878
14608WAT     H244067   5.430   9.307   5.870
14609WAT      O44068   9.749   4.408   6.299
14609WAT     H144069   9.824   4.375   6.355
14609WAT     H244070   9.743   4.354   6.215
14610WAT      O44071   6.822   2.300   2.545
14610WAT     H144072   6.816   2.234   2.620
14610WAT     H244073   6.909   2.290   2.498
14611WAT      O44074   5.635   0.566   7.890
14611WAT     H144075   5.585   0.534   7.971
14611WAT     H244076   5.645   0.491   7.825
14612WAT      O44077   2.595   2.387   9.169
14612WAT     H144078   2.518   2.325   9.181
14612WAT     H244079   2.634   2.375   9.077
14613WAT      O44080   7.164   8.026   3.037
14613WAT     H144081   7.168   8.011   2.939
14613WAT     H244082   7.238   7.974   3.081
14614WAT      O44083   8.148   1.283   5.365
14614WAT     H144084   8.213   1.248   5.432
14614WAT     H244085   8.066   1.315   5.411
14615WAT      O44086   0.066   5.829   1.212
14615WAT     H144087  -0.032   5.837   1.193
14615WAT     H244088   0.116   5.892   1.154
14616WAT      O44089   9.632   1.881   7.734
14616WAT     H144090   9.569   1.954   7.762
14616WAT     H244091   9.708   1.875   7.799
14617WAT      O44092   7.902   6.372   0.675
14617WAT     H144093   7.880   6.367   0.773
14617WAT     H244094   7.893   6.466   0.644
14618WAT      O44095   2.964   1.579   1.138
14618WAT     H144096   2.866   1.592   1.151
14618WAT     H244097   3.003   1.661   1.095
14619WAT      O44098   3.142   8.425   3.263
14619WAT     H144099   3.221   8.381   3.219
14619WAT     H244100   3.175   8.484   3.337
14620WAT      O44101   2.431   3.043   4.084
14620WAT     H144102   2.531   3.049   4.093
14620WAT     H244103   2.407   2.965   4.027
14621WAT      O44104   3.239   6.270   5.680
14621WAT     H144105   3.186   6.355   5.678
14621WAT     H244106   3.299   6.266   5.600
14622WAT      O44107   8.505   1.588   8.881
14622WAT     H144108   8.548   1.537   8.956
14622WAT     H244109   8.488   1.527   8.804
14623WAT      O44110   5.069   1.107   9.169
14623WAT     H144111   5.026   1.191   9.202
14623WAT     H244112   5.000   1.035   9.160
14624WAT      O44113   9.655   8.253   4.199
14624WAT     H144114   9.674   8.158   4.223
14624WAT     H244115   9.725   8.313   4.239
14625WAT      O44116   1.631   0.061   0.986
14625WAT     H144117   1.641   0.159   1.005
14625WAT     H244118   1.722   0.021   0.976
14626WAT      O44119   6.106   0.571   5.328
14626WAT     H144120   6.119   0.638   5.254
14626WAT     H244121   6.104   0.619   5.416
14627WAT      O44122   3.265   4.020   3.170
14627WAT     H144123   3.333   3.960   3.128
14627WAT     H244124   3.303   4.062   3.252
14628WAT      O44125   8.441   9.783   2.296
14628WAT     H144126   8.386   9.705   2.327
14628WAT     H244127   8.381   9.857   2.267
14629WAT      O44128   4.298   5.667   4.512
14629WAT     H144129   4.294   5.689   4.610
14629WAT     H244130   4.393   5.667   4.482
14630WAT      O44131   3.613   7.318   8.973
14630WAT     H144132   3.514   7.302   8.968
14630WAT     H244133   3.653   7.305   8.882
14631WAT      O44134   7.848   2.168   3.544
14631WAT     H144135   7.795   2.084   3.556
14631WAT     H244136   7.819   2.236   3.612
14632WAT      O44137   9.056   0.622   8.581
14632WAT     H144138   9.111   0.648   8.501
14632WAT     H244139   9.050   0.700   8.644
14633WAT      O44140   7.988   5.808   1.273
14633WAT     H144141   7.999   5.713   1.244
14633WAT     H244142   7.998   5.814   1.372
14634WAT      O44143   8.126   5.451   0.303
14634WAT     H144144   8.224   5.464   0.289
14634WAT     H244145   8.104   5.354   0.295
14635WAT      O44146   0.253   5.174   9.054
14635WAT     H144147   0.346   5.146   9.077
14635WAT     H244148   0.202   5.191   9.139
14636WAT      O44149   7.204   8.616   2.326
14636WAT     H144150   7.162   8.541   2.377
14636WAT     H244151   7.259   8.672   2.388
14637WAT      O44152   9.456   6.885   1.707
14637WAT     H144153   9.484   6.801   1.752
14637WAT     H244154   9.523   6.957   1.725
14638WAT      O44155   1.445   3.669   5.975
14638WAT     H144156   1.509   3.595   5.955
14638WAT     H244157   1.463   3.746   5.914
14639WAT      O44158   7.691   6.855   1.844
14639WAT     H144159   7.758   6.790   1.882
14639WAT     H244160   7.670   6.830   1.750
14640WAT      O44161   2.904   7.437   8.230
14640WAT     H144162   2.810   7.431   8.264
14640WAT     H244163   2.920   7.528   8.194
14641WAT      O44164   1.097   2.440   6.903
14641WAT     H144165   1.042   2.520   6.877
14641WAT     H244166   1.114   2.383   6.823
14642WAT      O44167   6.521   1.995   9.663
14642WAT     H144168   6.470   1.909   9.671
14642WAT     H244169   6.507   2.050   9.744
14643WAT      O44170   3.006   2.850   9.485
14643WAT     H144171   2.940   2.859   9.560
14643WAT     H244172   3.046   2.939   9.465
14644WAT      O44173   6.615   2.516   1.743
14644WAT     H144174   6.606   2.608   1.781
14644WAT     H244175   6.636   2.451   1.817
14645WAT      O44176   3.232   6.409   9.574
14645WAT     H144177   3.276   6.392   9.663
14645WAT     H244178   3.147   6.357   9.569
14646WAT      O44179   0.323   3.136   0.459
14646WAT     H144180   0.355   3.224   0.492
14646WAT     H244181   0.388   3.099   0.393
14647WAT      O44182   0.549  -0.000   0.901
14647WAT     H144183   0.584   0.060   0.973
14647WAT     H244184   0.475   0.046   0.851
14648WAT      O44185   8.038   5.190   1.470
14648WAT     H144186   8.114   5.175   1.534
14648WAT     H244187   8.075   5.209   1.379
14649WAT      O44188   5.036   1.571   8.482
14649WAT     H144189   4.961   1.568   8.416
14649WAT     H244190   5.090   1.487   8.475
14650WAT      O44191   1.041   6.535   8.518
14650WAT     H144192   1.091   6.620   8.535
14650WAT     H244193   0.952   6.556   8.477
14651WAT      O44194   0.972   7.861   8.062
14651WAT     H144195   0.911   7.793   8.103
14651WAT     H244196   0.953   7.951   8.101
14652WAT      O44197   3.523   0.446   8.941
14652WAT     H144198   3.445   0.508   8.931
14652WAT     H244199   3.526   0.411   9.035
14653WAT      O44200   5.181   6.376   5.378
14653WAT     H144201   5.109   6.396   5.444
14653WAT     H244202   5.146   6.311   5.310
14654WAT      O44203   1.307   1.985   9.781
14654WAT     H144204   1.359   1.998   9.696
14654WAT     H244205   1.344   2.045   9.852
14655WAT      O44206   3.902   0.939   6.718
14655WAT     H144207   3.949   1.027   6.711
14655WAT     H244208   3.814   0.952   6.763
14656WAT      O44209   9.241   5.289   4.859
14656WAT     H144210   9.250   5.198   4.818
14656WAT     H244211   9.176   5.343   4.806
14657WAT      O44212   7.286   6.090   2.573
14657WAT     H144213   7.335   6.108   2.488
14657WAT     H244214   7.334   6.019   2.625
14658WAT      O44215   4.546   0.337   0.626
14658WAT     H144216   4.512   0.280   0.551
14658WAT     H244217   4.640   0.365   0.607
14659WAT      O44218   8.871   3.739   9.025
14659WAT     H144219   8.806   3.786   9.086
14659WAT     H244220   8.964   3.764   9.049
14660WAT      O44221   2.920   8.291   8.152
14660WAT     H144222   2.948   8.386   8.142
14660WAT     H244223   2.930   8.262   8.247
14661WAT      O44224   8.004   7.144   2.392
14661WAT     H144225   7.928   7.196   2.432
14661WAT     H244226   8.017   7.059   2.443
14662WAT      O44227   5.860   6.847   1.364
14662WAT     H144228   5.773   6.885   1.333
14662WAT     H244229   5.903   6.909   1.430
14663WAT      O44230   5.465   0.802   8.696
14663WAT     H144231   5.470   0.847   8.785
14663WAT     H244232   5.527   0.724   8.695
14664WAT      O44233   9.390   9.331   5.068
14664WAT     H144234   9.327   9.279   5.127
14664WAT     H244235   9.463   9.369   5.124
14665WAT      O44236   1.200   1.593   4.463
14665WAT     H144237   1.136   1.607   4.387
14665WAT     H244238   1.218   1.496   4.475
14666WAT      O44239   6.234   4.100   1.413
14666WAT     H144240   6.229   4.008   1.454
14666WAT     H244241   6.283   4.161   1.475
14667WAT      O44242   5.297   7.997   9.692
14667WAT     H144243   5.267   8.010   9.597
14667WAT     H244244   5.266   8.073   9.748
14668WAT      O44245   2.711   1.304   4.386
14668WAT     H144246   2.717   1.264   4.477
14668WAT     H244247   2.633   1.265   4.337
14669WAT      O44248   3.289   3.189   0.829
14669WAT     H144249   3.311   3.177   0.925
14669WAT     H244250   3.311   3.106   0.778
14670WAT      O44251   0.663   6.483   9.762
14670WAT     H144252   0.701   6.533   9.840
14670WAT     H244253   0.653   6.387   9.785
14671WAT      O44254   4.141   7.513   4.767
14671WAT     H144255   4.129   7.574   4.846
14671WAT     H244256   4.238   7.494   4.753
14672WAT      O44257   4.340   7.168   0.567
14672WAT     H144258   4.397   7.151   0.486
14672WAT     H244259   4.390   7.227   0.631
14673WAT      O44260   7.835   8.002   3.556
14673WAT     H144261   7.923   8.000   3.509
14673WAT     H244262   7.845   7.966   3.649
14674WAT      O44263   4.646   8.750   4.667
14674WAT     H144264   4.651   8.807   4.749
14674WAT     H244265   4.572   8.782   4.609
14675WAT      O44266   8.809   2.800   1.844
14675WAT     H144267   8.762   2.767   1.926
14675WAT     H244268   8.885   2.859   1.870
14676WAT      O44269   6.157   6.180   4.063
14676WAT     H144270   6.065   6.220   4.058
14676WAT     H244271   6.151   6.091   4.109
14677WAT      O44272   2.021   6.121   5.107
14677WAT     H144273   2.025   6.028   5.143
14677WAT     H244274   1.985   6.182   5.177
14678WAT      O44275   3.451   6.696   2.292
14678WAT     H144276   3.500   6.687   2.205
14678WAT     H244277   3.354   6.674   2.277
14679WAT      O44278   7.097   4.812   9.605
14679WAT     H144279   7.009   4.852   9.579
14679WAT     H244280   7.147   4.786   9.522
14680WAT      O44281   0.039   7.463   3.814
14680WAT     H144282   0.051   7.493   3.909
14680WAT     H244283   0.093   7.521   3.754
14681WAT      O44284   9.628   8.761   6.601
14681WAT     H144285   9.643   8.859   6.614
14681WAT     H244286   9.679   8.711   6.671
14682WAT      O44287   0.502   0.703   4.850
14682WAT     H144288   0.521   0.605   4.863
14682WAT     H244289   0.406   0.715   4.824
14683WAT      O44290   5.313   2.887   8.219
14683WAT     H144291   5.389   2.822   8.218
14683WAT     H244292   5.310   2.934   8.307
14684WAT      O44293   9.745   2.775   5.435
14684WAT     H144294   9.757   2.814   5.344
14684WAT     H244295   9.725   2.678   5.427
14685WAT      O44296   9.228   9.110   9.169
14685WAT     H144297   9.236   9.158   9.257
14685WAT     H244298   9.143   9.137   9.124
14686WAT      O44299   1.128   6.110   2.044
14686WAT     H144300   1.168   6.029   1.999
14686WAT     H244301   1.144   6.190   1.987
14687WAT      O44302   5.379   2.459   5.149
14687WAT     H144303   5.290   2.474   5.193
14687WAT     H244304   5.367   2.450   5.050
14688WAT      O44305   4.028   5.490   1.566
14688WAT     H144306   3.970   5.553   1.618
14688WAT     H244307   4.078   5.431   1.629
14689WAT      O44308   4.084   8.117   2.393
14689WAT     H144309   4.103   8.094   2.298
14689WAT     H244310   4.072   8.033   2.446
14690WAT      O44311   5.961   4.573   9.379
14690WAT     H144312   6.028   4.647   9.368
14690WAT     H244313   5.874   4.601   9.339
14691WAT      O44314   5.202   1.366   6.976
14691WAT     H144315   5.242   1.274   6.972
14691WAT     H244316   5.110   1.361   7.013
14692WAT      O44317   1.054   8.951   4.956
14692WAT     H144318   0.970   8.898   4.939
14692WAT     H244319   1.068   8.959   5.055
14693WAT      O44320   0.318   5.267   8.476
14693WAT     H144321   0.224   5.286   8.447
14693WAT     H244322   0.369   5.352   8.481
14694WAT      O44323   9.720   7.721   4.781
14694WAT     H144324   9.809   7.735   4.738
14694WAT     H244325   9.714   7.627   4.815
14695WAT      O44326   1.124   3.589   2.014
14695WAT     H144327   1.084   3.501   2.039
14695WAT     H244328   1.058   3.641   1.959
14696WAT      O44329   2.199   4.385   7.831
14696WAT     H144330   2.100   4.396   7.835
14696WAT     H244331   2.244   4.461   7.879
14697WAT      O44332   5.096   3.029   6.666
14697WAT     H144333   5.020   3.080   6.627
14697WAT     H244334   5.063   2.940   6.699
14698WAT      O44335   5.511   7.736   7.988
14698WAT     H144336   5.522   7.832   8.013
14698WAT     H244337   5.516   7.679   8.070
14699WAT      O44338   7.346   7.468   9.215
14699WAT     H144339   7.351   7.527   9.135
14699WAT     H244340   7.257   7.421   9.215
14700WAT      O44341   8.072   9.675   2.843
14700WAT     H144342   8.076   9.771   2.869
14700WAT     H244343   7.976   9.647   2.834
14701WAT      O44344   1.708   8.253   6.885
14701WAT     H144345   1.752   8.270   6.973
14701WAT     H244346   1.777   8.250   6.813
14702WAT      O44347   8.003   6.674   3.937
14702WAT     H144348   8.091   6.663   3.982
14702WAT     H244349   7.937   6.713   4.002
14703WAT      O44350   6.078   8.627   7.239
14703WAT     H144351   5.983   8.639   7.268
14703WAT     H244352   6.081   8.575   7.154
14704WAT      O44353   5.954   3.431   2.104
14704WAT     H144354   5.925   3.414   2.009
14704WAT     H244355   5.984   3.526   2.113
14705WAT      O44356   4.134   3.570   8.436
14705WAT     H144357   4.123   3.504   8.361
14705WAT     H244358   4.226   3.562   8.474
14706WAT      O44359   9.299   9.040   6.636
14706WAT     H144360   9.224   8.986   6.676
14706WAT     H244361   9.291   9.135   6.665
14707WAT      O44362   8.554   5.386   5.797
14707WAT     H144363   8.629   5.413   5.737
14707WAT     H244364   8.551   5.286   5.803
14708WAT      O44365   6.027   6.057   7.243
14708WAT     H144366   5.938   6.090   7.277
14708WAT     H244367   6.089   6.135   7.233
14709WAT      O44368   7.346   3.635   6.969
14709WAT     H144369   7.376   3.556   7.023
14709WAT     H244370   7.352   3.718   7.025
14710WAT      O44371   8.534   2.026   7.384
14710WAT     H144372   8.582   1.953   7.336
14710WAT     H244373   8.472   1.987   7.452
14711WAT      O44374   9.516   8.734   4.569
14711WAT     H144375   9.454   8.781   4.632
14711WAT     H244376   9.542   8.797   4.496
14712WAT      O44377   4.007   5.343   2.745
14712WAT     H144378   4.101   5.368   2.720
14712WAT     H244379   3.949   5.424   2.742
14713WAT      O44380   5.610   9.122   7.497
14713WAT     H144381   5.512   9.105   7.483
14713WAT     H244382   5.656   9.035   7.516
14714WAT      O44383   7.236   4.306   8.442
14714WAT     H144384   7.228   4.213   8.478
14714WAT     H244385   7.331   4.324   8.415
14715WAT      O44386   7.477   4.609   2.663
14715WAT     H144387   7.552   4.557   2.622
14715WAT     H244388   7.510   4.654   2.746
14716WAT      O44389   7.753   5.345   0.247
14716WAT     H144390   7.769   5.253   0.282
14716WAT     H244391   7.763   5.344   0.147
14717WAT      O44392   4.510   0.790   8.913
14717WAT     H144393   4.561   0.725   8.857
14717WAT     H244394   4.428   0.819   8.864
14718WAT      O44395   0.714   4.530   1.229
14718WAT     H144396   0.713   4.545   1.130
14718WAT     H244397   0.805   4.498   1.257
14719WAT      O44398   9.372   6.779   2.186
14719WAT     H144399   9.455   6.800   2.237
14719WAT     H244400   9.293   6.785   2.247
14720WAT      O44401   9.784   3.840   5.522
14720WAT     H144402   9.801   3.784   5.603
14720WAT     H244403   9.822   3.931   5.536
14721WAT      O44404   5.790   0.553   9.055
14721WAT     H144405   5.789   0.495   8.974
14721WAT     H244406   5.885   0.570   9.083
14722WAT      O44407   3.720   3.738   4.443
14722WAT     H144408   3.746   3.725   4.538
14722WAT     H244409   3.667   3.823   4.434
14723WAT      O44410   7.041   9.221   4.538
14723WAT     H144411   7.086   9.154   4.597
14723WAT     H244412   7.070   9.206   4.443
14724WAT      O44413   3.359   2.833   5.326
14724WAT     H144414   3.337   2.740   5.295
14724WAT     H244415   3.309   2.853   5.410
14725WAT      O44416   4.048   1.709   2.233
14725WAT     H144417   3.962   1.661   2.216
14725WAT     H244418   4.105   1.654   2.294
14726WAT      O44419   2.024   9.101   0.615
14726WAT     H144420   2.013   9.186   0.667
14726WAT     H244421   2.040   9.123   0.519
14727WAT      O44422   0.409   3.188   5.593
14727WAT     H144423   0.424   3.237   5.679
14727WAT     H244424   0.489   3.134   5.570
14728WAT      O44425   3.257   8.141   5.550
14728WAT     H144426   3.273   8.074   5.477
14728WAT     H244427   3.178   8.198   5.526
14729WAT      O44428   1.237   9.514   1.846
14729WAT     H144429   1.247   9.595   1.904
14729WAT     H244430   1.243   9.542   1.750
14730WAT      O44431   9.013   6.211   9.882
14730WAT     H144432   8.931   6.269   9.880
14730WAT     H244433   8.992   6.125   9.929
14731WAT      O44434   5.310   7.950   3.505
14731WAT     H144435   5.362   7.866   3.489
14731WAT     H244436   5.367   8.016   3.553
14732WAT      O44437   6.708   2.981   4.980
14732WAT     H144438   6.766   2.935   4.913
14732WAT     H244439   6.667   3.062   4.938
14733WAT      O44440   5.133   3.871   6.337
14733WAT     H144441   5.074   3.811   6.393
14733WAT     H244442   5.147   3.957   6.386
14734WAT      O44443   7.613   1.995   6.525
14734WAT     H144444   7.588   2.072   6.584
14734WAT     H244445   7.530   1.951   6.490
14735WAT      O44446   3.732   7.297   7.634
14735WAT     H144447   3.671   7.350   7.575
14735WAT     H244448   3.825   7.301   7.597
14736WAT      O44449   8.023   8.662   1.219
14736WAT     H144450   8.044   8.576   1.266
14736WAT     H244451   7.934   8.656   1.175
14737WAT      O44452   2.776   0.111   5.659
14737WAT     H144453   2.847   0.169   5.619
14737WAT     H244454   2.686   0.151   5.641
14738WAT      O44455   9.794   1.792   3.847
14738WAT     H144456   9.887   1.773   3.817
14738WAT     H244457   9.729   1.752   3.783
14739WAT      O44458   5.619   5.030   1.960
14739WAT     H144459   5.652   4.972   1.885
14739WAT     H244460   5.530   4.997   1.991
14740WAT      O44461   4.932   2.862   1.350
14740WAT     H144462   4.834   2.882   1.346
14740WAT     H244463   4.949   2.771   1.310
14741WAT      O44464   0.902   6.009   4.112
14741WAT     H144465   0.949   6.091   4.146
14741WAT     H244466   0.949   5.927   4.145
14742WAT      O44467   8.318   0.645   9.598
14742WAT     H144468   8.383   0.715   9.569
14742WAT     H244469   8.359   0.586   9.667
14743WAT      O44470   0.706   4.952   0.545
14743WAT     H144471   0.756   4.976   0.462
14743WAT     H244472   0.762   4.892   0.602
14744WAT      O44473   3.686   5.666   2.523
14744WAT     H144474   3.663   5.682   2.427
14744WAT     H244475   3.695   5.754   2.570
14745WAT      O44476   1.921   8.746   6.975
14745WAT     H144477   1.856   8.822   6.980
14745WAT     H244478   1.900   8.691   6.895
14746WAT      O44479   6.679   4.805   4.774
14746WAT     H144480   6.773   4.822   4.803
14746WAT     H244481   6.654   4.869   4.702
14747WAT      O44482   3.332   8.892   0.975
14747WAT     H144483   3.368   8.799   0.974
14747WAT     H244484   3.321   8.924   0.881
14748WAT      O44485   1.924   6.641   1.077
14748WAT     H144486   1.896   6.737   1.077
14748WAT     H244487   2.023   6.635   1.091
14749WAT      O44488   8.948   4.850   8.046
14749WAT     H144489   9.039   4.808   8.049
14749WAT     H244490   8.957   4.946   8.022
14750WAT      O44491   2.150   1.472   6.296
14750WAT     H144492   2.202   1.420   6.363
14750WAT     H244493   2.195   1.560   6.280
14751WAT      O44494   0.184   1.310   9.831
14751WAT     H144495   0.120   1.243   9.867
14751WAT     H244496   0.253   1.332   9.901
14752WAT      O44497   8.995   7.809   7.264
14752WAT     H144498   9.010   7.878   7.193
14752WAT     H244499   8.932   7.845   7.333
14753WAT      O44500   9.580   6.502   4.361
14753WAT     H144501   9.554   6.508   4.458
14753WAT     H244502   9.663   6.447   4.353
14754WAT      O44503   0.380   1.979   1.689
14754WAT     H144504   0.463   1.958   1.742
14754WAT     H244505   0.339   1.894   1.657
14755WAT      O44506   2.027   3.918   1.481
14755WAT     H144507   1.995   3.981   1.552
14755WAT     H244508   2.125   3.932   1.467
14756WAT      O44509   3.924   0.999   5.728
14756WAT     H144510   3.953   0.905   5.710
14756WAT     H244511   3.929   1.017   5.827
14757WAT      O44512   8.650   8.878   6.033
14757WAT     H144513   8.642   8.857   5.936
14757WAT     H244514   8.728   8.828   6.072
14758WAT      O44515   9.524   0.372   6.773
14758WAT     H144516   9.610   0.408   6.739
14758WAT     H244517   9.499   0.290   6.723
14759WAT      O44518   1.248   6.155   3.655
14759WAT     H144519   1.165   6.178   3.605
14759WAT     H244520   1.271   6.059   3.639
14760WAT      O44521   7.942   9.372   1.277
14760WAT     H144522   7.961   9.344   1.371
14760WAT     H244523   7.996   9.453   1.255
14761WAT      O44524   3.511   7.522   2.540
14761WAT     H144525   3.541   7.616   2.523
14761WAT     H244526   3.582   7.473   2.590
14762WAT      O44527   4.309   5.827   7.162
14762WAT     H144528   4.399   5.820   7.119
14762WAT     H244529   4.243   5.772   7.111
14763WAT      O44530   2.761   4.357   7.472
14763WAT     H144531   2.708   4.345   7.388
14763WAT     H244532   2.752   4.451   7.504
14764WAT      O44533   0.420   6.766   3.226
14764WAT     H144534   0.462   6.853   3.252
14764WAT     H244535   0.328   6.760   3.266
14765WAT      O44536   1.646   5.109   9.687
14765WAT     H144537   1.630   5.185   9.624
14765WAT     H244538   1.566   5.049   9.689
14766WAT      O44539   8.582   4.438   1.724
14766WAT     H144540   8.525   4.492   1.662
14766WAT     H244541   8.529   4.415   1.806
14767WAT      O44542   3.110   0.697   4.383
14767WAT     H144543   3.161   0.783   4.389
14767WAT     H244544   3.171   0.623   4.356
14768WAT      O44545   5.472   8.179   9.784
14768WAT     H144546   5.441   8.111   9.717
14768WAT     H244547   5.514   8.256   9.736
14769WAT      O44548   1.233   7.476   9.456
14769WAT     H144549   1.250   7.540   9.531
14769WAT     H244550   1.285   7.505   9.376
14770WAT      O44551   7.293   7.337   1.102
14770WAT     H144552   7.205   7.313   1.063
14770WAT     H244553   7.366   7.289   1.053
14771WAT      O44554   8.086   9.386   9.099
14771WAT     H144555   8.019   9.341   9.159
14771WAT     H244556   8.178   9.356   9.124
14772WAT      O44557   7.485   4.899   1.679
14772WAT     H144558   7.535   4.812   1.671
14772WAT     H244559   7.405   4.896   1.618
14773WAT      O44560   1.737   2.045   0.306
14773WAT     H144561   1.808   2.076   0.369
14773WAT     H244562   1.677   1.979   0.353
14774WAT      O44563   4.901   7.176   8.286
14774WAT     H144564   4.949   7.107   8.340
14774WAT     H244565   4.828   7.217   8.341
14775WAT      O44566   9.703   0.691   6.357
14775WAT     H144567   9.709   0.601   6.400
14775WAT     H244568   9.680   0.681   6.261
14776WAT      O44569   8.540   2.886   7.284
14776WAT     H144570   8.593   2.960   7.243
14776WAT     H244571   8.553   2.802   7.230
14777WAT      O44572   2.854   3.862   9.155
14777WAT     H144573   2.800   3.903   9.229
14777WAT     H244574   2.941   3.911   9.146
14778WAT      O44575   9.285   5.564   4.666
14778WAT     H144576   9.193   5.526   4.678
14778WAT     H244577   9.350   5.489   4.651
14779WAT      O44578   6.482   7.034   8.612
14779WAT     H144579   6.567   7.014   8.564
14779WAT     H244580   6.493   7.116   8.668
14780WAT      O44581   0.373   8.838   6.061
14780WAT     H144582   0.338   8.761   6.007
14780WAT     H244583   0.465   8.817   6.093
14781WAT      O44584   6.849   7.588   6.224
14781WAT     H144585   6.857   7.606   6.126
14781WAT     H244586   6.861   7.490   6.241
14782WAT      O44587   8.784   4.256   9.463
14782WAT     H144588   8.762   4.193   9.538
14782WAT     H244589   8.880   4.283   9.469
14783WAT      O44590   7.196   2.737   0.018
14783WAT     H144591   7.100   2.763   0.008
14783WAT     H244592   7.214   2.710   0.112
14784WAT      O44593   5.665   7.498   9.822
14784WAT     H144594   5.685   7.595   9.812
14784WAT     H244595   5.568   7.485   9.844
14785WAT      O44596   8.705   0.885   3.337
14785WAT     H144597   8.761   0.908   3.257
14785WAT     H244598   8.741   0.933   3.418
14786WAT      O44599   2.768   0.190   1.008
14786WAT     H144600   2.865   0.173   1.028
14786WAT     H244601   2.714   0.165   1.088
14787WAT      O44602   7.005   6.037   2.323
14787WAT     H144603   7.024   5.957   2.380
14787WAT     H244604   7.055   6.116   2.358
14788WAT      O44605   4.925   8.930   5.100
14788WAT     H144606   5.017   8.911   5.066
14788WAT     H244607   4.874   8.844   5.107
14789WAT      O44608   3.084   3.551   6.443
14789WAT     H144609   3.177   3.562   6.408
14789WAT     H244610   3.038   3.479   6.392
14790WAT      O44611   4.268   8.347   6.849
14790WAT     H144612   4.322   8.263   6.853
14790WAT     H244613   4.326   8.426   6.872
14791WAT      O44614   4.685   2.811   0.975
14791WAT     H144615   4.693   2.727   1.030
14791WAT     H244616   4.707   2.790   0.880
14792WAT      O44617   4.736   3.823   7.455
14792WAT     H144618   4.735   3.753   7.384
14792WAT     H244619   4.647   3.868   7.460
14793WAT      O44620   6.720   8.964   3.222
14793WAT     H144621   6.763   8.924   3.303
14793WAT     H244622   6.623   8.980   3.240
14794WAT      O44623   3.431   2.239   0.452
14794WAT     H144624   3.435   2.335   0.423
14794WAT     H244625   3.522   2.199   0.445
14795WAT      O44626   2.674   4.159   7.655
14795WAT     H144627   2.732   4.181   7.733
14795WAT     H244628   2.696   4.219   7.578
14796WAT      O44629   8.020   6.046   4.002
14796WAT     H144630   8.043   6.086   4.091
14796WAT     H244631   8.057   6.103   3.929
14797WAT      O44632   8.833   8.456   2.686
14797WAT     H144633   8.811   8.497   2.774
14797WAT     H244634   8.784   8.370   2.675
14798WAT      O44635   3.009   6.538   3.841
14798WAT     H144636   3.108   6.546   3.827
14798WAT     H244637   2.962   6.558   3.755
14799WAT      O44638   2.225   3.139   1.502
14799WAT     H144639   2.314   3.147   1.456
14799WAT     H244640   2.163   3.208   1.464
14800WAT      O44641   6.399   5.458   4.952
14800WAT     H144642   6.337   5.515   4.897
14800WAT     H244643   6.447   5.395   4.891
14801WAT      O44644   0.642   4.493   7.578
14801WAT     H144645   0.581   4.422   7.542
14801WAT     H244646   0.707   4.452   7.642
14802WAT      O44647   2.772   2.943   4.746
14802WAT     H144648   2.819   2.884   4.811
14802WAT     H244649   2.765   3.035   4.783
14803WAT      O44650   7.888   7.500   8.198
14803WAT     H144651   7.970   7.523   8.146
14803WAT     H244652   7.815   7.564   8.175
14804WAT      O44653   9.258   2.065   7.976
14804WAT     H144654   9.209   2.139   8.022
14804WAT     H244655   9.283   1.995   8.043
14805WAT      O44656   0.504   6.368   1.669
14805WAT     H144657   0.435   6.309   1.712
14805WAT     H244658   0.465   6.458   1.650
14806WAT      O44659   9.689   4.389   7.671
14806WAT     H144660   9.751   4.338   7.611
14806WAT     H244661   9.694   4.352   7.764
14807WAT      O44662   5.085   1.643   1.896
14807WAT     H144663   5.037   1.624   1.810
14807WAT     H244664   5.022   1.681   1.963
14808WAT      O44665   6.467   1.966   7.755
14808WAT     H144666   6.426   1.898   7.816
14808WAT     H244667   6.501   2.043   7.809
14809WAT      O44668   2.999   5.519   0.507
14809WAT     H144669   2.972   5.424   0.521
14809WAT     H244670   3.090   5.522   0.466
14810WAT      O44671   0.708   4.649   9.179
14810WAT     H144672   0.676   4.743   9.181
14810WAT     H244673   0.630   4.586   9.172
14811WAT      O44674   6.345   0.735   0.965
14811WAT     H144675   6.249   0.752   0.985
14811WAT     H244676   6.372   0.785   0.883
14812WAT      O44677   0.915   9.001   9.289
14812WAT     H144678   1.002   8.997   9.242
14812WAT     H244679   0.853   8.932   9.251
14813WAT      O44680   5.741   2.368   8.354
14813WAT     H144681   5.746   2.442   8.287
14813WAT     H244682   5.723   2.407   8.445
14814WAT      O44683   9.057   2.091   1.616
14814WAT     H144684   9.009   2.006   1.637
14814WAT     H244685   9.144   2.070   1.571
14815WAT      O44686   3.508   2.370   5.543
14815WAT     H144687   3.534   2.461   5.510
14815WAT     H244688   3.430   2.337   5.491
14816WAT      O44689   1.246   4.440   8.596
14816WAT     H144690   1.307   4.475   8.668
14816WAT     H244691   1.157   4.486   8.603
14817WAT      O44692   6.624   8.051   7.570
14817WAT     H144693   6.580   7.962   7.557
14817WAT     H244694   6.587   8.116   7.504
14818WAT      O44695   1.746   6.460   7.824
14818WAT     H144696   1.702   6.393   7.763
14818WAT     H244697   1.830   6.421   7.861
14819WAT      O44698   8.568   4.397   8.762
14819WAT     H144699   8.495   4.382   8.695
14819WAT     H244700   8.578   4.495   8.779
14820WAT      O44701   8.965   2.793   7.788
14820WAT     H144702   8.908   2.774   7.709
14820WAT     H244703   8.943   2.883   7.824
14821WAT      O44704   7.164   9.625   2.345
14821WAT     H144705   7.069   9.656   2.344
14821WAT     H244706   7.219   9.681   2.282
14822WAT      O44707   1.084   7.300   3.453
14822WAT     H144708   1.085   7.374   3.521
14822WAT     H244709   1.175   7.260   3.448
14823WAT      O44710   2.316   2.306   6.037
14823WAT     H144711   2.283   2.398   6.016
14823WAT     H244712   2.334   2.299   6.135
14824WAT      O44713   3.240   3.197   4.887
14824WAT     H144714   3.234   3.233   4.980
14824WAT     H244715   3.263   3.271   4.824
14825WAT      O44716   5.215   3.929   7.897
14825WAT     H144717   5.185   3.837   7.923
14825WAT     H244718   5.218   3.987   7.978
14826WAT      O44719   2.472   8.149   0.645
14826WAT     H144720   2.557   8.202   0.634
14826WAT     H244721   2.397   8.198   0.601
14827WAT      O44722   2.807   8.688   5.190
14827WAT     H144723   2.756   8.690   5.104
14827WAT     H244724   2.846   8.778   5.208
14828WAT      O44725   4.445   0.715   4.104
14828WAT     H144726   4.399   0.686   4.021
14828WAT     H244727   4.527   0.768   4.081
14829WAT      O44728   3.088   7.773   1.729
14829WAT     H144729   3.003   7.722   1.740
14829WAT     H244730   3.149   7.755   1.806
14830WAT      O44731   6.668   9.802   5.422
14830WAT     H144732   6.600   9.730   5.411
14830WAT     H244733   6.651   9.874   5.355
14831WAT      O44734   5.755   5.724   9.329
14831WAT     H144735   5.662   5.733   9.365
14831WAT     H244736   5.757   5.651   9.261
14832WAT      O44737   3.261   0.286   3.895
14832WAT     H144738   3.176   0.317   3.852
14832WAT     H244739   3.335   0.349   3.872
14833WAT      O44740   1.869   1.403   0.968
14833WAT     H144741   1.809   1.332   0.931
14833WAT     H244742   1.927   1.438   0.895
14834WAT      O44743   3.465   9.006   8.376
14834WAT     H144744   3.493   8.912   8.397
14834WAT     H244745   3.494   9.067   8.449
14835WAT      O44746   3.428   4.414   0.263
14835WAT     H144747   3.490   4.344   0.299
14835WAT     H244748   3.345   4.371   0.230
14836WAT      O44749   1.911   4.520   1.873
14836WAT     H144750   1.872   4.586   1.808
14836WAT     H244751   2.001   4.550   1.901
14837WAT      O44752   7.715   3.185   2.614
14837WAT     H144753   7.688   3.280   2.598
14837WAT     H244754   7.778   3.155   2.543
14838WAT      O44755   4.545   8.142   5.176
14838WAT     H144756   4.580   8.064   5.227
14838WAT     H244757   4.621   8.198   5.144
14839WAT      O44758   3.495   4.559   8.302
14839WAT     H144759   3.582   4.551   8.349
14839WAT     H244760   3.498   4.510   8.215
14840WAT      O44761   9.615   2.408   9.128
14840WAT     H144762   9.654   2.494   9.096
14840WAT     H244763   9.688   2.342   9.147
14841WAT      O44764   3.791   2.096   8.073
14841WAT     H144765   3.792   2.133   7.980
14841WAT     H244766   3.698   2.094   8.108
14842WAT      O44767   6.134   4.859   9.636
14842WAT     H144768   6.174   4.946   9.663
14842WAT     H244769   6.061   4.875   9.569
14843WAT      O44770   5.858   4.142   5.163
14843WAT     H144771   5.863   4.213   5.092
14843WAT     H244772   5.848   4.053   5.120
14844WAT      O44773   4.486   6.822   8.525
14844WAT     H144774   4.488   6.728   8.561
14844WAT     H244775   4.578   6.848   8.497
14845WAT      O44776   2.278   0.478   2.055
14845WAT     H144777   2.356   0.421   2.078
14845WAT     H244778   2.216   0.484   2.133
14846WAT      O44779   5.462   4.444   4.802
14846WAT     H144780   5.465   4.377   4.728
14846WAT     H244781   5.506   4.529   4.773
14847WAT      O44782   7.598   5.729   2.897
14847WAT     H144783   7.583   5.642   2.942
14847WAT     H244784   7.587   5.804   2.963
14848WAT      O44785   3.593   1.044   4.363
14848WAT     H144786   3.677   1.096   4.350
14848WAT     H244787   3.602   0.984   4.442
14849WAT      O44788   7.490   8.478   1.706
14849WAT     H144789   7.542   8.541   1.648
14849WAT     H244790   7.414   8.528   1.749
14850WAT      O44791   8.233   7.292   2.310
14850WAT     H144792   8.159   7.268   2.373
14850WAT     H244793   8.282   7.210   2.283
14851WAT      O44794   3.945   0.027   3.377
14851WAT     H144795   4.021   0.018   3.442
14851WAT     H244796   3.922   0.123   3.366
14852WAT      O44797   6.958   3.386   4.286
14852WAT     H144798   6.928   3.480   4.296
14852WAT     H244799   6.909   3.327   4.350
14853WAT      O44800   6.547   2.034   4.597
14853WAT     H144801   6.589   2.114   4.555
14853WAT     H244802   6.619   1.973   4.631
14854WAT      O44803   8.113   4.647   5.057
14854WAT     H144804   8.117   4.627   5.155
14854WAT     H244805   8.188   4.709   5.033
14855WAT      O44806   1.545   3.003   4.828
14855WAT     H144807   1.519   2.908   4.844
14855WAT     H244808   1.488   3.041   4.755
14856WAT      O44809   4.843   8.429   0.006
14856WAT     H144810   4.851   8.474   0.096
14856WAT     H244811   4.888   8.485  -0.063
14857WAT      O44812   0.999   6.802   9.849
14857WAT     H144813   1.000   6.776   9.753
14857WAT     H244814   1.009   6.720   9.906
14858WAT      O44815   3.528   7.353   2.084
14858WAT     H144816   3.433   7.325   2.096
14858WAT     H244817   3.588   7.274   2.099
14859WAT      O44818   9.335   2.391   9.842
14859WAT     H144819   9.336   2.313   9.779
14859WAT     H244820   9.350   2.359   9.935
14860WAT      O44821   6.791   3.581   5.455
14860WAT     H144822   6.766   3.675   5.429
14860WAT     H244823   6.859   3.583   5.528
14861WAT      O44824   4.917   6.114   5.709
14861WAT     H144825   4.949   6.063   5.629
14861WAT     H244826   4.827   6.079   5.736
14862WAT      O44827   5.095   2.352   8.458
14862WAT     H144828   5.162   2.425   8.472
14862WAT     H244829   5.130   2.266   8.494
14863WAT      O44830   0.588   3.065   3.514
14863WAT     H144831   0.594   3.118   3.598
14863WAT     H244832   0.649   3.104   3.445
14864WAT      O44833   1.766   5.387   2.624
14864WAT     H144834   1.774   5.483   2.650
14864WAT     H244835   1.769   5.379   2.525
14865WAT      O44836   3.512   7.407   6.575
14865WAT     H144837   3.465   7.469   6.512
14865WAT     H244838   3.450   7.333   6.601
14866WAT      O44839   6.691   1.557   4.863
14866WAT     H144840   6.676   1.577   4.960
14866WAT     H244841   6.677   1.460   4.846
14867WAT      O44842   5.610   5.302   7.552
14867WAT     H144843   5.522   5.255   7.549
14867WAT     H244844   5.681   5.242   7.515
14868WAT      O44845   8.924   2.288   4.342
14868WAT     H144846   8.960   2.236   4.420
14868WAT     H244847   8.994   2.352   4.310
14869WAT      O44848   8.917   4.211   4.462
14869WAT     H144849   8.840   4.160   4.500
14869WAT     H244850   8.883   4.290   4.411
14870WAT      O44851   2.324   7.301   1.978
14870WAT     H144852   2.290   7.394   1.969
14870WAT     H244853   2.417   7.302   2.015
14871WAT      O44854   5.257   5.255   8.361
14871WAT     H144855   5.349   5.217   8.361
14871WAT     H244856   5.261   5.353   8.340
14872WAT      O44857   9.635   8.603   9.517
14872WAT     H144858   9.579   8.524   9.494
14872WAT     H244859   9.614   8.679   9.455
14873WAT      O44860   3.075   1.876   8.545
14873WAT     H144861   3.018   1.830   8.477
14873WAT     H244862   3.153   1.818   8.568
14874WAT      O44863   7.677   7.356   5.459
14874WAT     H144864   7.707   7.402   5.543
14874WAT     H244865   7.589   7.311   5.475
14875WAT      O44866   9.231   7.433   8.072
14875WAT     H144867   9.261   7.426   8.167
14875WAT     H244868   9.133   7.448   8.069
14876WAT      O44869   7.866   0.675   8.387
14876WAT     H144870   7.849   0.607   8.459
14876WAT     H244871   7.825   0.644   8.302
14877WAT      O44872   6.110   4.458   2.459
14877WAT     H144873   6.163   4.388   2.507
14877WAT     H244874   6.172   4.520   2.411
14878WAT      O44875   1.396   9.129   5.740
14878WAT     H144876   1.390   9.178   5.653
14878WAT     H244877   1.322   9.159   5.800
14879WAT      O44878   0.901   7.491   0.164
14879WAT     H144879   0.998   7.488   0.140
14879WAT     H244880   0.869   7.400   0.188
14880WAT      O44881   7.097   4.805   9.168
14880WAT     H144882   7.072   4.902   9.164
14880WAT     H244883   7.196   4.797   9.182
14881WAT      O44884   5.535   7.121   1.167
14881WAT     H144885   5.625   7.118   1.123
14881WAT     H244886   5.468   7.077   1.107
14882WAT      O44887   4.269   4.043   4.128
14882WAT     H144888   4.329   3.976   4.085
14882WAT     H244889   4.319   4.095   4.197
14883WAT      O44890   5.261   5.627   5.980
14883WAT     H144891   5.283   5.531   6.000
14883WAT     H244892   5.254   5.678   6.066
14884WAT      O44893   8.426   6.805   4.662
14884WAT     H144894   8.525   6.799   4.674
14884WAT     H244895   8.381   6.771   4.745
14885WAT      O44896   1.744   6.017   0.643
14885WAT     H144897   1.675   6.087   0.662
14885WAT     H244898   1.804   6.006   0.722
14886WAT      O44899   2.644   4.684   2.948
14886WAT     H144900   2.594   4.716   2.868
14886WAT     H244901   2.581   4.677   3.026
14887WAT      O44902   5.733   8.894   1.314
14887WAT     H144903   5.716   8.904   1.412
14887WAT     H244904   5.656   8.848   1.270
14888WAT      O44905   2.296   7.615   9.158
14888WAT     H144906   2.311   7.708   9.126
14888WAT     H244907   2.312   7.611   9.257
14889WAT      O44908   5.312   6.047   9.599
14889WAT     H144909   5.396   6.014   9.557
14889WAT     H244910   5.333   6.096   9.683
14890WAT      O44911   6.534   8.716   3.090
14890WAT     H144912   6.490   8.797   3.127
14890WAT     H244913   6.595   8.742   3.015
14891WAT      O44914   1.851   5.630   5.102
14891WAT     H144915   1.792   5.665   5.175
14891WAT     H244916   1.824   5.537   5.079
14892WAT      O44917   6.882   4.802   5.547
14892WAT     H144918   6.792   4.787   5.506
14892WAT     H244919   6.919   4.889   5.516
14893WAT      O44920   3.834   2.114   9.328
14893WAT     H144921   3.839   2.152   9.236
14893WAT     H244922   3.743   2.131   9.366
14894WAT      O44923   1.227   6.079   5.594
14894WAT     H144924   1.196   6.132   5.515
14894WAT     H244925   1.230   6.139   5.674
14895WAT      O44926   7.502   0.956   0.563
14895WAT     H144927   7.471   0.903   0.484
14895WAT     H244928   7.548   0.895   0.628
14896WAT      O44929   2.153   4.675   9.014
14896WAT     H144930   2.195   4.755   9.057
14896WAT     H244931   2.054   4.680   9.025
14897WAT      O44932   7.565   9.190   5.547
14897WAT     H144933   7.476   9.164   5.586
14897WAT     H244934   7.593   9.120   5.481
14898WAT      O44935   4.757   3.151   4.037
14898WAT     H144936   4.761   3.123   3.941
14898WAT     H244937   4.682   3.103   4.083
14899WAT      O44938   5.684   5.640   2.002
14899WAT     H144939   5.660   5.550   2.039
14899WAT     H244940   5.780   5.640   1.973
14900WAT      O44941   6.327   7.049   6.564
14900WAT     H144942   6.367   6.986   6.498
14900WAT     H244943   6.230   7.028   6.576
14901WAT      O44944   4.331   7.201   9.222
14901WAT     H144945   4.237   7.236   9.225
14901WAT     H244946   4.382   7.249   9.150
14902WAT      O44947   3.833   1.274   1.563
14902WAT     H144948   3.806   1.182   1.593
14902WAT     H244949   3.902   1.311   1.625
14903WAT      O44950   0.267   2.405   8.550
14903WAT     H144951   0.179   2.364   8.573
14903WAT     H244952   0.322   2.414   8.633
14904WAT      O44953   1.329   5.018   5.133
14904WAT     H144954   1.259   5.028   5.062
14904WAT     H244955   1.360   4.923   5.136
14905WAT      O44956   3.534   2.413   2.281
14905WAT     H144957   3.546   2.411   2.380
14905WAT     H244958   3.623   2.404   2.237
14906WAT      O44959   2.884   0.501   7.291
14906WAT     H144960   2.790   0.486   7.261
14906WAT     H244961   2.932   0.413   7.297
14907WAT      O44962   1.885   0.711   3.628
14907WAT     H144963   1.951   0.778   3.594
14907WAT     H244964   1.839   0.747   3.709
14908WAT      O44965   2.888   9.231   7.287
14908WAT     H144966   2.846   9.308   7.240
14908WAT     H244967   2.817   9.173   7.326
14909WAT      O44968   1.632   5.569   0.355
14909WAT     H144969   1.626   5.528   0.264
14909WAT     H244970   1.617   5.667   0.348
14910WAT      O44971   0.247   5.604   3.209
14910WAT     H144972   0.259   5.570   3.116
14910WAT     H244973   0.307   5.682   3.224
14911WAT      O44974   8.143   4.902   2.941
14911WAT     H144975   8.167   4.902   3.038
14911WAT     H244976   8.202   4.967   2.893
14912WAT      O44977   1.185   4.405   1.470
14912WAT     H144978   1.208   4.405   1.568
14912WAT     H244979   1.226   4.325   1.427
14913WAT      O44980   7.882   4.447   8.366
14913WAT     H144981   7.955   4.454   8.434
14913WAT     H244982   7.908   4.381   8.296
14914WAT      O44983   8.521   5.738   8.027
14914WAT     H144984   8.471   5.670   8.081
14914WAT     H244985   8.616   5.710   8.017
14915WAT      O44986   1.679   0.563   2.738
14915WAT     H144987   1.654   0.620   2.816
14915WAT     H244988   1.597   0.540   2.686
14916WAT      O44989   7.173   9.075   6.198
14916WAT     H144990   7.087   9.120   6.223
14916WAT     H244991   7.224   9.054   6.282
14917WAT      O44992   4.934   6.354   0.930
14917WAT     H144993   5.004   6.368   1.000
14917WAT     H244994   4.945   6.423   0.859
14918WAT      O44995   4.825   4.741   0.333
14918WAT     H144996   4.807   4.664   0.272
14918WAT     H244997   4.863   4.817   0.281
14919WAT      O44998   2.513   4.423   1.772
14919WAT     H144999   2.583   4.488   1.740
14919WAT     H245000   2.451   4.470   1.835
14920WAT      O45001   6.734   3.825   5.372
14920WAT     H145002   6.682   3.844   5.289
14920WAT     H245003   6.701   3.883   5.447
14921WAT      O45004   6.383   7.217   3.696
14921WAT     H145005   6.452   7.188   3.762
14921WAT     H245006   6.427   7.268   3.623
14922WAT      O45007   2.361   8.943   0.202
14922WAT     H145008   2.301   9.013   0.241
14922WAT     H245009   2.368   8.956   0.103
14923WAT      O45010   2.155   2.768   8.714
14923WAT     H145011   2.232   2.704   8.721
14923WAT     H245012   2.080   2.725   8.664
14924WAT      O45013   2.395   8.468   1.706
14924WAT     H145014   2.412   8.509   1.617
14924WAT     H245015   2.372   8.371   1.694
14925WAT      O45016   5.552   2.738   3.263
14925WAT     H145017   5.633   2.790   3.290
14925WAT     H245018   5.573   2.640   3.266
14926WAT      O45019   5.447   0.169   8.494
14926WAT     H145020   5.510   0.122   8.432
14926WAT     H245021   5.355   0.170   8.453
14927WAT      O45022   5.558   1.787   1.339
14927WAT     H145023   5.506   1.747   1.414
14927WAT     H245024   5.640   1.732   1.323
14928WAT      O45025   9.879   6.336   4.076
14928WAT     H145026   9.972   6.316   4.046
14928WAT     H245027   9.821   6.353   3.997
14929WAT      O45028   5.547   7.657   8.239
14929WAT     H145029   5.473   7.638   8.303
14929WAT     H245030   5.632   7.673   8.289
14930WAT      O45031   9.746   5.095   7.725
14930WAT     H145032   9.658   5.094   7.678
14930WAT     H245033   9.765   5.004   7.761
14931WAT      O45034   4.471   9.336   5.171
14931WAT     H145035   4.536   9.362   5.243
14931WAT     H245036   4.418   9.416   5.144
14932WAT      O45037   4.302   4.506   1.239
14932WAT     H145038   4.207   4.475   1.234
14932WAT     H245039   4.340   4.482   1.328
14933WAT      O45040   4.700   2.542   8.061
14933WAT     H145041   4.683   2.640   8.066
14933WAT     H245042   4.792   2.522   8.093
14934WAT      O45043   4.222   4.815   9.068
14934WAT     H145044   4.316   4.847   9.078
14934WAT     H245045   4.161   4.875   9.120
14935WAT      O45046   7.638   5.255   1.101
14935WAT     H145047   7.733   5.224   1.091
14935WAT     H245048   7.596   5.208   1.179
14936WAT      O45049   6.335   9.013   2.289
14936WAT     H145050   6.258   9.010   2.353
14936WAT     H245051   6.372   8.920   2.277
14937WAT      O45052   0.804   1.566   4.529
14937WAT     H145053   0.786   1.469   4.514
14937WAT     H245054   0.880   1.576   4.594
14938WAT      O45055   3.826   9.410   3.304
14938WAT     H145056   3.778   9.435   3.220
14938WAT     H245057   3.771   9.435   3.383
14939WAT      O45058   5.228   7.522   4.119
14939WAT     H145059   5.307   7.569   4.081
14939WAT     H245060   5.201   7.565   4.205
14940WAT      O45061   3.108   2.478   3.823
14940WAT     H145062   3.156   2.419   3.759
14940WAT     H245063   3.149   2.569   3.821
14941WAT      O45064   5.490   3.154   4.783
14941WAT     H145065   5.480   3.087   4.710
14941WAT     H245066   5.461   3.244   4.750
14942WAT      O45067   4.044   3.367   8.277
14942WAT     H145068   3.963   3.378   8.219
14942WAT     H245069   4.044   3.275   8.317
14943WAT      O45070   4.707   5.509   5.893
14943WAT     H145071   4.798   5.503   5.852
14943WAT     H245072   4.671   5.601   5.882
14944WAT      O45073   8.325   3.799   6.304
14944WAT     H145074   8.293   3.710   6.271
14944WAT     H245075   8.344   3.793   6.402
14945WAT      O45076   8.385   2.088   0.345
14945WAT     H145077   8.292   2.119   0.324
14945WAT     H245078   8.409   2.115   0.438
14946WAT      O45079   4.148   1.488   7.760
14946WAT     H145080   4.229   1.493   7.702
14946WAT     H245081   4.142   1.571   7.816
14947WAT      O45082   7.411   7.452   7.620
14947WAT     H145083   7.507   7.474   7.606
14947WAT     H245084   7.401   7.353   7.631
14948WAT      O45085   2.473   5.489   6.833
14948WAT     H145086   2.544   5.466   6.900
14948WAT     H245087   2.428   5.405   6.803
14949WAT      O45088   5.633   4.036   9.495
14949WAT     H145089   5.551   4.092   9.493
14949WAT     H245090   5.611   3.947   9.535
14950WAT      O45091   4.708   8.563   5.668
14950WAT     H145092   4.629   8.515   5.631
14950WAT     H245093   4.779   8.497   5.692
14951WAT      O45094   7.190   7.915   2.502
14951WAT     H145095   7.263   7.971   2.464
14951WAT     H245096   7.101   7.950   2.472
14952WAT      O45097   9.796   0.184   5.570
14952WAT     H145098   9.828   0.186   5.665
14952WAT     H245099   9.763   0.092   5.549
14953WAT      O45100   2.167   3.912   4.256
14953WAT     H145101   2.257   3.944   4.227
14953WAT     H245102   2.148   3.946   4.349
14954WAT      O45103   4.331   7.617   0.130
14954WAT     H145104   4.379   7.530   0.141
14954WAT     H245105   4.254   7.606   0.068
14955WAT      O45106   7.877   1.425   8.308
14955WAT     H145107   7.913   1.458   8.220
14955WAT     H245108   7.811   1.491   8.344
14956WAT      O45109   8.478   8.432   5.835
14956WAT     H145110   8.502   8.344   5.876
14956WAT     H245111   8.380   8.436   5.817
14957WAT      O45112   8.690   8.219   2.653
14957WAT     H145113   8.610   8.268   2.619
14957WAT     H245114   8.692   8.222   2.753
14958WAT      O45115   7.506   7.845   5.913
14958WAT     H145116   7.417   7.855   5.958
14958WAT     H245117   7.534   7.933   5.875
14959WAT      O45118   7.332   6.728   5.744
14959WAT     H145119   7.287   6.639   5.749
14959WAT     H245120   7.366   6.753   5.835
14960WAT      O45121   8.499   8.873   9.778
14960WAT     H145122   8.438   8.937   9.825
14960WAT     H245123   8.570   8.924   9.730
14961WAT      O45124   3.618   7.771   7.401
14961WAT     H145125   3.520   7.775   7.383
14961WAT     H245126   3.668   7.779   7.315
14962WAT      O45127   1.902   9.665   4.502
14962WAT     H145128   1.838   9.643   4.575
14962WAT     H245129   1.865   9.634   4.415
14963WAT      O45130   7.337   9.162   3.572
14963WAT     H145131   7.320   9.065   3.553
14963WAT     H245132   7.269   9.218   3.523
14964WAT      O45133   1.300   1.497   7.175
14964WAT     H145134   1.223   1.446   7.136
14964WAT     H245135   1.327   1.455   7.262
14965WAT      O45136   0.792   6.137   7.026
14965WAT     H145137   0.743   6.082   6.959
14965WAT     H245138   0.727   6.177   7.091
14966WAT      O45139   1.141   2.845   8.471
14966WAT     H145140   1.107   2.901   8.395
14966WAT     H245141   1.083   2.764   8.481
14967WAT      O45142   2.862   7.966   1.363
14967WAT     H145143   2.847   8.065   1.368
14967WAT     H245144   2.821   7.931   1.279
14968WAT      O45145   9.127   5.008   3.891
14968WAT     H145146   9.224   4.995   3.871
14968WAT     H245147   9.079   5.038   3.808
14969WAT      O45148   0.813   8.394   9.274
14969WAT     H145149   0.756   8.371   9.196
14969WAT     H245150   0.812   8.492   9.289
14970WAT      O45151   4.688   8.064   2.835
14970WAT     H145152   4.613   8.001   2.859
14970WAT     H245153   4.762   8.053   2.902
14971WAT      O45154   8.356   3.219   5.837
14971WAT     H145155   8.299   3.156   5.889
14971WAT     H245156   8.450   3.187   5.838
14972WAT      O45157   1.257   0.693   3.710
14972WAT     H145158   1.188   0.762   3.736
14972WAT     H245159   1.245   0.669   3.614
14973WAT      O45160   6.729   8.061   9.039
14973WAT     H145161   6.724   7.972   9.084
14973WAT     H245162   6.687   8.130   9.098
14974WAT      O45163   0.061   7.470   6.466
14974WAT     H145164   0.016   7.452   6.379
14974WAT     H245165   0.146   7.521   6.450
14975WAT      O45166   0.109   2.765   9.022
14975WAT     H145167   0.150   2.707   8.953
14975WAT     H245168   0.180   2.798   9.084
14976WAT      O45169   8.380   6.679   2.530
14976WAT     H145170   8.408   6.585   2.546
14976WAT     H245171   8.344   6.689   2.438
14977WAT      O45172   8.856   2.029   9.439
14977WAT     H145173   8.931   1.963   9.444
14977WAT     H245174   8.840   2.068   9.529
14978WAT      O45175   6.772   8.695   8.724
14978WAT     H145176   6.832   8.643   8.784
14978WAT     H245177   6.820   8.718   8.639
14979WAT      O45178   3.361   8.752   2.855
14979WAT     H145179   3.424   8.829   2.844
14979WAT     H245180   3.310   8.740   2.770
14980WAT      O45181   3.301   7.937   8.586
14980WAT     H145182   3.280   7.978   8.675
14980WAT     H245183   3.352   7.852   8.600
14981WAT      O45184   8.434   6.833   5.917
14981WAT     H145185   8.382   6.919   5.922
14981WAT     H245186   8.458   6.814   5.822
14982WAT      O45187   4.350   4.525   7.344
14982WAT     H145188   4.357   4.457   7.272
14982WAT     H245189   4.441   4.562   7.364
14983WAT      O45190   5.294   0.599   1.306
14983WAT     H145191   5.333   0.545   1.231
14983WAT     H245192   5.305   0.696   1.287
14984WAT      O45193   4.637   5.290   0.615
14984WAT     H145194   4.683   5.379   0.623
14984WAT     H245195   4.562   5.285   0.680
14985WAT      O45196   2.150   2.562   0.089
14985WAT     H145197   2.127   2.630   0.020
14985WAT     H245198   2.070   2.543   0.146
14986WAT      O45199   9.441   9.431   6.537
14986WAT     H145200   9.389   9.433   6.451
14986WAT     H245201   9.532   9.394   6.519
14987WAT      O45202   5.022   0.376   4.076
14987WAT     H145203   5.108   0.400   4.031
14987WAT     H245204   4.964   0.326   4.013
14988WAT      O45205   1.236   2.168   9.115
14988WAT     H145206   1.313   2.205   9.167
14988WAT     H245207   1.266   2.147   9.022
14989WAT      O45208   7.235   5.838   3.818
14989WAT     H145209   7.182   5.769   3.769
14989WAT     H245210   7.281   5.898   3.752
14990WAT      O45211   1.760   6.157   6.740
14990WAT     H145212   1.692   6.100   6.786
14990WAT     H245213   1.724   6.249   6.726
14991WAT      O45214   4.248   4.452   7.043
14991WAT     H145215   4.248   4.552   7.037
14991WAT     H245216   4.337   4.417   7.013
14992WAT      O45217   4.488   0.096   4.856
14992WAT     H145218   4.482   0.016   4.915
14992WAT     H245219   4.418   0.089   4.785
14993WAT      O45220   2.566   5.403   3.128
14993WAT     H145221   2.473   5.409   3.091
14993WAT     H245222   2.622   5.348   3.066
14994WAT      O45223   6.207   7.525   4.469
14994WAT     H145224   6.130   7.585   4.487
14994WAT     H245225   6.180   7.457   4.400
14995WAT      O45226   7.990   1.802   7.524
14995WAT     H145227   8.010   1.887   7.571
14995WAT     H245228   7.917   1.754   7.573
14996WAT      O45229   1.682   5.139   8.031
14996WAT     H145230   1.664   5.237   8.031
14996WAT     H245231   1.781   5.124   8.027
14997WAT      O45232   5.106   3.605   7.097
14997WAT     H145233   5.157   3.521   7.078
14997WAT     H245234   5.014   3.581   7.128
14998WAT      O45235   2.025   7.743   1.929
14998WAT     H145236   2.043   7.782   2.019
14998WAT     H245237   1.946   7.788   1.888
14999WAT      O45238   3.803   7.025   0.345
14999WAT     H145239   3.759   7.113   0.364
14999WAT     H245240   3.735   6.952   0.349
15000WAT      O45241   6.007   9.637   0.747
15000WAT     H145242   6.048   9.547   0.736
15000WAT     H245243   6.000   9.659   0.844
15001WAT      O45244   8.699   1.723   8.718
15001WAT     H145245   8.641   1.708   8.798
15001WAT     H245246   8.787   1.760   8.747
15002WAT      O45247   0.985   8.752   1.346
15002WAT     H145248   0.888   8.728   1.343
15002WAT     H245249   1.040   8.671   1.325
15003WAT      O45250   7.831   6.382   0.937
15003WAT     H145251   7.802   6.478   0.942
15003WAT     H245252   7.800   6.333   1.018
15004WAT      O45253   1.740   6.787   2.317
15004WAT     H145254   1.641   6.782   2.325
15004WAT     H245255   1.782   6.738   2.394
15005WAT      O45256   8.992   9.394   0.254
15005WAT     H145257   8.982   9.418   0.350
15005WAT     H245258   9.072   9.334   0.243
15006WAT      O45259   9.189   3.932   3.131
15006WAT     H145260   9.211   3.853   3.074
15006WAT     H245261   9.161   4.009   3.073
15007WAT      O45262   4.991   8.374   5.210
15007WAT     H145263   4.992   8.432   5.292
15007WAT     H245264   5.002   8.431   5.129
15008WAT      O45265   5.804   2.877   3.290
15008WAT     H145266   5.856   2.935   3.354
15008WAT     H245267   5.852   2.790   3.278
15009WAT      O45268   9.056   6.042   9.176
15009WAT     H145269   9.094   6.103   9.246
15009WAT     H245270   9.045   5.950   9.215
15010WAT      O45271   5.877   2.701   0.346
15010WAT     H145272   5.974   2.688   0.365
15010WAT     H245273   5.824   2.636   0.401
15011WAT      O45274   7.184   3.356   2.204
15011WAT     H145275   7.099   3.398   2.171
15011WAT     H245276   7.192   3.264   2.166
15012WAT      O45277   3.059   2.551   3.224
15012WAT     H145278   2.968   2.593   3.229
15012WAT     H245279   3.076   2.519   3.131
15013WAT      O45280   5.146   6.093   5.957
15013WAT     H145281   5.081   6.018   5.943
15013WAT     H245282   5.218   6.088   5.887
15014WAT      O45283   3.080   1.489   6.808
15014WAT     H145284   3.083   1.413   6.744
15014WAT     H245285   3.071   1.454   6.901
15015WAT      O45286   4.730   9.109   5.944
15015WAT     H145287   4.726   9.149   5.852
15015WAT     H245288   4.783   9.024   5.941
15016WAT      O45289   0.282   2.824   2.727
15016WAT     H145290   0.322   2.733   2.719
15016WAT     H245291   0.317   2.882   2.653
15017WAT      O45292   6.571   0.381   7.283
15017WAT     H145293   6.556   0.386   7.185
15017WAT     H245294   6.506   0.441   7.330
15018WAT      O45295   1.831   5.336   5.206
15018WAT     H145296   1.848   5.246   5.246
15018WAT     H245297   1.910   5.396   5.223
15019WAT      O45298   0.530   8.725   3.587
15019WAT     H145299   0.454   8.779   3.552
15019WAT     H245300   0.607   8.785   3.607
15020WAT      O45301   2.116   1.766   3.531
15020WAT     H145302   2.026   1.739   3.497
15020WAT     H245303   2.128   1.732   3.625
15021WAT      O45304   5.581   0.988   8.065
15021WAT     H145305   5.556   0.923   8.137
15021WAT     H245306   5.625   1.067   8.105
15022WAT      O45307   0.797   5.480   1.784
15022WAT     H145308   0.828   5.574   1.770
15022WAT     H245309   0.820   5.450   1.876
15023WAT      O45310   9.122   2.612   9.557
15023WAT     H145311   9.153   2.545   9.490
15023WAT     H245312   9.035   2.582   9.596
15024WAT      O45313   5.300   2.741   6.606
15024WAT     H145314   5.399   2.756   6.595
15024WAT     H245315   5.257   2.741   6.516
15025WAT      O45316   2.199   1.558   7.504
15025WAT     H145317   2.191   1.576   7.406
15025WAT     H245318   2.165   1.466   7.524
15026WAT      O45319   3.457   8.455   4.516
15026WAT     H145320   3.554   8.446   4.537
15026WAT     H245321   3.443   8.532   4.454
15027WAT      O45322   7.433   0.266   6.378
15027WAT     H145323   7.352   0.208   6.367
15027WAT     H245324   7.506   0.212   6.419
15028WAT      O45325   5.164   8.699   6.714
15028WAT     H145326   5.079   8.752   6.708
15028WAT     H245327   5.189   8.686   6.810
15029WAT      O45328   6.128   4.784   8.146
15029WAT     H145329   6.035   4.759   8.170
15029WAT     H245330   6.139   4.783   8.047
15030WAT      O45331   9.239   3.572   1.837
15030WAT     H145332   9.337   3.554   1.831
15030WAT     H245333   9.190   3.514   1.772
15031WAT      O45334   0.663   2.422   2.200
15031WAT     H145335   0.602   2.376   2.265
15031WAT     H245336   0.755   2.430   2.239
15032WAT      O45337   0.717   9.298   4.218
15032WAT     H145338   0.704   9.397   4.225
15032WAT     H245339   0.815   9.277   4.224
15033WAT      O45340   8.433   0.492   8.178
15033WAT     H145341   8.376   0.414   8.207
15033WAT     H245342   8.392   0.577   8.212
15034WAT      O45343   3.254   3.725   4.251
15034WAT     H145344   3.296   3.684   4.170
15034WAT     H245345   3.229   3.820   4.230
15035WAT      O45346   8.001   1.923   0.027
15035WAT     H145347   8.086   1.966  -0.004
15035WAT     H245348   7.952   1.887  -0.053
15036WAT      O45349   7.862   1.722   6.287
15036WAT     H145350   7.765   1.714   6.261
15036WAT     H245351   7.873   1.798   6.351
15037WAT      O45352   7.361   3.923   1.782
15037WAT     H145353   7.388   3.835   1.742
15037WAT     H245354   7.385   3.996   1.718
15038WAT      O45355   0.950   1.930   0.251
15038WAT     H145356   0.970   1.927   0.153
15038WAT     H245357   0.914   2.021   0.275
15039WAT      O45358   1.328   2.061   5.277
15039WAT     H145359   1.279   2.017   5.352
15039WAT     H245360   1.291   2.030   5.190
15040WAT      O45361   0.990   9.382   5.002
15040WAT     H145362   0.933   9.449   4.957
15040WAT     H245363   0.939   9.339   5.077
15041WAT      O45364   3.087   8.068   3.644
15041WAT     H145365   3.011   8.109   3.695
15041WAT     H245366   3.092   8.109   3.553
15042WAT      O45367   7.107   3.209   9.194
15042WAT     H145368   7.015   3.197   9.158
15042WAT     H245369   7.161   3.265   9.131
15043WAT      O45370   6.084   0.964   1.558
15043WAT     H145371   6.040   0.876   1.542
15043WAT     H245372   6.096   1.012   1.472
15044WAT      O45373   5.881   1.332   0.514
15044WAT     H145374   5.864   1.413   0.459
15044WAT     H245375   5.820   1.258   0.484
15045WAT      O45376   3.585   1.626   2.138
15045WAT     H145377   3.564   1.589   2.048
15045WAT     H245378   3.503   1.670   2.176
15046WAT      O45379   1.753   6.209   2.121
15046WAT     H145380   1.851   6.227   2.122
15046WAT     H245381   1.709   6.255   2.199
15047WAT      O45382   6.736   9.479   5.900
15047WAT     H145383   6.733   9.380   5.885
15047WAT     H245384   6.773   9.524   5.819
15048WAT      O45385   9.232   1.020   4.387
15048WAT     H145386   9.202   0.927   4.367
15048WAT     H245387   9.332   1.022   4.395
15049WAT      O45388   6.657   0.128   7.110
15049WAT     H145389   6.699   0.074   7.183
15049WAT     H245390   6.723   0.142   7.036
15050WAT      O45391   3.022   8.399   5.833
15050WAT     H145392   3.018   8.497   5.812
15050WAT     H245393   3.115   8.365   5.817
15051WAT      O45394   5.589   4.730   3.162
15051WAT     H145395   5.491   4.724   3.182
15051WAT     H245396   5.603   4.752   3.066
15052WAT      O45397   1.256   7.821   3.816
15052WAT     H145398   1.226   7.742   3.762
15052WAT     H245399   1.199   7.900   3.793
15053WAT      O45400   1.539   3.943   5.391
15053WAT     H145401   1.570   4.010   5.323
15053WAT     H245402   1.467   3.984   5.447
15054WAT      O45403   0.283   5.393   4.270
15054WAT     H145404   0.296   5.301   4.307
15054WAT     H245405   0.247   5.386   4.177
15055WAT      O45406   6.646   6.306   2.169
15055WAT     H145407   6.726   6.315   2.110
15055WAT     H245408   6.615   6.211   2.168
15056WAT      O45409   2.582   1.462   8.602
15056WAT     H145410   2.639   1.511   8.668
15056WAT     H245411   2.492   1.446   8.641
15057WAT      O45412   2.160   0.111   3.254
15057WAT     H145413   2.170   0.168   3.172
15057WAT     H245414   2.064   0.111   3.282
15058WAT      O45415   1.659   7.068   7.414
15058WAT     H145416   1.657   7.161   7.375
15058WAT     H245417   1.752   7.046   7.443
15059WAT      O45418   4.687   4.910   0.043
15059WAT     H145419   4.660   4.871   0.131
15059WAT     H245420   4.787   4.908   0.035
15060WAT      O45421   0.562   5.136   4.486
15060WAT     H145422   0.471   5.143   4.444
15060WAT     H245423   0.553   5.102   4.579
15061WAT      O45424   0.225   6.156   0.600
15061WAT     H145425   0.181   6.227   0.546
15061WAT     H245426   0.324   6.169   0.600
15062WAT      O45427   0.579   1.176   4.934
15062WAT     H145428   0.492   1.202   4.891
15062WAT     H245429   0.565   1.094   4.989
15063WAT      O45430   0.161   7.713   6.194
15063WAT     H145431   0.214   7.781   6.144
15063WAT     H245432   0.114   7.757   6.271
15064WAT      O45433   9.247   8.165   7.637
15064WAT     H145434   9.248   8.260   7.606
15064WAT     H245435   9.175   8.115   7.588
15065WAT      O45436   7.881   7.643   0.789
15065WAT     H145437   7.947   7.621   0.717
15065WAT     H245438   7.806   7.577   0.787
15066WAT      O45439   4.909   7.485   7.075
15066WAT     H145440   4.900   7.395   7.033
15066WAT     H245441   5.005   7.508   7.084
15067WAT      O45442   2.574   8.303   7.203
15067WAT     H145443   2.629   8.245   7.263
15067WAT     H245444   2.483   8.264   7.192
15068WAT      O45445   2.001   0.323   6.559
15068WAT     H145446   1.901   0.315   6.557
15068WAT     H245447   2.039   0.258   6.625
15069WAT      O45448   5.780   7.136   4.740
15069WAT     H145449   5.822   7.178   4.659
15069WAT     H245450   5.815   7.044   4.752
15070WAT      O45451   0.691   3.278   5.838
15070WAT     H145452   0.738   3.251   5.922
15070WAT     H245453   0.759   3.311   5.772
15071WAT      O45454   0.280   6.057   0.304
15071WAT     H145455   0.232   6.108   0.375
15071WAT     H245456   0.214   6.000   0.254
15072WAT      O45457   1.201   8.088   0.794
15072WAT     H145458   1.158   8.003   0.764
15072WAT     H245459   1.131   8.156   0.814
15073WAT      O45460   1.356   9.805   4.756
15073WAT     H145461   1.449   9.806   4.719
15073WAT     H245462   1.300   9.742   4.703
15074WAT      O45463   9.647   2.110   6.234
15074WAT     H145464   9.653   2.092   6.332
15074WAT     H245465   9.653   2.023   6.184
15075WAT      O45466   5.060   1.001   6.797
15075WAT     H145467   5.143   1.049   6.826
15075WAT     H245468   4.985   1.024   6.859
15076WAT      O45469   6.554   2.920   0.072
15076WAT     H145470   6.502   2.853   0.019
15076WAT     H245471   6.633   2.949   0.019
15077WAT      O45472   7.391   3.584   0.766
15077WAT     H145473   7.462   3.627   0.709
15077WAT     H245474   7.425   3.575   0.860
15078WAT      O45475   6.009   5.378   9.444
15078WAT     H145476   6.056   5.294   9.470
15078WAT     H245477   6.025   5.397   9.347
15079WAT      O45478   5.265   0.498   6.492
15079WAT     H145479   5.331   0.557   6.538
15079WAT     H245480   5.173   0.536   6.503
15080WAT      O45481   6.645   9.777   9.846
15080WAT     H145482   6.738   9.780   9.809
15080WAT     H245483   6.636   9.698   9.907
15081WAT      O45484   3.343   5.511   0.018
15081WAT     H145485   3.389   5.594   0.049
15081WAT     H245486   3.364   5.435   0.080
15082WAT      O45487   4.733   2.400   4.404
15082WAT     H145488   4.655   2.351   4.366
15082WAT     H245489   4.705   2.445   4.489
15083WAT      O45490   5.209   8.866   9.224
15083WAT     H145491   5.144   8.896   9.293
15083WAT     H245492   5.160   8.825   9.147
15084WAT      O45493   3.675   8.700   6.301
15084WAT     H145494   3.596   8.655   6.260
15084WAT     H245495   3.647   8.788   6.340
15085WAT      O45496   5.100   7.439   4.731
15085WAT     H145497   5.101   7.354   4.783
15085WAT     H245498   5.156   7.508   4.778
15086WAT      O45499   2.110   9.377   2.629
15086WAT     H145500   2.191   9.319   2.638
15086WAT     H245501   2.035   9.324   2.591
15087WAT      O45502   5.642   2.371   2.820
15087WAT     H145503   5.727   2.318   2.823
15087WAT     H245504   5.578   2.328   2.756
15088WAT      O45505   9.290   6.898   3.817
15088WAT     H145506   9.250   6.811   3.787
15088WAT     H245507   9.388   6.897   3.798
15089WAT      O45508   0.861   4.382   2.894
15089WAT     H145509   0.928   4.385   2.819
15089WAT     H245510   0.797   4.458   2.885
15090WAT      O45511   3.009   5.576   7.802
15090WAT     H145512   3.006   5.605   7.707
15090WAT     H245513   2.930   5.615   7.850
15091WAT      O45514   9.638   2.283   7.495
15091WAT     H145515   9.607   2.368   7.537
15091WAT     H245516   9.730   2.295   7.458
15092WAT      O45517   2.641   4.342   8.230
15092WAT     H145518   2.556   4.332   8.283
15092WAT     H245519   2.698   4.261   8.241
15093WAT      O45520   5.084   7.576   2.418
15093WAT     H145521   5.051   7.482   2.423
15093WAT     H245522   5.089   7.604   2.322
15094WAT      O45523   1.143   6.819   6.642
15094WAT     H145524   1.164   6.917   6.647
15094WAT     H245525   1.145   6.780   6.734
15095WAT      O45526   6.885   7.678   5.949
15095WAT     H145527   6.855   7.767   5.982
15095WAT     H245528   6.956   7.690   5.880
15096WAT      O45529   9.137   6.957   5.523
15096WAT     H145530   9.056   6.989   5.474
15096WAT     H245531   9.113   6.882   5.583
15097WAT      O45532   5.132   0.719   6.766
15097WAT     H145533   5.110   0.812   6.796
15097WAT     H245534   5.130   0.715   6.666
15098WAT      O45535   6.499   8.232   5.123
15098WAT     H145536   6.518   8.233   5.221
15098WAT     H245537   6.497   8.138   5.090
15099WAT      O45538   2.722   1.176   6.590
15099WAT     H145539   2.630   1.211   6.610
15099WAT     H245540   2.779   1.180   6.672
15100WAT      O45541   6.703   7.455   9.421
15100WAT     H145542   6.670   7.363   9.397
15100WAT     H245543   6.798   7.449   9.452
15101WAT      O45544   7.819   9.162   5.196
15101WAT     H145545   7.854   9.095   5.131
15101WAT     H245546   7.721   9.176   5.180
15102WAT      O45547   8.407   8.490   0.132
15102WAT     H145548   8.480   8.514   0.195
15102WAT     H245549   8.341   8.430   0.178
15103WAT      O45550   4.247   0.955   9.733
15103WAT     H145551   4.266   0.999   9.645
15103WAT     H245552   4.311   0.880   9.747
15104WAT      O45553   1.111   7.459   4.801
15104WAT     H145554   1.028   7.491   4.755
15104WAT     H245555   1.101   7.470   4.900
15105WAT      O45556   9.717   9.688   1.073
15105WAT     H145557   9.805   9.640   1.072
15105WAT     H245558   9.729   9.778   1.115
15106WAT      O45559   5.411   4.265   2.689
15106WAT     H145560   5.401   4.267   2.590
15106WAT     H245561   5.462   4.345   2.720
15107WAT      O45562   0.844   4.111   0.364
15107WAT     H145563   0.929   4.076   0.404
15107WAT     H245564   0.865   4.168   0.285
15108WAT      O45565   5.017   5.079   2.944
15108WAT     H145566   4.977   5.171   2.942
15108WAT     H245567   5.062   5.065   3.032
15109WAT      O45568   2.444   6.815   2.970
15109WAT     H145569   2.483   6.806   2.878
15109WAT     H245570   2.470   6.902   3.009
15110WAT      O45571   4.894   8.886   5.976
15110WAT     H145572   4.820   8.832   5.935
15110WAT     H245573   4.931   8.837   6.055
15111WAT      O45574   6.409   5.983   4.143
15111WAT     H145575   6.386   6.071   4.185
15111WAT     H245576   6.508   5.977   4.131
15112WAT      O45577   4.974   2.483   0.899
15112WAT     H145578   5.033   2.554   0.858
15112WAT     H245579   5.031   2.410   0.936
15113WAT      O45580   0.637   9.425   4.758
15113WAT     H145581   0.569   9.384   4.818
15113WAT     H245582   0.694   9.354   4.718
15114WAT      O45583   5.368   2.874   3.120
15114WAT     H145584   5.424   2.936   3.065
15114WAT     H245585   5.428   2.817   3.177
15115WAT      O45586   5.350   5.285   0.635
15115WAT     H145587   5.317   5.241   0.552
15115WAT     H245588   5.277   5.339   0.676
15116WAT      O45589   4.460   8.357   5.705
15116WAT     H145590   4.425   8.359   5.611
15116WAT     H245591   4.462   8.262   5.737
15117WAT      O45592   6.225   4.854   8.813
15117WAT     H145593   6.287   4.794   8.762
15117WAT     H245594   6.248   4.949   8.795
15118WAT      O45595   8.304   5.892   8.334
15118WAT     H145596   8.370   5.917   8.405
15118WAT     H245597   8.344   5.910   8.244
15119WAT      O45598   8.219   1.628   7.075
15119WAT     H145599   8.206   1.676   7.161
15119WAT     H245600   8.316   1.624   7.053
15120WAT      O45601   1.826   2.325   7.832
15120WAT     H145602   1.842   2.424   7.834
15120WAT     H245603   1.826   2.290   7.926
15121WAT      O45604   1.371   1.665   1.995
15121WAT     H145605   1.458   1.706   2.023
15121WAT     H245606   1.372   1.567   2.014
15122WAT      O45607   7.846   6.141   4.386
15122WAT     H145608   7.916   6.128   4.316
15122WAT     H245609   7.756   6.143   4.342
15123WAT      O45610   1.152   8.685   2.205
15123WAT     H145611   1.233   8.650   2.252
15123WAT     H245612   1.093   8.609   2.179
15124WAT      O45613   5.660   3.609   6.993
15124WAT     H145614   5.738   3.617   6.931
15124WAT     H245615   5.636   3.700   7.028
15125WAT      O45616   2.868   0.225   7.963
15125WAT     H145617   2.936   0.200   8.032
15125WAT     H245618   2.896   0.309   7.917
15126WAT      O45619   4.957   3.581   8.574
15126WAT     H145620   4.976   3.672   8.536
15126WAT     H245621   5.000   3.511   8.517
15127WAT      O45622   1.820   9.187   7.609
15127WAT     H145623   1.779   9.275   7.635
15127WAT     H245624   1.912   9.202   7.574
15128WAT      O45625   7.759   1.690   3.763
15128WAT     H145626   7.731   1.709   3.669
15128WAT     H245627   7.803   1.770   3.803
15129WAT      O45628   5.863   8.951   8.061
15129WAT     H145629   5.796   8.940   8.134
15129WAT     H245630   5.821   8.997   7.983
15130WAT      O45631   9.696   5.973   4.304
15130WAT     H145632   9.678   5.960   4.206
15130WAT     H245633   9.709   5.885   4.348
15131WAT      O45634   6.364   3.669   0.083
15131WAT     H145635   6.364   3.658  -0.017
15131WAT     H245636   6.285   3.724   0.110
15132WAT      O45637   5.434   4.384   6.065
15132WAT     H145638   5.428   4.467   6.009
15132WAT     H245639   5.390   4.400   6.153
15133WAT      O45640   4.188   4.622   3.237
15133WAT     H145641   4.159   4.697   3.296
15133WAT     H245642   4.170   4.646   3.141
15134WAT      O45643   7.502   0.627   7.799
15134WAT     H145644   7.424   0.655   7.743
15134WAT     H245645   7.510   0.688   7.878
15135WAT      O45646   8.791   7.274   0.452
15135WAT     H145647   8.875   7.276   0.507
15135WAT     H245648   8.809   7.226   0.366
15136WAT      O45649   3.029   9.370   4.486
15136WAT     H145650   3.101   9.435   4.460
15136WAT     H245651   3.053   9.279   4.452
15137WAT      O45652   3.520   4.257   7.766
15137WAT     H145653   3.553   4.346   7.795
15137WAT     H245654   3.527   4.249   7.666
15138WAT      O45655   8.203   1.287   3.458
15138WAT     H145656   8.139   1.345   3.408
15138WAT     H245657   8.152   1.219   3.512
15139WAT      O45658   7.791   0.059   9.574
15139WAT     H145659   7.884   0.079   9.544
15139WAT     H245660   7.792   0.025   9.668
15140WAT      O45661   7.023   7.484   3.163
15140WAT     H145662   6.983   7.418   3.226
15140WAT     H245663   6.995   7.462   3.070
15141WAT      O45664   6.638   9.820   0.522
15141WAT     H145665   6.725   9.866   0.506
15141WAT     H245666   6.578   9.880   0.575
15142WAT      O45667   2.655   0.721   7.715
15142WAT     H145668   2.685   0.813   7.690
15142WAT     H245669   2.595   0.726   7.794
15143WAT      O45670   2.154   8.496   0.108
15143WAT     H145671   2.154   8.584   0.060
15143WAT     H245672   2.069   8.447   0.087
15144WAT      O45673   0.459   0.680   8.355
15144WAT     H145674   0.394   0.737   8.407
15144WAT     H245675   0.430   0.675   8.260
15145WAT      O45676   5.519   4.304   1.333
15145WAT     H145677   5.545   4.211   1.310
15145WAT     H245678   5.552   4.327   1.425
15146WAT      O45679   3.524   6.177   6.316
15146WAT     H145680   3.449   6.179   6.383
15146WAT     H245681   3.554   6.270   6.297
15147WAT      O45682   4.904   4.945   7.619
15147WAT     H145683   4.986   4.919   7.669
15147WAT     H245684   4.859   5.022   7.665
15148WAT      O45685   3.949   1.651   3.887
15148WAT     H145686   3.863   1.611   3.854
15148WAT     H245687   3.995   1.586   3.947
15149WAT      O45688   1.156   1.863   0.431
15149WAT     H145689   1.078   1.896   0.378
15149WAT     H245690   1.237   1.916   0.408
15150WAT      O45691   2.819   6.551   9.262
15150WAT     H145692   2.917   6.556   9.279
15150WAT     H245693   2.792   6.455   9.248
15151WAT      O45694   8.474   5.319   0.623
15151WAT     H145695   8.501   5.406   0.581
15151WAT     H245696   8.553   5.259   0.628
15152WAT      O45697   8.020   2.942   2.161
15152WAT     H145698   7.952   3.010   2.135
15152WAT     H245699   8.005   2.915   2.257
15153WAT      O45700   8.746   7.514   2.083
15153WAT     H145701   8.673   7.449   2.061
15153WAT     H245702   8.800   7.478   2.159
15154WAT      O45703   7.587   8.218   0.400
15154WAT     H145704   7.506   8.179   0.444
15154WAT     H245705   7.632   8.282   0.462
15155WAT      O45706   2.617   1.639   7.209
15155WAT     H145707   2.550   1.565   7.213
15155WAT     H245708   2.629   1.678   7.301
15156WAT      O45709   1.543   8.400   3.841
15156WAT     H145710   1.578   8.454   3.918
15156WAT     H245711   1.463   8.348   3.870
15157WAT      O45712   2.718   7.533   2.290
15157WAT     H145713   2.645   7.600   2.275
15157WAT     H245714   2.689   7.469   2.362
15158WAT      O45715   1.307   4.334   7.443
15158WAT     H145716   1.345   4.387   7.368
15158WAT     H245717   1.211   4.359   7.457
15159WAT      O45718   2.012   5.643   2.135
15159WAT     H145719   2.007   5.613   2.039
15159WAT     H245720   1.945   5.716   2.150
15160WAT      O45721   9.600   2.004   8.885
15160WAT     H145722   9.648   2.058   8.954
15160WAT     H245723   9.502   2.021   8.891
15161WAT      O45724   7.706   2.892   2.481
15161WAT     H145725   7.763   2.967   2.450
15161WAT     H245726   7.758   2.806   2.475
15162WAT      O45727   0.442   4.696   5.061
15162WAT     H145728   0.412   4.612   5.016
15162WAT     H245729   0.419   4.692   5.158
15163WAT      O45730   3.948   4.383   2.888
15163WAT     H145731   3.892   4.466   2.889
15163WAT     H245732   3.957   4.351   2.794
15164WAT      O45733   0.788   3.076   3.320
15164WAT     H145734   0.735   3.010   3.266
15164WAT     H245735   0.859   3.027   3.371
15165WAT      O45736   3.709   4.427   7.231
15165WAT     H145737   3.692   4.351   7.293
15165WAT     H245738   3.651   4.419   7.150
15166WAT      O45739   4.694   3.200   3.322
15166WAT     H145740   4.732   3.127   3.266
15166WAT     H245741   4.647   3.161   3.401
15167WAT      O45742   0.633   3.586   3.765
15167WAT     H145743   0.566   3.515   3.788
15167WAT     H245744   0.598   3.675   3.793
15168WAT      O45745   3.181   7.721   0.885
15168WAT     H145746   3.198   7.687   0.978
15168WAT     H245747   3.163   7.819   0.889
15169WAT      O45748   2.565   3.227   5.070
15169WAT     H145749   2.467   3.223   5.047
15169WAT     H245750   2.618   3.208   4.987
15170WAT      O45751   6.927   9.638   1.202
15170WAT     H145752   6.856   9.703   1.231
15170WAT     H245753   6.904   9.602   1.112
15171WAT      O45754   0.800   1.693   0.710
15171WAT     H145755   0.707   1.722   0.733
15171WAT     H245756   0.848   1.665   0.793
15172WAT      O45757   3.284   6.120   0.925
15172WAT     H145758   3.238   6.035   0.951
15172WAT     H245759   3.220   6.196   0.934
15173WAT      O45760   2.362   6.035   9.534
15173WAT     H145761   2.278   6.012   9.485
15173WAT     H245762   2.362   5.989   9.623
15174WAT      O45763   4.259   2.173   6.349
15174WAT     H145764   4.230   2.086   6.308
15174WAT     H245765   4.259   2.164   6.448
15175WAT      O45766   4.775   3.689   0.596
15175WAT     H145767   4.745   3.778   0.562
15175WAT     H245768   4.696   3.638   0.630
15176WAT      O45769   2.955   6.182   3.427
15176WAT     H145770   3.019   6.239   3.479
15176WAT     H245771   2.882   6.239   3.389
15177WAT      O45772   6.269   9.496   4.297
15177WAT     H145773   6.221   9.542   4.222
15177WAT     H245774   6.203   9.445   4.353
15178WAT      O45775   1.831   9.312   4.711
15178WAT     H145776   1.910   9.257   4.739
15178WAT     H245777   1.781   9.264   4.639
15179WAT      O45778   8.730   8.992   6.858
15179WAT     H145779   8.749   9.068   6.796
15179WAT     H245780   8.747   8.906   6.810
15180WAT      O45781   1.038   5.548   2.029
15180WAT     H145782   1.118   5.526   1.973
15180WAT     H245783   0.978   5.469   2.034
15181WAT      O45784   2.513   6.405   2.073
15181WAT     H145785   2.531   6.405   2.171
15181WAT     H245786   2.571   6.474   2.029
15182WAT      O45787   6.441   5.210   9.077
15182WAT     H145788   6.383   5.149   9.132
15182WAT     H245789   6.531   5.169   9.065
15183WAT      O45790   4.255   0.496   1.984
15183WAT     H145791   4.292   0.478   2.076
15183WAT     H245792   4.329   0.523   1.923
15184WAT      O45793   0.124   0.038   7.233
15184WAT     H145794   0.027   0.057   7.221
15184WAT     H245795   0.155  -0.023   7.160
15185WAT      O45796   0.668   7.258   1.143
15185WAT     H145797   0.751   7.298   1.103
15185WAT     H245798   0.683   7.241   1.240
15186WAT      O45799   4.844   0.928   6.420
15186WAT     H145800   4.791   0.900   6.340
15186WAT     H245801   4.940   0.939   6.394
15187WAT      O45802   3.927   4.005   3.773
15187WAT     H145803   4.011   3.955   3.754
15187WAT     H245804   3.885   4.032   3.686
15188WAT      O45805   3.998   1.610   5.402
15188WAT     H145806   3.992   1.686   5.466
15188WAT     H245807   3.906   1.582   5.374
15189WAT      O45808   6.590   6.510   3.466
15189WAT     H145809   6.666   6.491   3.528
15189WAT     H245810   6.504   6.483   3.511
15190WAT      O45811   0.852   9.546   6.995
15190WAT     H145812   0.755   9.570   6.984
15190WAT     H245813   0.898   9.549   6.907
15191WAT      O45814   1.237   5.117   9.248
15191WAT     H145815   1.215   5.147   9.341
15191WAT     H245816   1.205   5.185   9.182
15192WAT      O45817   9.482   8.544   4.356
15192WAT     H145818   9.481   8.597   4.442
15192WAT     H245819   9.522   8.600   4.283
15193WAT      O45820   2.406   6.892   1.958
15193WAT     H145821   2.463   6.815   1.930
15193WAT     H245822   2.326   6.857   2.007
15194WAT      O45823   3.859   8.964   6.350
15194WAT     H145824   3.812   9.042   6.308
15194WAT     H245825   3.794   8.912   6.406
15195WAT      O45826   3.153   4.788   5.941
15195WAT     H145827   3.060   4.787   5.978
15195WAT     H245828   3.167   4.871   5.887
15196WAT      O45829   4.183   1.223   3.325
15196WAT     H145830   4.240   1.289   3.276
15196WAT     H245831   4.147   1.155   3.261
15197WAT      O45832   5.249   2.666   4.643
15197WAT     H145833   5.201   2.648   4.730
15197WAT     H245834   5.348   2.662   4.658
15198WAT      O45835   8.997   1.898   1.992
15198WAT     H145836   9.017   1.806   2.024
15198WAT     H245837   8.948   1.893   1.905
15199WAT      O45838   5.342   8.369   3.790
15199WAT     H145839   5.399   8.444   3.823
15199WAT     H245840   5.296   8.396   3.706
15200WAT      O45841   3.622   7.500   5.773
15200WAT     H145842   3.545   7.541   5.724
15200WAT     H245843   3.589   7.425   5.830
15201WAT      O45844   1.262   9.396   3.651
15201WAT     H145845   1.226   9.384   3.744
15201WAT     H245846   1.358   9.369   3.648
15202WAT      O45847   5.638   3.922   9.026
15202WAT     H145848   5.571   3.961   8.963
15202WAT     H245849   5.726   3.915   8.980
15203WAT      O45850   4.196   1.560   2.393
15203WAT     H145851   4.147   1.482   2.433
15203WAT     H245852   4.284   1.530   2.358
15204WAT      O45853   2.342   6.329   5.072
15204WAT     H145854   2.315   6.275   4.992
15204WAT     H245855   2.328   6.274   5.155
15205WAT      O45856   6.197   4.173   3.355
15205WAT     H145857   6.276   4.231   3.371
15205WAT     H245858   6.116   4.212   3.398
15206WAT      O45859   1.584   8.986   4.289
15206WAT     H145860   1.542   8.903   4.254
15206WAT     H245861   1.530   9.066   4.261
15207WAT      O45862   0.294   6.418   0.044
15207WAT     H145863   0.341   6.331   0.062
15207WAT     H245864   0.349   6.494   0.077
15208WAT      O45865   9.774   7.640   3.091
15208WAT     H145866   9.676   7.635   3.107
15208WAT     H245867   9.814   7.712   3.147
15209WAT      O45868   6.438   3.603   0.501
15209WAT     H145869   6.350   3.555   0.502
15209WAT     H245870   6.509   3.542   0.467
15210WAT      O45871   8.955   8.133   5.915
15210WAT     H145872   8.902   8.208   5.955
15210WAT     H245873   9.043   8.126   5.961
15211WAT      O45874   9.369   2.919   7.841
15211WAT     H145875   9.467   2.898   7.848
15211WAT     H245876   9.345   2.987   7.910
15212WAT      O45877   6.082   5.470   2.292
15212WAT     H145878   6.118   5.551   2.245
15212WAT     H245879   6.049   5.405   2.223
15213WAT      O45880   7.610   0.062   5.107
15213WAT     H145881   7.517   0.095   5.127
15213WAT     H245882   7.676   0.132   5.133
15214WAT      O45883   4.746   9.681   9.551
15214WAT     H145884   4.745   9.693   9.452
15214WAT     H245885   4.840   9.683   9.584
15215WAT      O45886   3.924   6.683   7.678
15215WAT     H145887   3.856   6.670   7.605
15215WAT     H245888   3.996   6.745   7.647
15216WAT      O45889   3.647   4.340   3.262
15216WAT     H145890   3.691   4.274   3.200
15216WAT     H245891   3.586   4.291   3.324
15217WAT      O45892   1.207   0.306   8.759
15217WAT     H145893   1.203   0.239   8.686
15217WAT     H245894   1.251   0.265   8.839
15218WAT      O45895   9.350   0.166   0.550
15218WAT     H145896   9.332   0.254   0.505
15218WAT     H245897   9.389   0.182   0.641
15219WAT      O45898   6.878   4.676   0.532
15219WAT     H145899   6.823   4.599   0.501
15219WAT     H245900   6.934   4.648   0.610
15220WAT      O45901   8.591   4.496   6.494
15220WAT     H145902   8.615   4.496   6.397
15220WAT     H245903   8.669   4.467   6.548
15221WAT      O45904   1.009   3.668   9.443
15221WAT     H145905   0.947   3.682   9.365
15221WAT     H245906   0.956   3.670   9.528
15222WAT      O45907   9.181   9.806   0.459
15222WAT     H145908   9.234   9.871   0.513
15222WAT     H245909   9.234   9.721   0.448
15223WAT      O45910   9.073   6.171   8.542
15223WAT     H145911   9.150   6.108   8.532
15223WAT     H245912   9.073   6.237   8.467
15224WAT      O45913   8.890   8.887   7.882
15224WAT     H145914   8.795   8.914   7.870
15224WAT     H245915   8.894   8.793   7.916
15225WAT      O45916   2.575   0.643   4.414
15225WAT     H145917   2.656   0.587   4.393
15225WAT     H245918   2.604   0.727   4.458
15226WAT      O45919   7.103   1.537   1.978
15226WAT     H145920   7.036   1.507   1.911
15226WAT     H245921   7.107   1.637   1.979
15227WAT      O45922   1.665   0.612   4.697
15227WAT     H145923   1.571   0.642   4.686
15227WAT     H245924   1.711   0.610   4.608
15228WAT      O45925   1.702   0.931   1.120
15228WAT     H145926   1.756   0.858   1.077
15228WAT     H245927   1.751   0.966   1.200
15229WAT      O45928   5.828   5.683   2.661
15229WAT     H145929   5.819   5.583   2.663
15229WAT     H245930   5.922   5.708   2.685
15230WAT      O45931   0.710   0.814   9.365
15230WAT     H145932   0.740   0.733   9.315
15230WAT     H245933   0.771   0.890   9.344
15231WAT      O45934   4.662   9.261   2.393
15231WAT     H145935   4.637   9.300   2.482
15231WAT     H245936   4.661   9.161   2.400
15232WAT      O45937   5.055   2.840   3.898
15232WAT     H145938   5.042   2.792   3.984
15232WAT     H245939   5.060   2.939   3.915
15233WAT      O45940   3.083   6.308   5.184
15233WAT     H145941   3.009   6.241   5.176
15233WAT     H245942   3.069   6.381   5.117
15234WAT      O45943   8.174   5.914   1.713
15234WAT     H145944   8.230   5.905   1.631
15234WAT     H245945   8.193   5.837   1.775
15235WAT      O45946   5.223   2.128   2.366
15235WAT     H145947   5.197   2.146   2.461
15235WAT     H245948   5.229   2.029   2.351
15236WAT      O45949   0.167   5.077   4.721
15236WAT     H145950   0.203   5.170   4.720
15236WAT     H245951   0.219   5.021   4.656
15237WAT      O45952   4.764   8.989   8.635
15237WAT     H145953   4.805   8.919   8.576
15237WAT     H245954   4.711   8.944   8.707
15238WAT      O45955   0.408   4.163   0.813
15238WAT     H145956   0.344   4.223   0.766
15238WAT     H245957   0.361   4.113   0.886
15239WAT      O45958   8.788   9.329   4.639
15239WAT     H145959   8.780   9.318   4.540
15239WAT     H245960   8.885   9.335   4.664
15240WAT      O45961   4.674   8.717   5.418
15240WAT     H145962   4.700   8.663   5.498
15240WAT     H245963   4.757   8.744   5.368
15241WAT      O45964   9.664   4.942   2.651
15241WAT     H145965   9.569   4.925   2.677
15241WAT     H245966   9.703   5.012   2.710
15242WAT      O45967   2.876   4.318   0.826
15242WAT     H145968   2.942   4.314   0.902
15242WAT     H245969   2.784   4.330   0.863
15243WAT      O45970   5.493   7.895   1.598
15243WAT     H145971   5.508   7.915   1.694
15243WAT     H245972   5.502   7.797   1.582
15244WAT      O45973   4.774   3.324   2.391
15244WAT     H145974   4.706   3.295   2.323
15244WAT     H245975   4.803   3.245   2.445
15245WAT      O45976   6.478   7.742   7.121
15245WAT     H145977   6.395   7.733   7.175
15245WAT     H245978   6.502   7.654   7.081
15246WAT      O45979   4.944   9.613   1.748
15246WAT     H145980   4.886   9.587   1.825
15246WAT     H245981   4.898   9.683   1.694
15247WAT      O45982   4.556   8.256   8.688
15247WAT     H145983   4.621   8.318   8.644
15247WAT     H245984   4.555   8.273   8.787
15248WAT      O45985   3.772   2.703   5.487
15248WAT     H145986   3.693   2.698   5.548
15248WAT     H245987   3.754   2.767   5.413
15249WAT      O45988   3.338   3.937   7.558
15249WAT     H145989   3.239   3.942   7.573
15249WAT     H245990   3.373   3.850   7.593
15250WAT      O45991   2.538   8.696   1.065
15250WAT     H145992   2.551   8.781   1.117
15250WAT     H245993   2.623   8.673   1.017
15251WAT      O45994   0.048   4.238   8.595
15251WAT     H145995   0.035   4.336   8.578
15251WAT     H245996   0.144   4.220   8.614
15252WAT      O45997   0.913   0.291   4.151
15252WAT     H145998   0.959   0.300   4.239
15252WAT     H245999   0.968   0.233   4.090
15253WAT      O46000   2.850   4.198   8.884
15253WAT     H146001   2.911   4.193   8.963
15253WAT     H246002   2.829   4.293   8.864
15254WAT      O46003   6.011   6.594   2.560
15254WAT     H146004   6.078   6.593   2.634
15254WAT     H246005   6.038   6.662   2.491
15255WAT      O46006   1.640   3.406   9.313
15255WAT     H146007   1.668   3.361   9.228
15255WAT     H246008   1.667   3.502   9.310
15256WAT      O46009   4.222   7.487   4.126
15256WAT     H146010   4.162   7.566   4.116
15256WAT     H246011   4.290   7.505   4.197
15257WAT      O46012   2.162   4.397   2.399
15257WAT     H146013   2.231   4.325   2.387
15257WAT     H246014   2.079   4.372   2.349
15258WAT      O46015   6.965   7.538   1.001
15258WAT     H146016   6.910   7.493   0.930
15258WAT     H246017   7.023   7.608   0.958
15259WAT      O46018   7.869   9.397   8.766
15259WAT     H146019   7.824   9.414   8.853
15259WAT     H246020   7.804   9.408   8.691
15260WAT      O46021   1.223   0.124   4.231
15260WAT     H146022   1.214   0.055   4.303
15260WAT     H246023   1.284   0.090   4.160
15261WAT      O46024   7.374   6.158   6.984
15261WAT     H146025   7.415   6.152   7.075
15261WAT     H246026   7.354   6.066   6.950
15262WAT      O46027   8.994   7.514   5.796
15262WAT     H146028   8.958   7.480   5.883
15262WAT     H246029   8.981   7.613   5.791
15263WAT      O46030   8.398   7.623   8.788
15263WAT     H146031   8.481   7.675   8.769
15263WAT     H246032   8.333   7.680   8.838
15264WAT      O46033   1.988   7.135   8.201
15264WAT     H146034   1.894   7.108   8.176
15264WAT     H246035   2.004   7.115   8.297
15265WAT      O46036   5.259   9.827   0.892
15265WAT     H146037   5.259   9.830   0.992
15265WAT     H246038   5.166   9.808   0.860
15266WAT      O46039   0.153   6.922   1.015
15266WAT     H146040   0.164   6.845   1.078
15266WAT     H246041   0.241   6.969   1.004
15267WAT      O46042   1.415   6.540   7.690
15267WAT     H146043   1.436   6.472   7.761
15267WAT     H246044   1.318   6.534   7.666
15268WAT      O46045   1.793   7.635   0.425
15268WAT     H146046   1.832   7.668   0.511
15268WAT     H246047   1.726   7.701   0.391
15269WAT      O46048   3.688   4.956   0.881
15269WAT     H146049   3.701   4.915   0.971
15269WAT     H246050   3.736   4.902   0.812
15270WAT      O46051   1.689   0.622   3.461
15270WAT     H146052   1.741   0.626   3.546
15270WAT     H246053   1.673   0.527   3.436
15271WAT      O46054   1.215   0.235   3.348
15271WAT     H146055   1.292   0.198   3.400
15271WAT     H246056   1.249   0.297   3.277
15272WAT      O46057   9.532   7.137   7.808
15272WAT     H146058   9.619   7.163   7.768
15272WAT     H246059   9.461   7.135   7.737
15273WAT      O46060   3.154   3.702   3.618
15273WAT     H146061   3.217   3.774   3.590
15273WAT     H246062   3.104   3.668   3.539
15274WAT      O46063   4.837   5.259   7.004
15274WAT     H146064   4.929   5.274   6.967
15274WAT     H246065   4.780   5.338   6.982
15275WAT      O46066   5.126   0.175   8.959
15275WAT     H146067   5.086   0.256   9.003
15275WAT     H246068   5.200   0.203   8.898
15276WAT      O46069   5.863   2.608   6.594
15276WAT     H146070   5.883   2.540   6.665
15276WAT     H246071   5.770   2.593   6.558
15277WAT      O46072   6.149   1.937   9.009
15277WAT     H146073   6.217   1.914   8.939
15277WAT     H246074   6.125   2.034   9.002
15278WAT      O46075   2.729   1.024   0.921
15278WAT     H146076   2.785   1.106   0.921
15278WAT     H246077   2.750   0.969   1.002
15279WAT      O46078   8.966   4.387   0.222
15279WAT     H146079   8.908   4.306   0.212
15279WAT     H246080   9.059   4.359   0.247
15280WAT      O46081   3.645   2.922   7.027
15280WAT     H146082   3.740   2.890   7.028
15280WAT     H246083   3.631   2.981   6.947
15281WAT      O46084   7.018   3.208   6.192
15281WAT     H146085   6.928   3.229   6.229
15281WAT     H246086   7.070   3.293   6.183
15282WAT      O46087   4.317   7.939   6.638
15282WAT     H146088   4.365   7.868   6.691
15282WAT     H246089   4.219   7.935   6.660
15283WAT      O46090   0.939   6.851   4.195
15283WAT     H146091   0.954   6.865   4.292
15283WAT     H246092   0.872   6.777   4.182
15284WAT      O46093   1.209   7.955   3.435
15284WAT     H146094   1.137   7.899   3.393
15284WAT     H246095   1.269   7.991   3.363
15285WAT      O46096   1.909   6.223   5.387
15285WAT     H146097   1.903   6.225   5.487
15285WAT     H246098   1.846   6.289   5.348
15286WAT      O46099   6.865   6.551   6.260
15286WAT     H146100   6.911   6.639   6.274
15286WAT     H246101   6.850   6.506   6.348
15287WAT      O46102   5.851   4.184   9.571
15287WAT     H146103   5.786   4.122   9.527
15287WAT     H246104   5.819   4.278   9.562
15288WAT      O46105   6.966   2.745   8.340
15288WAT     H146106   6.988   2.688   8.419
15288WAT     H246107   6.867   2.759   8.335
15289WAT      O46108   6.145   5.318   0.404
15289WAT     H146109   6.107   5.409   0.386
15289WAT     H246110   6.239   5.327   0.435
15290WAT      O46111   6.206   6.631   1.424
15290WAT     H146112   6.265   6.564   1.469
15290WAT     H246113   6.124   6.586   1.390
15291WAT      O46114   2.541   5.052   0.055
15291WAT     H146115   2.551   5.140   0.009
15291WAT     H246116   2.606   5.046   0.131
15292WAT      O46117   9.157   5.988   5.452
15292WAT     H146118   9.242   6.020   5.410
15292WAT     H246119   9.083   6.051   5.430
15293WAT      O46120   3.319   3.930   7.101
15293WAT     H146121   3.344   3.853   7.043
15293WAT     H246122   3.376   3.929   7.183
15294WAT      O46123   1.959   4.883   1.020
15294WAT     H146124   1.929   4.806   0.964
15294WAT     H246125   1.947   4.860   1.117
15295WAT      O46126   1.175   1.306   7.780
15295WAT     H146127   1.268   1.341   7.770
15295WAT     H246128   1.116   1.349   7.712
15296WAT      O46129   5.188   9.069   8.064
15296WAT     H146130   5.255   9.141   8.049
15296WAT     H246131   5.126   9.095   8.137
15297WAT      O46132   6.127   5.258   1.165
15297WAT     H146133   6.175   5.339   1.133
15297WAT     H246134   6.034   5.257   1.127
15298WAT      O46135   4.595   4.775   1.834
15298WAT     H146136   4.678   4.831   1.834
15298WAT     H246137   4.558   4.769   1.927
15299WAT      O46138   4.795   8.535   9.122
15299WAT     H146139   4.720   8.528   9.188
15299WAT     H246140   4.786   8.620   9.071
15300WAT      O46141   1.342   7.094   8.987
15300WAT     H146142   1.242   7.093   8.983
15300WAT     H246143   1.375   7.005   9.017
15301WAT      O46144   3.013   0.147   2.873
15301WAT     H146145   2.932   0.195   2.838
15301WAT     H246146   3.037   0.072   2.811
15302WAT      O46147   9.407   9.444   1.389
15302WAT     H146148   9.442   9.529   1.429
15302WAT     H246149   9.424   9.444   1.291
15303WAT      O46150   1.115   0.751   2.520
15303WAT     H146151   1.152   0.803   2.597
15303WAT     H246152   1.136   0.654   2.533
15304WAT      O46153   6.791   0.988   5.677
15304WAT     H146154   6.742   0.933   5.745
15304WAT     H246155   6.877   1.020   5.715
15305WAT      O46156   2.101   5.832   3.864
15305WAT     H146157   2.038   5.759   3.840
15305WAT     H246158   2.127   5.825   3.960
15306WAT      O46159   1.189   1.071   0.598
15306WAT     H146160   1.281   1.110   0.599
15306WAT     H246161   1.122   1.142   0.615
15307WAT      O46162   7.648   5.446   8.260
15307WAT     H146163   7.721   5.466   8.194
15307WAT     H246164   7.633   5.527   8.317
15308WAT      O46165   2.221   9.402   0.056
15308WAT     H146166   2.132   9.425   0.017
15308WAT     H246167   2.221   9.422   0.154
15309WAT      O46168   6.359   8.938   5.767
15309WAT     H146169   6.434   8.925   5.832
15309WAT     H246170   6.375   8.883   5.685
15310WAT      O46171   9.766   2.688   8.306
15310WAT     H146172   9.725   2.684   8.397
15310WAT     H246173   9.864   2.704   8.315
15311WAT      O46174   0.248   6.803   6.939
15311WAT     H146175   0.324   6.801   6.874
15311WAT     H246176   0.260   6.730   7.007
15312WAT      O46177   4.729   3.824   4.055
15312WAT     H146178   4.798   3.854   3.990
15312WAT     H246179   4.720   3.724   4.051
15313WAT      O46180   0.337   3.568   7.170
15313WAT     H146181   0.406   3.573   7.098
15313WAT     H246182   0.302   3.659   7.190
15314WAT      O46183   0.282   3.509   0.214
15314WAT     H146184   0.345   3.563   0.160
15314WAT     H246185   0.328   3.476   0.297
15315WAT      O46186   8.000   7.717   6.622
15315WAT     H146187   7.990   7.809   6.660
15315WAT     H246188   7.935   7.655   6.665
15316WAT      O46189   1.679   3.665   6.824
15316WAT     H146190   1.592   3.615   6.822
15316WAT     H246191   1.683   3.722   6.906
15317WAT      O46192   7.794   4.669   0.453
15317WAT     H146193   7.853   4.662   0.533
15317WAT     H246194   7.705   4.704   0.481
15318WAT      O46195   8.092   0.601   5.698
15318WAT     H146196   8.078   0.692   5.737
15318WAT     H246197   8.056   0.598   5.605
15319WAT      O46198   5.474   6.726   4.487
15319WAT     H146199   5.446   6.711   4.393
15319WAT     H246200   5.514   6.642   4.524
15320WAT      O46201   5.514   1.835   9.124
15320WAT     H146202   5.580   1.908   9.107
15320WAT     H246203   5.499   1.825   9.222
15321WAT      O46204   1.800   2.320   2.608
15321WAT     H146205   1.705   2.296   2.627
15321WAT     H246206   1.833   2.268   2.529
15322WAT      O46207   7.742   0.479   3.816
15322WAT     H146208   7.670   0.508   3.754
15322WAT     H246209   7.729   0.522   3.906
15323WAT      O46210   6.798   5.443   7.087
15323WAT     H146211   6.849   5.510   7.032
15323WAT     H246212   6.837   5.352   7.074
15324WAT      O46213   1.683   1.033   7.279
15324WAT     H146214   1.782   1.019   7.288
15324WAT     H246215   1.638   0.944   7.272
15325WAT      O46216   1.252   7.482   5.335
15325WAT     H146217   1.329   7.419   5.324
15325WAT     H246218   1.189   7.446   5.404
15326WAT      O46219   5.424   3.205   7.726
15326WAT     H146220   5.466   3.136   7.667
15326WAT     H246221   5.393   3.282   7.671
15327WAT      O46222   2.534   7.027   4.985
15327WAT     H146223   2.617   6.974   5.000
15327WAT     H246224   2.523   7.046   4.888
15328WAT      O46225   6.450   4.750   1.440
15328WAT     H146226   6.416   4.699   1.361
15328WAT     H246227   6.522   4.697   1.485
15329WAT      O46228   9.224   4.350   7.232
15329WAT     H146229   9.280   4.287   7.180
15329WAT     H246230   9.237   4.333   7.330
15330WAT      O46231   7.172   7.505   4.896
15330WAT     H146232   7.193   7.410   4.872
15330WAT     H246233   7.252   7.562   4.877
15331WAT      O46234   0.409   2.070   8.232
15331WAT     H146235   0.474   2.027   8.170
15331WAT     H246236   0.458   2.118   8.304
15332WAT      O46237   8.802   6.587   3.023
15332WAT     H146238   8.718   6.608   3.072
15332WAT     H246239   8.880   6.627   3.071
15333WAT      O46240   5.621   3.868   0.474
15333WAT     H146241   5.524   3.892   0.476
15333WAT     H246242   5.656   3.878   0.380
15334WAT      O46243   3.074   1.381   7.055
15334WAT     H146244   3.068   1.453   7.125
15334WAT     H246245   3.024   1.301   7.086
15335WAT      O46246   3.151   8.096   7.539
15335WAT     H146247   3.208   8.106   7.620
15335WAT     H246248   3.183   8.018   7.485
15336WAT      O46249   1.381   5.772   1.762
15336WAT     H146250   1.399   5.714   1.683
15336WAT     H246251   1.373   5.867   1.732
15337WAT      O46252   3.287   7.053   5.419
15337WAT     H146253   3.256   7.134   5.369
15337WAT     H246254   3.387   7.048   5.414
15338WAT      O46255   9.276   9.191   8.171
15338WAT     H146256   9.315   9.150   8.088
15338WAT     H246257   9.178   9.205   8.158
15339WAT      O46258   0.580   2.894   6.653
15339WAT     H146259   0.494   2.936   6.623
15339WAT     H246260   0.653   2.921   6.590
15340WAT      O46261   4.945   6.912   4.524
15340WAT     H146262   4.977   7.001   4.556
15340WAT     H246263   5.022   6.848   4.519
15341WAT      O46264   1.010   0.816   9.169
15341WAT     H146265   1.033   0.760   9.090
15341WAT     H246266   1.005   0.758   9.250
15342WAT      O46267   9.340   1.200   2.674
15342WAT     H146268   9.362   1.294   2.697
15342WAT     H246269   9.341   1.144   2.757
15343WAT      O46270   3.555   8.683   6.837
15343WAT     H146271   3.602   8.758   6.884
15343WAT     H246272   3.617   8.642   6.771
15344WAT      O46273   7.047   0.037   0.369
15344WAT     H146274   7.110   0.101   0.325
15344WAT     H246275   6.982   0.089   0.425
15345WAT      O46276   3.140   3.853   2.898
15345WAT     H146277   3.216   3.835   2.835
15345WAT     H246278   3.176   3.870   2.990
15346WAT      O46279   1.846   1.057   9.858
15346WAT     H146280   1.906   0.989   9.817
15346WAT     H246281   1.762   1.064   9.806
15347WAT      O46282   6.946   5.036   0.605
15347WAT     H146283   6.901   4.982   0.676
15347WAT     H246284   7.034   5.069   0.639
15348WAT      O46285   8.761   2.698   7.135
15348WAT     H146286   8.811   2.780   7.109
15348WAT     H246287   8.760   2.690   7.234
15349WAT      O46288   4.320   6.502   3.534
15349WAT     H146289   4.286   6.434   3.470
15349WAT     H246290   4.412   6.476   3.565
15350WAT      O46291   9.126   7.811   0.230
15350WAT     H146292   9.153   7.728   0.181
15350WAT     H246293   9.206   7.851   0.274
15351WAT      O46294   8.226   4.315   2.403
15351WAT     H146295   8.173   4.266   2.335
15351WAT     H246296   8.254   4.404   2.366
15352WAT      O46297   8.457   0.148   8.889
15352WAT     H146298   8.374   0.141   8.834
15352WAT     H246299   8.488   0.057   8.916
15353WAT      O46300   5.552   3.925   5.311
15353WAT     H146301   5.551   4.021   5.340
15353WAT     H246302   5.515   3.918   5.218
15354WAT      O46303   0.297   2.562   2.082
15354WAT     H146304   0.353   2.488   2.045
15354WAT     H246305   0.211   2.525   2.117
15355WAT      O46306   1.911   2.698   7.465
15355WAT     H146307   1.846   2.624   7.449
15355WAT     H246308   2.000   2.660   7.489
15356WAT      O46309   2.552   6.896   6.961
15356WAT     H146310   2.639   6.847   6.958
15356WAT     H246311   2.513   6.900   6.868
15357WAT      O46312   8.703   3.740   5.299
15357WAT     H146313   8.715   3.832   5.262
15357WAT     H246314   8.635   3.691   5.244
15358WAT      O46315   2.315   6.040   4.445
15358WAT     H146316   2.329   6.001   4.536
15358WAT     H246317   2.398   6.029   4.391
15359WAT      O46318   1.267   7.146   8.553
15359WAT     H146319   1.315   7.228   8.582
15359WAT     H246320   1.222   7.163   8.466
15360WAT      O46321   9.474   1.092   5.910
15360WAT     H146322   9.498   1.152   5.987
15360WAT     H246323   9.426   1.012   5.944
15361WAT      O46324   1.283   3.015   0.006
15361WAT     H146325   1.272   3.009  -0.093
15361WAT     H246326   1.365   2.966   0.034
15362WAT      O46327   9.471   7.802   4.992
15362WAT     H146328   9.522   7.832   4.912
15362WAT     H246329   9.529   7.805   5.073
15363WAT      O46330   9.570   3.539   6.010
15363WAT     H146331   9.658   3.494   5.998
15363WAT     H246332   9.497   3.471   6.007
15364WAT      O46333   0.732   9.490   0.329
15364WAT     H146334   0.817   9.474   0.279
15364WAT     H246335   0.659   9.433   0.291
15365WAT      O46336   6.377   7.655   5.946
15365WAT     H146337   6.415   7.616   6.030
15365WAT     H246338   6.289   7.697   5.965
15366WAT      O46339   9.484   6.453   6.678
15366WAT     H146340   9.567   6.487   6.633
15366WAT     H246341   9.411   6.520   6.669
15367WAT      O46342   4.243   7.049   7.145
15367WAT     H146343   4.277   6.997   7.067
15367WAT     H246344   4.176   7.116   7.113
15368WAT      O46345   1.940   3.196   0.311
15368WAT     H146346   1.921   3.114   0.364
15368WAT     H246347   1.855   3.245   0.292
15369WAT      O46348   3.378   1.663   3.265
15369WAT     H146349   3.442   1.648   3.341
15369WAT     H246350   3.300   1.601   3.274
15370WAT      O46351   2.187   8.098   8.679
15370WAT     H146352   2.204   8.135   8.770
15370WAT     H246353   2.270   8.054   8.645
15371WAT      O46354   1.674   4.675   0.443
15371WAT     H146355   1.722   4.591   0.418
15371WAT     H246356   1.595   4.652   0.501
15372WAT      O46357   9.479   3.825   7.380
15372WAT     H146358   9.537   3.744   7.378
15372WAT     H246359   9.427   3.827   7.466
15373WAT      O46360   1.392   3.793   4.875
15373WAT     H146361   1.314   3.740   4.908
15373WAT     H246362   1.436   3.745   4.799
15374WAT      O46363   0.841   9.007   6.205
15374WAT     H146364   0.812   9.102   6.206
15374WAT     H246365   0.911   8.993   6.274
15375WAT      O46366   4.264   7.906   5.980
15375WAT     H146367   4.278   7.809   5.959
15375WAT     H246368   4.168   7.922   6.001
15376WAT      O46369   9.416   5.017   0.020
15376WAT     H146370   9.476   5.074  -0.035
15376WAT     H246371   9.471   4.954   0.076
15377WAT      O46372   9.549   0.384   3.830
15377WAT     H146373   9.638   0.339   3.827
15377WAT     H246374   9.515   0.383   3.924
15378WAT      O46375   0.644   8.232   2.782
15378WAT     H146376   0.689   8.276   2.859
15378WAT     H246377   0.545   8.237   2.793
15379WAT      O46378   5.427   9.179   3.121
15379WAT     H146379   5.522   9.175   3.091
15379WAT     H246380   5.421   9.230   3.207
15380WAT      O46381   0.453   1.508   8.230
15380WAT     H146382   0.468   1.506   8.329
15380WAT     H246383   0.499   1.430   8.187
15381WAT      O46384   4.252   1.321   9.510
15381WAT     H146385   4.228   1.347   9.416
15381WAT     H246386   4.168   1.315   9.565
15382WAT      O46387   8.476   8.529   0.731
15382WAT     H146388   8.575   8.522   0.745
15382WAT     H246389   8.456   8.603   0.667
15383WAT      O46390   4.381   5.580   1.023
15383WAT     H146391   4.388   5.668   1.071
15383WAT     H246392   4.466   5.529   1.036
15384WAT      O46393   4.034   9.656   1.797
15384WAT     H146394   4.028   9.557   1.810
15384WAT     H246395   4.125   9.679   1.762
15385WAT      O46396   6.311   0.071   5.100
15385WAT     H146397   6.372   0.043   5.026
15385WAT     H246398   6.320   0.008   5.177
15386WAT      O46399   2.425   7.804   2.087
15386WAT     H146400   2.334   7.841   2.107
15386WAT     H246401   2.423   7.758   1.998
15387WAT      O46402   4.905   9.329   7.568
15387WAT     H146403   4.955   9.280   7.496
15387WAT     H246404   4.810   9.339   7.541
15388WAT      O46405   0.220   6.912   1.939
15388WAT     H146406   0.266   6.985   1.990
15388WAT     H246407   0.211   6.832   1.998
15389WAT      O46408   8.157   6.247   1.278
15389WAT     H146409   8.086   6.180   1.258
15389WAT     H246410   8.139   6.332   1.227
15390WAT      O46411   4.308   6.132   0.277
15390WAT     H146412   4.287   6.204   0.343
15390WAT     H246413   4.314   6.172   0.186
15391WAT      O46414   0.625   0.411   3.228
15391WAT     H146415   0.641   0.315   3.205
15391WAT     H246416   0.534   0.422   3.266
15392WAT      O46417   5.767   7.452   0.249
15392WAT     H146418   5.829   7.506   0.192
15392WAT     H246419   5.689   7.508   0.277
15393WAT      O46420   8.481   9.311   1.699
15393WAT     H146421   8.446   9.236   1.755
15393WAT     H246422   8.417   9.387   1.703
15394WAT      O46423   2.183   6.040   8.159
15394WAT     H146424   2.223   5.951   8.179
15394WAT     H246425   2.131   6.035   8.074
15395WAT      O46426   0.166   5.846   9.467
15395WAT     H146427   0.077   5.887   9.449
15395WAT     H246428   0.160   5.790   9.550
15396WAT      O46429   6.726   7.545   3.857
15396WAT     H146430   6.627   7.550   3.864
15396WAT     H246431   6.758   7.461   3.902
15397WAT      O46432   4.332   5.878   7.812
15397WAT     H146433   4.316   5.784   7.843
15397WAT     H246434   4.427   5.888   7.782
15398WAT      O46435   6.096   7.904   3.441
15398WAT     H146436   6.137   7.941   3.358
15398WAT     H246437   6.111   7.968   3.517
15399WAT      O46438   8.628   7.455   8.695
15399WAT     H146439   8.639   7.359   8.722
15399WAT     H246440   8.570   7.502   8.760
15400WAT      O46441   0.477   2.935   8.937
15400WAT     H146442   0.403   2.920   9.002
15400WAT     H246443   0.565   2.930   8.984
15401WAT      O46444   2.686   0.914   3.320
15401WAT     H146445   2.616   0.854   3.360
15401WAT     H246446   2.775   0.890   3.357
15402WAT      O46447   4.363   1.757   0.534
15402WAT     H146448   4.317   1.772   0.447
15402WAT     H246449   4.348   1.662   0.564
15403WAT      O46450   3.436   2.234   9.080
15403WAT     H146451   3.439   2.309   9.146
15403WAT     H246452   3.416   2.148   9.127
15404WAT      O46453   7.379   6.329   4.005
15404WAT     H146454   7.433   6.262   3.953
15404WAT     H246455   7.440   6.401   4.039
15405WAT      O46456   2.448   2.343   0.265
15405WAT     H146457   2.508   2.354   0.344
15405WAT     H246458   2.391   2.425   0.255
15406WAT      O46459   3.579   6.713   5.433
15406WAT     H146460   3.662   6.709   5.378
15406WAT     H246461   3.548   6.808   5.441
15407WAT      O46462   7.325   8.707   3.022
15407WAT     H146463   7.328   8.807   3.026
15407WAT     H246464   7.372   8.669   3.101
15408WAT      O46465   3.580   0.304   3.388
15408WAT     H146466   3.541   0.396   3.385
15408WAT     H246467   3.592   0.270   3.295
15409WAT      O46468   6.160   9.806   7.329
15409WAT     H146469   6.163   9.886   7.269
15409WAT     H246470   6.254   9.780   7.353
15410WAT      O46471   5.445   0.898   4.547
15410WAT     H146472   5.540   0.867   4.555
15410WAT     H246473   5.441   0.976   4.485
15411WAT      O46474   4.156   2.301   8.714
15411WAT     H146475   4.200   2.266   8.796
15411WAT     H246476   4.075   2.354   8.740
15412WAT      O46477   1.985   0.375   2.235
15412WAT     H146478   1.886   0.390   2.227
15412WAT     H246479   2.008   0.284   2.201
15413WAT      O46480   0.258   4.377   8.892
15413WAT     H146481   0.159   4.390   8.902
15413WAT     H246482   0.303   4.404   8.977
15414WAT      O46483   2.585   7.291   4.549
15414WAT     H146484   2.501   7.343   4.533
15414WAT     H246485   2.631   7.275   4.462
15415WAT      O46486   2.621   9.119   3.915
15415WAT     H146487   2.628   9.164   4.004
15415WAT     H246488   2.561   9.040   3.923
15416WAT      O46489   5.882   6.361   7.297
15416WAT     H146490   5.975   6.373   7.262
15416WAT     H246491   5.848   6.450   7.329
15417WAT      O46492   1.342   9.316   9.002
15417WAT     H146493   1.329   9.329   9.101
15417WAT     H246494   1.438   9.290   8.985
15418WAT      O46495   2.653   7.279   2.423
15418WAT     H146496   2.694   7.242   2.340
15418WAT     H246497   2.605   7.207   2.473
15419WAT      O46498   4.800   0.826   6.729
15419WAT     H146499   4.886   0.872   6.705
15419WAT     H246500   4.764   0.779   6.648
15420WAT      O46501   0.027   2.111   7.879
15420WAT     H146502  -0.004   2.017   7.894
15420WAT     H246503   0.096   2.135   7.947
15421WAT      O46504   2.869   0.261   7.566
15421WAT     H146505   2.943   0.204   7.602
15421WAT     H246506   2.783   0.234   7.610
15422WAT      O46507   3.501   1.097   9.063
15422WAT     H146508   3.504   0.998   9.049
15422WAT     H246509   3.594   1.134   9.061
15423WAT      O46510   0.289   6.075   9.395
15423WAT     H146511   0.261   5.983   9.421
15423WAT     H246512   0.272   6.138   9.471
15424WAT      O46513   8.336   0.732   8.291
15424WAT     H146514   8.249   0.720   8.244
15424WAT     H246515   8.320   0.767   8.383
15425WAT      O46516   3.622   4.473   9.638
15425WAT     H146517   3.583   4.406   9.576
15425WAT     H246518   3.554   4.543   9.659
15426WAT      O46519   9.337   1.196   6.986
15426WAT     H146520   9.339   1.143   7.071
15426WAT     H246521   9.293   1.142   6.915
15427WAT      O46522   0.759   8.015   0.987
15427WAT     H146523   0.781   7.926   1.027
15427WAT     H246524   0.837   8.077   0.998
15428WAT      O46525   5.408   1.620   5.017
15428WAT     H146526   5.319   1.603   5.060
15428WAT     H246527   5.473   1.651   5.087
15429WAT      O46528   5.701   5.275   1.238
15429WAT     H146529   5.750   5.219   1.305
15429WAT     H246530   5.606   5.243   1.232
15430WAT      O46531   4.818   1.704   4.329
15430WAT     H146532   4.915   1.682   4.325
15430WAT     H246533   4.802   1.774   4.399
15431WAT      O46534   9.055   2.193   9.786
15431WAT     H146535   9.043   2.246   9.870
15431WAT     H246536   9.152   2.190   9.762
15432WAT      O46537   2.286   2.503   4.685
15432WAT     H146538   2.364   2.456   4.725
15432WAT     H246539   2.229   2.542   4.757
15433WAT      O46540   5.178   6.978   2.901
15433WAT     H146541   5.219   6.960   2.991
15433WAT     H246542   5.248   7.008   2.837
15434WAT      O46543   8.229   0.846   2.582
15434WAT     H146544   8.165   0.794   2.526
15434WAT     H246545   8.321   0.836   2.544
15435WAT      O46546   2.983   5.793   6.743
15435WAT     H146547   2.989   5.845   6.657
15435WAT     H246548   3.053   5.826   6.806
15436WAT      O46549   6.494   0.862   3.405
15436WAT     H146550   6.505   0.952   3.448
15436WAT     H246551   6.457   0.797   3.472
15437WAT      O46552   2.459   8.446   2.380
15437WAT     H146553   2.500   8.355   2.379
15437WAT     H246554   2.367   8.442   2.340
15438WAT      O46555   6.122   5.138   8.164
15438WAT     H146556   6.153   5.113   8.073
15438WAT     H246557   6.033   5.096   8.183
15439WAT      O46558   2.239   5.695   5.972
15439WAT     H146559   2.180   5.713   5.893
15439WAT     H246560   2.218   5.761   6.044
15440WAT      O46561   3.826   0.143   4.776
15440WAT     H146562   3.908   0.171   4.826
15440WAT     H246563   3.769   0.223   4.758
15441WAT      O46564   8.015   0.535   7.303
15441WAT     H146565   7.922   0.496   7.298
15441WAT     H246566   8.015   0.612   7.367
15442WAT      O46567   7.877   4.675   4.934
15442WAT     H146568   7.970   4.671   4.970
15442WAT     H246569   7.825   4.745   4.983
15443WAT      O46570   1.431   2.805   2.859
15443WAT     H146571   1.386   2.861   2.928
15443WAT     H246572   1.479   2.729   2.904
15444WAT      O46573   4.677   1.406   9.592
15444WAT     H146574   4.670   1.459   9.508
15444WAT     H246575   4.693   1.468   9.669
15445WAT      O46576   7.763   1.342   1.438
15445WAT     H146577   7.784   1.261   1.493
15445WAT     H246578   7.721   1.314   1.352
15446WAT      O46579   1.362   4.415   3.446
15446WAT     H146580   1.282   4.475   3.443
15446WAT     H246581   1.393   4.398   3.353
15447WAT      O46582   6.581   0.320   6.840
15447WAT     H146583   6.576   0.246   6.907
15447WAT     H246584   6.544   0.289   6.753
15448WAT      O46585   5.401   8.234   8.501
15448WAT     H146586   5.442   8.193   8.582
15448WAT     H246587   5.462   8.302   8.462
15449WAT      O46588   7.731   2.506   2.127
15449WAT     H146589   7.784   2.590   2.113
15449WAT     H246590   7.759   2.464   2.213
15450WAT      O46591   5.357   2.480   6.076
15450WAT     H146592   5.454   2.484   6.050
15450WAT     H246593   5.350   2.475   6.176
15451WAT      O46594   6.950   2.235   1.699
15451WAT     H146595   6.914   2.163   1.639
15451WAT     H246596   7.031   2.201   1.746
15452WAT      O46597   7.320   1.129   6.765
15452WAT     H146598   7.314   1.072   6.683
15452WAT     H246599   7.228   1.145   6.801
15453WAT      O46600   2.523   7.839   8.320
15453WAT     H146601   2.592   7.767   8.324
15453WAT     H246602   2.480   7.849   8.409
15454WAT      O46603   0.717   7.398   9.156
15454WAT     H146604   0.676   7.489   9.147
15454WAT     H246605   0.647   7.328   9.145
15455WAT      O46606   1.833   2.225   2.322
15455WAT     H146607   1.917   2.171   2.324
15455WAT     H246608   1.850   2.314   2.280
15456WAT      O46609   2.158   1.068   4.845
15456WAT     H146610   2.209   0.982   4.850
15456WAT     H246611   2.118   1.078   4.754
15457WAT      O46612   7.885   1.933   0.764
15457WAT     H146613   7.881   1.833   0.763
15457WAT     H246614   7.908   1.965   0.672
15458WAT      O46615   4.251   0.422   7.787
15458WAT     H146616   4.192   0.413   7.707
15458WAT     H246617   4.205   0.385   7.867
15459WAT      O46618   9.731   2.790   7.342
15459WAT     H146619   9.752   2.720   7.273
15459WAT     H246620   9.752   2.880   7.306
15460WAT      O46621   0.909   9.440   1.449
15460WAT     H146622   0.946   9.513   1.391
15460WAT     H246623   0.980   9.372   1.466
15461WAT      O46624   0.726   8.871   0.544
15461WAT     H146625   0.649   8.855   0.605
15461WAT     H246626   0.806   8.900   0.597
15462WAT      O46627   4.648   9.314   2.894
15462WAT     H146628   4.553   9.310   2.926
15462WAT     H246629   4.697   9.233   2.925
15463WAT      O46630   7.585   0.816   6.562
15463WAT     H146631   7.530   0.845   6.641
15463WAT     H246632   7.599   0.893   6.500
15464WAT      O46633   8.724   4.703   6.050
15464WAT     H146634   8.676   4.773   5.996
15464WAT     H246635   8.811   4.739   6.081
15465WAT      O46636   6.613   0.436   5.369
15465WAT     H146637   6.629   0.529   5.336
15465WAT     H246638   6.561   0.439   5.455
15466WAT      O46639   4.722   5.756   7.144
15466WAT     H146640   4.650   5.764   7.075
15466WAT     H246641   4.694   5.692   7.215
15467WAT      O46642   8.696   4.433   7.826
15467WAT     H146643   8.732   4.359   7.769
15467WAT     H246644   8.769   4.466   7.887
15468WAT      O46645   7.897   4.102   1.468
15468WAT     H146646   7.874   4.169   1.539
15468WAT     H246647   7.940   4.149   1.391
15469WAT      O46648   7.645   3.048   8.581
15469WAT     H146649   7.550   3.053   8.611
15469WAT     H246650   7.696   3.124   8.621
15470WAT      O46651   1.665   7.926   0.646
15470WAT     H146652   1.616   7.840   0.664
15470WAT     H246653   1.673   7.978   0.731
15471WAT      O46654   6.816   1.961   4.335
15471WAT     H146655   6.793   2.053   4.365
15471WAT     H246656   6.894   1.966   4.272
15472WAT      O46657   0.702   5.388   5.685
15472WAT     H146658   0.792   5.432   5.677
15472WAT     H246659   0.635   5.455   5.715
15473WAT      O46660   9.066   6.681   9.731
15473WAT     H146661   9.034   6.705   9.639
15473WAT     H246662   9.122   6.598   9.726
15474WAT      O46663   4.667   0.239   1.477
15474WAT     H146664   4.677   0.173   1.552
15474WAT     H246665   4.714   0.203   1.395
15475WAT      O46666   0.227   6.551   7.083
15475WAT     H146667   0.176   6.538   7.168
15475WAT     H246668   0.171   6.521   7.006
15476WAT      O46669   2.615   8.909   8.464
15476WAT     H146670   2.619   8.880   8.368
15476WAT     H246671   2.706   8.900   8.504
15477WAT      O46672   3.569   8.936   1.124
15477WAT     H146673   3.486   8.922   1.071
15477WAT     H246674   3.610   8.848   1.146
15478WAT      O46675   3.397   2.275   6.620
15478WAT     H146676   3.341   2.337   6.675
15478WAT     H246677   3.358   2.267   6.528
15479WAT      O46678   8.315   1.376   9.036
15479WAT     H146679   8.352   1.448   9.095
15479WAT     H246680   8.349   1.389   8.942
15480WAT      O46681   2.054   7.430   5.264
15480WAT     H146682   2.151   7.441   5.284
15480WAT     H246683   2.035   7.335   5.239
15481WAT      O46684   4.527   2.937   0.587
15481WAT     H146685   4.620   2.912   0.612
15481WAT     H246686   4.464   2.910   0.660
15482WAT      O46687   9.381   4.531   8.044
15482WAT     H146688   9.480   4.521   8.050
15482WAT     H246689   9.337   4.444   8.064
15483WAT      O46690   3.999   0.868   7.328
15483WAT     H146691   3.979   0.773   7.307
15483WAT     H246692   4.049   0.909   7.251
15484WAT      O46693   4.077   5.099   7.752
15484WAT     H146694   3.981   5.107   7.778
15484WAT     H246695   4.093   5.007   7.716
15485WAT      O46696   7.561   8.831   8.010
15485WAT     H146697   7.507   8.775   7.947
15485WAT     H246698   7.504   8.903   8.049
15486WAT      O46699   9.858   2.571   2.565
15486WAT     H146700   9.797   2.494   2.545
15486WAT     H246701   9.813   2.657   2.542
15487WAT      O46702   5.601   3.038   9.766
15487WAT     H146703   5.616   3.082   9.678
15487WAT     H246704   5.580   2.941   9.752
15488WAT      O46705   8.047   8.628   8.254
15488WAT     H146706   7.954   8.664   8.240
15488WAT     H246707   8.064   8.617   8.352
15489WAT      O46708   6.532   7.430   5.647
15489WAT     H146709   6.435   7.438   5.670
15489WAT     H246710   6.587   7.444   5.730
15490WAT      O46711   5.832   7.805   1.037
15490WAT     H146712   5.839   7.865   1.116
15490WAT     H246713   5.915   7.749   1.031
15491WAT      O46714   5.055   2.361   9.647
15491WAT     H146715   4.966   2.343   9.605
15491WAT     H246716   5.090   2.278   9.690
15492WAT      O46717   0.567   5.398   2.831
15492WAT     H146718   0.639   5.451   2.787
15492WAT     H246719   0.604   5.311   2.864
15493WAT      O46720   3.413   5.840   4.686
15493WAT     H146721   3.404   5.764   4.751
15493WAT     H246722   3.323   5.861   4.648
15494WAT      O46723   6.935   7.805   7.503
15494WAT     H146724   6.916   7.809   7.405
15494WAT     H246725   6.919   7.713   7.537
15495WAT      O46726   0.940   6.955   3.915
15495WAT     H146727   0.955   6.901   3.998
15495WAT     H246728   0.941   7.053   3.938
15496WAT      O46729   4.403   9.681   8.364
15496WAT     H146730   4.387   9.599   8.308
15496WAT     H246731   4.439   9.754   8.306
15497WAT      O46732   1.816   6.833   8.946
15497WAT     H146733   1.795   6.890   8.867
15497WAT     H246734   1.799   6.738   8.924
15498WAT      O46735   5.607   0.369   2.741
15498WAT     H146736   5.563   0.427   2.672
15498WAT     H246737   5.613   0.420   2.827
15499WAT      O46738   4.814   0.850   8.270
15499WAT     H146739   4.740   0.788   8.295
15499WAT     H246740   4.813   0.930   8.330
15500WAT      O46741   7.280   7.062   5.367
15500WAT     H146742   7.223   7.025   5.441
15500WAT     H246743   7.234   7.141   5.326
15501WAT      O46744   9.464   1.302   6.096
15501WAT     H146745   9.419   1.296   6.185
15501WAT     H246746   9.458   1.395   6.062
15502WAT      O46747   3.297   6.162   7.199
15502WAT     H146748   3.273   6.077   7.247
15502WAT     H246749   3.254   6.239   7.246
15503WAT      O46750   5.148   8.671   8.772
15503WAT     H146751   5.205   8.749   8.746
15503WAT     H246752   5.202   8.587   8.771
15504WAT      O46753   4.305   1.478   0.595
15504WAT     H146754   4.357   1.417   0.535
15504WAT     H246755   4.309   1.443   0.688
15505WAT      O46756   5.791   5.701   0.979
15505WAT     H146757   5.821   5.686   0.885
15505WAT     H246758   5.865   5.741   1.032
15506WAT      O46759   6.208   8.115   5.051
15506WAT     H146760   6.296   8.071   5.031
15506WAT     H246761   6.221   8.214   5.057
15507WAT      O46762   3.945   4.713   6.287
15507WAT     H146763   4.001   4.772   6.229
15507WAT     H246764   3.998   4.687   6.368
15508WAT      O46765   5.547   1.403   4.854
15508WAT     H146766   5.506   1.313   4.862
15508WAT     H246767   5.484   1.472   4.888
15509WAT      O46768   1.505   3.674   3.856
15509WAT     H146769   1.475   3.769   3.854
15509WAT     H246770   1.594   3.668   3.901
15510WAT      O46771   5.676   9.559   7.707
15510WAT     H146772   5.672   9.491   7.634
15510WAT     H246773   5.602   9.625   7.696
15511WAT      O46774   6.546   4.993   6.469
15511WAT     H146775   6.477   5.015   6.401
15511WAT     H246776   6.601   5.074   6.489
15512WAT      O46777   4.484   2.421   9.110
15512WAT     H146778   4.434   2.455   9.191
15512WAT     H246779   4.454   2.471   9.029
15513WAT      O46780   6.591   3.517   2.621
15513WAT     H146781   6.499   3.510   2.583
15513WAT     H246782   6.587   3.564   2.709
15514WAT      O46783   0.182   7.803   0.689
15514WAT     H146784   0.168   7.892   0.646
15514WAT     H246785   0.280   7.781   0.689
15515WAT      O46786   3.477   9.758   5.804
15515WAT     H146787   3.547   9.777   5.873
15515WAT     H246788   3.400   9.710   5.848
15516WAT      O46789   3.750   2.465   0.045
15516WAT     H146790   3.680   2.425  -0.014
15516WAT     H246791   3.799   2.392   0.092
15517WAT      O46792   6.048   7.818   0.003
15517WAT     H146793   5.991   7.759   0.060
15517WAT     H246794   6.143   7.813   0.034
15518WAT      O46795   3.787   7.524   6.527
15518WAT     H146796   3.819   7.434   6.556
15518WAT     H246797   3.765   7.580   6.608
15519WAT      O46798   8.195   0.084   1.884
15519WAT     H146799   8.228  -0.000   1.927
15519WAT     H246800   8.193   0.158   1.952
15520WAT      O46801   3.251   4.556   7.744
15520WAT     H146802   3.190   4.511   7.809
15520WAT     H246803   3.315   4.614   7.795
15521WAT      O46804   8.457   3.695   7.841
15521WAT     H146805   8.497   3.646   7.918
15521WAT     H246806   8.516   3.772   7.816
15522WAT      O46807   1.835   1.499   9.427
15522WAT     H146808   1.822   1.425   9.493
15522WAT     H246809   1.917   1.481   9.374
15523WAT      O46810   7.247   8.006   2.790
15523WAT     H146811   7.291   7.945   2.725
15523WAT     H246812   7.250   8.100   2.755
15524WAT      O46813   4.412   5.909   4.177
15524WAT     H146814   4.477   5.925   4.103
15524WAT     H246815   4.405   5.991   4.234
15525WAT      O46816   2.416   2.331   0.761
15525WAT     H146817   2.490   2.398   0.774
15525WAT     H246818   2.437   2.248   0.812
15526WAT      O46819   0.332   3.248   1.903
15526WAT     H146820   0.389   3.252   1.820
15526WAT     H246821   0.291   3.337   1.919
15527WAT      O46822   9.272   0.920   5.190
15527WAT     H146823   9.219   0.927   5.106
15527WAT     H246824   9.365   0.893   5.169
15528WAT      O46825   8.121   2.596   4.477
15528WAT     H146826   8.146   2.499   4.472
15528WAT     H246827   8.060   2.618   4.401
15529WAT      O46828   4.017   1.353   3.091
15529WAT     H146829   3.925   1.320   3.110
15529WAT     H246830   4.052   1.405   3.169
15530WAT      O46831   9.060   8.644   9.840
15530WAT     H146832   9.033   8.587   9.762
15530WAT     H246833   8.982   8.699   9.869
15531WAT      O46834   3.823   1.063   7.666
15531WAT     H146835   3.875   1.128   7.721
15531WAT     H246836   3.754   1.113   7.612
15532WAT      O46837   8.514   7.785   2.906
15532WAT     H146838   8.526   7.690   2.878
15532WAT     H246839   8.440   7.791   2.973
15533WAT      O46840   3.432   5.254   0.084
15533WAT     H146841   3.369   5.225   0.012
15533WAT     H246842   3.463   5.174   0.136
15534WAT      O46843   8.979   2.111   9.143
15534WAT     H146844   9.032   2.118   9.228
15534WAT     H246845   8.953   2.016   9.127
15535WAT      O46846   8.749   9.412   3.033
15535WAT     H146847   8.726   9.508   3.052
15535WAT     H246848   8.809   9.408   2.953
15536WAT      O46849   5.930   9.220   3.275
15536WAT     H146850   5.917   9.308   3.320
15536WAT     H246851   5.947   9.234   3.178
15537WAT      O46852   7.776   8.142   0.682
15537WAT     H146853   7.710   8.213   0.657
15537WAT     H246854   7.765   8.063   0.621
15538WAT      O46855   9.535   3.122   1.276
15538WAT     H146856   9.530   3.219   1.253
15538WAT     H246857   9.559   3.113   1.372
15539WAT      O46858   4.367   6.881   7.583
15539WAT     H146859   4.293   6.816   7.563
15539WAT     H246860   4.392   6.930   7.499
15540WAT      O46861   5.232   0.146   8.345
15540WAT     H146862   5.205   0.062   8.297
15540WAT     H246863   5.150   0.199   8.368
15541WAT      O46864   6.976   9.472   4.607
15541WAT     H146865   6.977   9.457   4.706
15541WAT     H246866   6.993   9.386   4.560
15542WAT      O46867   1.391   8.379   2.700
15542WAT     H146868   1.384   8.478   2.691
15542WAT     H246869   1.314   8.336   2.652
15543WAT      O46870   8.734   3.242   1.059
15543WAT     H146871   8.826   3.223   1.023
15543WAT     H246872   8.736   3.237   1.159
15544WAT      O46873   8.172   7.235   6.681
15544WAT     H146874   8.127   7.179   6.612
15544WAT     H246875   8.149   7.331   6.667
15545WAT      O46876   3.434   1.157   9.509
15545WAT     H146877   3.471   1.080   9.458
15545WAT     H246878   3.434   1.136   9.606
15546WAT      O46879   3.275   9.300   1.927
15546WAT     H146880   3.219   9.382   1.942
15546WAT     H246881   3.275   9.277   1.830
15547WAT      O46882   9.825   6.382   5.323
15547WAT     H146883   9.895   6.392   5.395
15547WAT     H246884   9.858   6.319   5.253
15548WAT      O46885   5.898   0.732   1.839
15548WAT     H146886   5.963   0.789   1.888
15548WAT     H246887   5.899   0.639   1.878
15549WAT      O46888   9.691   2.165   8.662
15549WAT     H146889   9.657   2.090   8.718
15549WAT     H246890   9.695   2.249   8.716
15550WAT      O46891   5.135   8.612   2.778
15550WAT     H146892   5.180   8.676   2.840
15550WAT     H246893   5.149   8.642   2.683
15551WAT      O46894   5.851   9.826   3.693
15551WAT     H146895   5.811   9.916   3.710
15551WAT     H246896   5.797   9.756   3.738
15552WAT      O46897   9.815   9.664   1.874
15552WAT     H146898   9.877   9.599   1.831
15552WAT     H246899   9.781   9.728   1.806
15553WAT      O46900   6.185   8.956   3.312
15553WAT     H146901   6.199   8.872   3.260
15553WAT     H246902   6.142   8.934   3.399
15554WAT      O46903   0.085   4.144   7.707
15554WAT     H146904   0.010   4.083   7.683
15554WAT     H246905   0.164   4.091   7.738
15555WAT      O46906   1.828   1.138   3.124
15555WAT     H146907   1.873   1.071   3.183
15555WAT     H246908   1.889   1.162   3.048
15556WAT      O46909   6.857   6.631   4.102
15556WAT     H146910   6.806   6.618   4.017
15556WAT     H246911   6.924   6.704   4.090
15557WAT      O46912   3.561   8.058   5.713
15557WAT     H146913   3.545   8.111   5.796
15557WAT     H246914   3.560   7.960   5.734
15558WAT      O46915   9.439   6.118   3.277
15558WAT     H146916   9.341   6.108   3.291
15558WAT     H246917   9.485   6.030   3.291
15559WAT      O46918   5.154   6.656   3.206
15559WAT     H146919   5.151   6.631   3.302
15559WAT     H246920   5.217   6.732   3.193
15560WAT      O46921   3.978   8.989   9.846
15560WAT     H146922   4.038   9.017   9.771
15560WAT     H246923   4.007   9.034   9.930
15561WAT      O46924   4.152   4.664   8.614
15561WAT     H146925   4.140   4.567   8.595
15561WAT     H246926   4.076   4.696   8.671
15562WAT      O46927   4.476   1.974   7.869
15562WAT     H146928   4.463   2.047   7.803
15562WAT     H246929   4.572   1.968   7.895
15563WAT      O46930   4.184   4.927   2.752
15563WAT     H146931   4.232   4.841   2.769
15563WAT     H246932   4.247   4.993   2.710
15564WAT      O46933   9.600   6.149   7.745
15564WAT     H146934   9.571   6.203   7.823
15564WAT     H246935   9.678   6.092   7.772
15565WAT      O46936   2.104   4.419   3.973
15565WAT     H146937   2.145   4.483   4.038
15565WAT     H246938   2.088   4.466   3.886
15566WAT      O46939   0.226   4.089   8.208
15566WAT     H146940   0.324   4.098   8.190
15566WAT     H246941   0.176   4.086   8.122
15567WAT      O46942   6.453   0.605   9.094
15567WAT     H146943   6.432   0.660   9.014
15567WAT     H246944   6.396   0.522   9.094
15568WAT      O46945   0.527   1.609   1.655
15568WAT     H146946   0.539   1.509   1.655
15568WAT     H246947   0.608   1.652   1.615
15569WAT      O46948   8.521   8.197   9.720
15569WAT     H146949   8.602   8.244   9.756
15569WAT     H246950   8.529   8.188   9.621
15570WAT      O46951   2.785   0.657   0.454
15570WAT     H146952   2.716   0.644   0.525
15570WAT     H246953   2.873   0.681   0.495
15571WAT      O46954   7.528   9.096   3.769
15571WAT     H146955   7.519   8.999   3.792
15571WAT     H246956   7.455   9.122   3.705
15572WAT      O46957   9.053   6.334   6.858
15572WAT     H146958   9.007   6.386   6.930
15572WAT     H246959   9.149   6.321   6.883
15573WAT      O46960   5.697   3.059   0.533
15573WAT     H146961   5.598   3.052   0.521
15573WAT     H246962   5.743   3.025   0.452
15574WAT      O46963   7.039   9.250   6.461
15574WAT     H146964   7.131   9.252   6.498
15574WAT     H246965   6.975   9.217   6.531
15575WAT      O46966   3.348   1.349   0.865
15575WAT     H146967   3.252   1.377   0.866
15575WAT     H246968   3.389   1.366   0.954
15576WAT      O46969   5.097   2.101   9.706
15576WAT     H146970   5.078   2.064   9.796
15576WAT     H246971   5.169   2.047   9.662
15577WAT      O46972   9.511   0.132   5.298
15577WAT     H146973   9.455   0.211   5.320
15577WAT     H246974   9.601   0.162   5.267
15578WAT      O46975   9.132   9.472   0.539
15578WAT     H146976   9.200   9.508   0.475
15578WAT     H246977   9.176   9.450   0.626
15579WAT      O46978   9.072   5.621   3.400
15579WAT     H146979   9.125   5.706   3.400
15579WAT     H246980   9.120   5.552   3.454
15580WAT      O46981   5.526   5.049   5.683
15580WAT     H146982   5.440   5.094   5.658
15580WAT     H246983   5.529   5.036   5.782
15581WAT      O46984   6.881   7.621   2.536
15581WAT     H146985   6.795   7.655   2.497
15581WAT     H246986   6.958   7.666   2.490
15582WAT      O46987   4.894   3.859   3.821
15582WAT     H146988   4.887   3.925   3.746
15582WAT     H246989   4.941   3.902   3.898
15583WAT      O46990   0.743   7.367   3.822
15583WAT     H146991   0.829   7.334   3.861
15583WAT     H246992   0.734   7.334   3.728
15584WAT      O46993   4.049   7.995   9.604
15584WAT     H146994   4.106   7.966   9.681
15584WAT     H246995   4.051   8.095   9.597
15585WAT      O46996   6.737   7.849   9.634
15585WAT     H146997   6.741   7.939   9.591
15585WAT     H246998   6.667   7.793   9.589
15586WAT      O46999   9.342   3.370   6.000
15586WAT     H147000   9.336   3.324   6.089
15586WAT     H247001   9.256   3.418   5.982
15587WAT      O47002   9.186   7.065   4.561
15587WAT     H147003   9.175   7.164   4.570
15587WAT     H247004   9.271   7.045   4.513
15588WAT      O47005   6.081   7.143   8.482
15588WAT     H147006   6.031   7.132   8.396
15588WAT     H247007   6.015   7.156   8.557
15589WAT      O47008   7.772   4.060   8.020
15589WAT     H147009   7.762   3.963   8.041
15589WAT     H247010   7.787   4.072   7.922
15590WAT      O47011   2.926   0.853   3.429
15590WAT     H147012   2.899   0.760   3.453
15590WAT     H247013   3.025   0.856   3.415
15591WAT      O47014   1.332   7.867   2.739
15591WAT     H147015   1.349   7.786   2.682
15591WAT     H247016   1.299   7.942   2.681
15592WAT      O47017   7.081   2.508   1.476
15592WAT     H147018   7.090   2.604   1.449
15592WAT     H247019   6.986   2.489   1.499
15593WAT      O47020   8.748   0.854   2.336
15593WAT     H147021   8.812   0.889   2.268
15593WAT     H247022   8.753   0.754   2.338
15594WAT      O47023   2.750   7.652   8.580
15594WAT     H147024   2.678   7.587   8.607
15594WAT     H247025   2.730   7.742   8.619
15595WAT      O47026   1.358   8.153   7.321
15595WAT     H147027   1.307   8.174   7.238
15595WAT     H247028   1.346   8.228   7.387
15596WAT      O47029   0.615   3.152   2.694
15596WAT     H147030   0.666   3.104   2.766
15596WAT     H247031   0.584   3.241   2.729
15597WAT      O47032   9.801   0.991   3.142
15597WAT     H147033   9.868   1.048   3.190
15597WAT     H247034   9.780   1.033   3.053
15598WAT      O47035   6.392   4.861   7.504
15598WAT     H147036   6.357   4.802   7.431
15598WAT     H247037   6.472   4.911   7.472
15599WAT      O47038   7.724   3.310   3.242
15599WAT     H147039   7.649   3.342   3.300
15599WAT     H247040   7.774   3.238   3.290
15600WAT      O47041   2.838   1.241   3.997
15600WAT     H147042   2.782   1.228   3.915
15600WAT     H247043   2.804   1.320   4.048
15601WAT      O47044   8.032   3.089   4.722
15601WAT     H147045   7.953   3.072   4.662
15601WAT     H247046   8.010   3.160   4.788
15602WAT      O47047   1.775   4.482   2.115
15602WAT     H147048   1.803   4.519   2.026
15602WAT     H247049   1.703   4.414   2.102
15603WAT      O47050   7.080   6.780   9.011
15603WAT     H147051   7.135   6.722   9.071
15603WAT     H247052   7.053   6.728   8.930
15604WAT      O47053   6.364   6.713   3.232
15604WAT     H147054   6.371   6.734   3.134
15604WAT     H247055   6.334   6.794   3.281
15605WAT      O47056   8.460   4.876   9.142
15605WAT     H147057   8.483   4.808   9.212
15605WAT     H247058   8.369   4.913   9.161
15606WAT      O47059   7.341   2.054   5.390
15606WAT     H147060   7.249   2.030   5.422
15606WAT     H247061   7.344   2.151   5.368
15607WAT      O47062   9.285   6.199   0.103
15607WAT     H147063   9.291   6.294   0.074
15607WAT     H247064   9.194   6.163   0.085
15608WAT      O47065   9.618   7.885   6.063
15608WAT     H147066   9.672   7.929   6.135
15608WAT     H247067   9.663   7.900   5.974
15609WAT      O47068   2.966   8.940   8.192
15609WAT     H147069   2.966   8.916   8.095
15609WAT     H247070   2.878   8.980   8.217
15610WAT      O47071   5.717   4.909   1.742
15610WAT     H147072   5.775   4.949   1.672
15610WAT     H247073   5.691   4.816   1.715
15611WAT      O47074   4.689   7.584   7.193
15611WAT     H147075   4.772   7.565   7.141
15611WAT     H247076   4.640   7.499   7.211
15612WAT      O47077   0.036   8.796   9.699
15612WAT     H147078   0.117   8.851   9.719
15612WAT     H247079   0.047   8.705   9.738
15613WAT      O47080   1.629   8.374   2.588
15613WAT     H147081   1.698   8.358   2.659
15613WAT     H247082   1.539   8.351   2.625
15614WAT      O47083   5.287   3.359   6.177
15614WAT     H147084   5.366   3.421   6.178
15614WAT     H247085   5.311   3.276   6.127
15615WAT      O47086   0.350   5.288   0.821
15615WAT     H147087   0.335   5.343   0.904
15615WAT     H247088   0.449   5.276   0.807
15616WAT      O47089   0.897   7.419   9.641
15616WAT     H147090   0.899   7.506   9.691
15616WAT     H247091   0.946   7.349   9.694
15617WAT      O47092   6.648   0.160   3.257
15617WAT     H147093   6.605   0.250   3.269
15617WAT     H247094   6.610   0.097   3.324
15618WAT      O47095   1.033   1.826   2.414
15618WAT     H147096   0.968   1.777   2.473
15618WAT     H247097   1.037   1.781   2.325
15619WAT      O47098   9.698   6.474   0.247
15619WAT     H147099   9.713   6.381   0.281
15619WAT     H247100   9.687   6.472   0.148
15620WAT      O47101   0.718   5.814   2.940
15620WAT     H147102   0.763   5.867   3.013
15620WAT     H247103   0.624   5.845   2.930
15621WAT      O47104   7.956   2.556   3.460
15621WAT     H147105   7.925   2.545   3.555
15621WAT     H247106   7.983   2.651   3.445
15622WAT      O47107   2.533   0.974   2.879
15622WAT     H147108   2.560   1.022   2.963
15622WAT     H247109   2.534   0.876   2.896
15623WAT      O47110   6.314   6.019   1.907
15623WAT     H147111   6.340   5.973   1.992
15623WAT     H247112   6.382   6.088   1.885
15624WAT      O47113   1.074   9.025   7.641
15624WAT     H147114   1.158   9.036   7.588
15624WAT     H247115   1.037   8.933   7.626
15625WAT      O47116   1.413   3.186   0.889
15625WAT     H147117   1.505   3.201   0.924
15625WAT     H247118   1.405   3.225   0.798
15626WAT      O47119   1.222   8.383   3.766
15626WAT     H147120   1.254   8.307   3.823
15626WAT     H247121   1.124   8.397   3.781
15627WAT      O47122   7.631   2.572   4.190
15627WAT     H147123   7.547   2.601   4.235
15627WAT     H247124   7.630   2.473   4.177
15628WAT      O47125   9.272   2.219   0.254
15628WAT     H147126   9.326   2.143   0.219
15628WAT     H247127   9.206   2.185   0.321
15629WAT      O47128   8.201   1.052   7.242
15629WAT     H147129   8.264   1.029   7.168
15629WAT     H247130   8.235   1.131   7.292
15630WAT      O47131   1.690   1.794   6.394
15630WAT     H147132   1.700   1.880   6.345
15630WAT     H247133   1.650   1.811   6.484
15631WAT      O47134   5.791   1.614   4.615
15631WAT     H147135   5.763   1.534   4.562
15631WAT     H247136   5.885   1.603   4.646
15632WAT      O47137   2.905   8.227   9.330
15632WAT     H147138   2.928   8.200   9.424
15632WAT     H247139   2.817   8.187   9.305
15633WAT      O47140   1.099   0.540   8.586
15633WAT     H147141   1.087   0.449   8.626
15633WAT     H247142   1.052   0.544   8.498
15634WAT      O47143   6.372   3.023   4.195
15634WAT     H147144   6.320   3.069   4.266
15634WAT     H247145   6.384   3.084   4.117
15635WAT      O47146   1.380   1.400   2.291
15635WAT     H147147   1.360   1.407   2.193
15635WAT     H247148   1.314   1.454   2.343
15636WAT      O47149   1.388   4.353   9.597
15636WAT     H147150   1.376   4.402   9.511
15636WAT     H247151   1.315   4.380   9.661
15637WAT      O47152   9.805   6.004   7.870
15637WAT     H147153   9.888   6.032   7.919
15637WAT     H247154   9.748   5.947   7.930
15638WAT      O47155   7.749   1.238   6.790
15638WAT     H147156   7.663   1.241   6.842
15638WAT     H247157   7.729   1.235   6.692
15639WAT      O47158   3.647   8.317   6.487
15639WAT     H147159   3.683   8.231   6.450
15639WAT     H247160   3.565   8.299   6.540
15640WAT      O47161   4.877   6.243   8.100
15640WAT     H147162   4.929   6.275   8.179
15640WAT     H247163   4.926   6.266   8.016
15641WAT      O47164   1.929   5.017   4.269
15641WAT     H147165   1.997   5.030   4.197
15641WAT     H247166   1.969   4.966   4.345
15642WAT      O47167   1.915   3.227   5.294
15642WAT     H147168   2.013   3.204   5.289
15642WAT     H247169   1.905   3.323   5.320
15643WAT      O47170   0.087   6.380   5.553
15643WAT     H147171   0.028   6.404   5.630
15643WAT     H247172   0.183   6.388   5.579
15644WAT      O47173   4.477   0.995   2.518
15644WAT     H147174   4.528   0.915   2.486
15644WAT     H247175   4.431   1.038   2.440
15645WAT      O47176   1.505   7.720   7.571
15645WAT     H147177   1.430   7.693   7.631
15645WAT     H247178   1.469   7.774   7.494
15646WAT      O47179   7.956   2.869   3.117
15646WAT     H147180   7.885   2.886   3.049
15646WAT     H247181   8.018   2.947   3.121
15647WAT      O47182   4.657   1.597   9.821
15647WAT     H147183   4.569   1.641   9.841
15647WAT     H247184   4.730   1.641   9.873
15648WAT      O47185   4.957   1.600   9.588
15648WAT     H147186   4.977   1.621   9.684
15648WAT     H247187   4.921   1.681   9.543
15649WAT      O47188   6.277   5.453   3.580
15649WAT     H147189   6.280   5.389   3.502
15649WAT     H247190   6.201   5.516   3.567
15650WAT      O47191   0.083   6.521   7.931
15650WAT     H147192   0.073   6.500   7.834
15650WAT     H247193   0.008   6.581   7.961
15651WAT      O47194   2.658   8.988   6.185
15651WAT     H147195   2.636   8.892   6.199
15651WAT     H247196   2.746   9.010   6.228
15652WAT      O47197   7.741   1.989   5.236
15652WAT     H147198   7.787   1.973   5.149
15652WAT     H247199   7.712   2.085   5.241
15653WAT      O47200   0.974   0.433   5.965
15653WAT     H147201   0.879   0.401   5.958
15653WAT     H247202   0.991   0.504   5.898
15654WAT      O47203   6.196   7.171   4.359
15654WAT     H147204   6.216   7.253   4.306
15654WAT     H247205   6.244   7.093   4.318
15655WAT      O47206   7.343   1.655   3.612
15655WAT     H147207   7.321   1.746   3.576
15655WAT     H247208   7.438   1.633   3.592
15656WAT      O47209   9.057   2.794   1.631
15656WAT     H147210   9.049   2.789   1.532
15656WAT     H247211   9.130   2.733   1.662
15657WAT      O47212   6.621   1.258   9.851
15657WAT     H147213   6.688   1.184   9.845
15657WAT     H247214   6.552   1.246   9.779
15658WAT      O47215   2.758   6.618   7.062
15658WAT     H147216   2.801   6.690   7.007
15658WAT     H247217   2.759   6.532   7.010
15659WAT      O47218   0.031   3.643   4.097
15659WAT     H147219   0.105   3.701   4.063
15659WAT     H247220  -0.009   3.592   4.021
15660WAT      O47221   1.520   6.501   4.005
15660WAT     H147222   1.567   6.471   4.087
15660WAT     H247223   1.585   6.541   3.941
15661WAT      O47224   5.283   4.789   6.653
15661WAT     H147225   5.224   4.840   6.591
15661WAT     H247226   5.358   4.748   6.602
15662WAT      O47227   3.005   4.719   3.488
15662WAT     H147228   3.081   4.683   3.433
15662WAT     H247229   2.956   4.643   3.530
15663WAT      O47230   1.105   0.321   0.865
15663WAT     H147231   1.162   0.396   0.831
15663WAT     H247232   1.164   0.246   0.894
15664WAT      O47233   9.241   9.736   7.996
15664WAT     H147234   9.207   9.803   7.930
15664WAT     H247235   9.197   9.648   7.979
15665WAT      O47236   2.750   4.166   5.185
15665WAT     H147237   2.677   4.169   5.117
15665WAT     H247238   2.712   4.142   5.274
15666WAT      O47239   2.388   7.667   9.399
15666WAT     H147240   2.488   7.659   9.393
15666WAT     H247241   2.363   7.762   9.416
15667WAT      O47242   3.725   5.032   6.710
15667WAT     H147243   3.726   5.105   6.642
15667WAT     H247244   3.774   4.952   6.675
15668WAT      O47245   2.956   5.492   4.624
15668WAT     H147246   2.883   5.559   4.614
15668WAT     H247247   3.040   5.528   4.583
15669WAT      O47248   5.356   7.360   0.913
15669WAT     H147249   5.352   7.262   0.932
15669WAT     H247250   5.271   7.404   0.942
15670WAT      O47251   4.967   2.077   6.318
15670WAT     H147252   4.894   2.019   6.282
15670WAT     H247253   4.956   2.086   6.417
15671WAT      O47254   3.573   8.770   4.492
15671WAT     H147255   3.567   8.712   4.411
15671WAT     H247256   3.616   8.857   4.466
15672WAT      O47257   1.257   5.378   7.719
15672WAT     H147258   1.310   5.366   7.635
15672WAT     H247259   1.319   5.392   7.796
15673WAT      O47260   2.870   8.725   6.957
15673WAT     H147261   2.861   8.751   7.053
15673WAT     H247262   2.780   8.719   6.914
15674WAT      O47263   9.782   4.249   9.849
15674WAT     H147264   9.737   4.308   9.782
15674WAT     H247265   9.879   4.243   9.828
15675WAT      O47266   5.807   3.315   0.422
15675WAT     H147267   5.851   3.240   0.373
15675WAT     H247268   5.765   3.280   0.506
15676WAT      O47269   2.095   2.910   4.525
15676WAT     H147270   2.147   2.913   4.611
15676WAT     H247271   2.006   2.869   4.542
15677WAT      O47272   9.176   0.111   7.834
15677WAT     H147273   9.251   0.176   7.845
15677WAT     H247274   9.184   0.066   7.745
15678WAT      O47275   9.324   3.589   1.493
15678WAT     H147276   9.381   3.523   1.542
15678WAT     H247277   9.383   3.650   1.440
15679WAT      O47278   7.093   0.243   3.351
15679WAT     H147279   7.131   0.236   3.444
15679WAT     H247280   7.162   0.284   3.291
15680WAT      O47281   9.155   8.995   2.328
15680WAT     H147282   9.070   9.020   2.282
15680WAT     H247283   9.214   9.075   2.335
15681WAT      O47284   8.990   0.715   5.928
15681WAT     H147285   8.969   0.811   5.909
15681WAT     H247286   8.925   0.680   5.995
15682WAT      O47287   9.268   0.596   4.183
15682WAT     H147288   9.249   0.575   4.087
15682WAT     H247289   9.285   0.511   4.233
15683WAT      O47290   4.269   7.414   5.039
15683WAT     H147291   4.325   7.487   5.077
15683WAT     H247292   4.304   7.389   4.948
15684WAT      O47293   2.227   0.085   2.632
15684WAT     H147294   2.325   0.088   2.616
15684WAT     H247295   2.190   0.178   2.626
15685WAT      O47296   0.451   6.871   2.207
15685WAT     H147297   0.413   6.849   2.297
15685WAT     H247298   0.454   6.970   2.196
15686WAT      O47299   7.586   2.253   8.047
15686WAT     H147300   7.512   2.217   8.103
15686WAT     H247301   7.658   2.184   8.039
15687WAT      O47302   0.801   0.106   3.006
15687WAT     H147303   0.772   0.109   3.101
15687WAT     H247304   0.720   0.092   2.947
15688WAT      O47305   2.475   0.543   7.533
15688WAT     H147306   2.528   0.599   7.597
15688WAT     H247307   2.494   0.446   7.549
15689WAT      O47308   8.021   6.250   0.382
15689WAT     H147309   8.105   6.298   0.355
15689WAT     H247310   8.029   6.219   0.476
15690WAT      O47311   3.429   3.279   2.121
15690WAT     H147312   3.398   3.198   2.171
15690WAT     H247313   3.501   3.253   2.057
15691WAT      O47314   3.657   9.485   0.167
15691WAT     H147315   3.730   9.442   0.113
15691WAT     H247316   3.578   9.424   0.171
15692WAT      O47317   3.348   2.563   6.359
15692WAT     H147318   3.381   2.561   6.454
15692WAT     H247319   3.258   2.607   6.355
15693WAT      O47320   9.579   5.867   3.781
15693WAT     H147321   9.578   5.819   3.869
15693WAT     H247322   9.568   5.801   3.707
15694WAT      O47323   4.682   0.263   7.599
15694WAT     H147324   4.642   0.336   7.654
15694WAT     H247325   4.780   0.257   7.618
15695WAT      O47326   5.202   3.788   7.476
15695WAT     H147327   5.253   3.866   7.441
15695WAT     H247328   5.142   3.817   7.550
15696WAT      O47329   4.191   4.552   8.303
15696WAT     H147330   4.105   4.539   8.352
15696WAT     H247331   4.245   4.468   8.307
15697WAT      O47332   4.919   4.716   5.848
15697WAT     H147333   4.853   4.767   5.794
15697WAT     H247334   4.881   4.698   5.939
15698WAT      O47335   9.355   0.340   1.107
15698WAT     H147336   9.382   0.299   1.195
15698WAT     H247337   9.279   0.288   1.068
15699WAT      O47338   3.461   5.787   0.046
15699WAT     H147339   3.383   5.781  -0.017
15699WAT     H247340   3.494   5.881   0.048
15700WAT      O47341   6.409   8.848   6.794
15700WAT     H147342   6.381   8.941   6.772
15700WAT     H247343   6.338   8.784   6.765
15701WAT      O47344   4.526   9.255   9.792
15701WAT     H147345   4.518   9.292   9.885
15701WAT     H247346   4.539   9.330   9.727
15702WAT      O47347   6.143   6.202   0.436
15702WAT     H147348   6.097   6.275   0.386
15702WAT     H247349   6.151   6.121   0.378
15703WAT      O47350   2.918   6.017   5.518
15703WAT     H147351   2.830   5.970   5.522
15703WAT     H247352   2.981   5.965   5.460
15704WAT      O47353   6.840   0.879   4.698
15704WAT     H147354   6.871   0.834   4.615
15704WAT     H247355   6.746   0.911   4.685
15705WAT      O47356   1.328   0.117   8.926
15705WAT     H147357   1.404   0.070   8.881
15705WAT     H247358   1.242   0.078   8.894
15706WAT      O47359   5.371   1.075   5.187
15706WAT     H147360   5.278   1.060   5.156
15706WAT     H247361   5.435   1.024   5.129
15707WAT      O47362   1.461   6.954   0.335
15707WAT     H147363   1.555   6.934   0.362
15707WAT     H247364   1.404   6.963   0.417
15708WAT      O47365   0.155   5.284   6.741
15708WAT     H147366   0.241   5.255   6.784
15708WAT     H247367   0.175   5.322   6.651
15709WAT      O47368   9.736   0.517   3.090
15709WAT     H147369   9.670   0.582   3.127
15709WAT     H247370   9.808   0.567   3.041
15710WAT      O47371   7.146   8.063   1.610
15710WAT     H147372   7.200   8.002   1.552
15710WAT     H247373   7.206   8.133   1.650
15711WAT      O47374   9.482   8.001   6.399
15711WAT     H147375   9.500   7.943   6.479
15711WAT     H247376   9.412   7.958   6.342
15712WAT      O47377   1.126   4.088   1.153
15712WAT     H147378   1.196   4.129   1.212
15712WAT     H247379   1.056   4.157   1.131
15713WAT      O47380   8.798   5.599   7.674
15713WAT     H147381   8.816   5.613   7.577
15713WAT     H247382   8.826   5.680   7.725
15714WAT      O47383   3.131   0.816   0.236
15714WAT     H147384   3.095   0.837   0.145
15714WAT     H247385   3.188   0.735   0.231
15715WAT      O47386   0.374   4.307   0.145
15715WAT     H147387   0.336   4.305   0.238
15715WAT     H247388   0.426   4.224   0.129
15716WAT      O47389   8.512   9.774   1.277
15716WAT     H147390   8.581   9.825   1.329
15716WAT     H247391   8.453   9.723   1.340
15717WAT      O47392   0.439   5.959   9.791
15717WAT     H147393   0.362   5.902   9.763
15717WAT     H247394   0.509   5.902   9.835
15718WAT      O47395   8.167   1.270   5.870
15718WAT     H147396   8.207   1.246   5.958
15718WAT     H247397   8.212   1.352   5.834
15719WAT      O47398   9.509   2.959   3.568
15719WAT     H147399   9.596   3.007   3.558
15719WAT     H247400   9.475   2.932   3.478
15720WAT      O47401   3.090   9.094   1.462
15720WAT     H147402   3.122   9.075   1.369
15720WAT     H247403   3.022   9.168   1.459
15721WAT      O47404   0.825   8.788   5.043
15721WAT     H147405   0.820   8.848   5.122
15721WAT     H247406   0.829   8.692   5.073
15722WAT      O47407   8.728   9.266   4.385
15722WAT     H147408   8.691   9.338   4.326
15722WAT     H247409   8.652   9.217   4.429
15723WAT      O47410   6.775   9.141   6.906
15723WAT     H147411   6.854   9.091   6.939
15723WAT     H247412   6.702   9.137   6.974
15724WAT      O47413   0.013   4.307   3.320
15724WAT     H147414   0.091   4.298   3.382
15724WAT     H247415  -0.040   4.388   3.345
15725WAT      O47416   0.766   1.333   7.903
15725WAT     H147417   0.734   1.378   7.820
15725WAT     H247418   0.861   1.356   7.920
15726WAT      O47419   8.540   6.021   2.648
15726WAT     H147420   8.590   5.935   2.637
15726WAT     H247421   8.600   6.090   2.689
15727WAT      O47422   7.277   7.882   6.041
15727WAT     H147423   7.278   7.901   6.139
15727WAT     H247424   7.185   7.900   6.005
15728WAT      O47425   7.752   6.755   9.235
15728WAT     H147426   7.759   6.748   9.135
15728WAT     H247427   7.697   6.835   9.258
15729WAT      O47428   7.733   9.363   9.817
15729WAT     H147429   7.832   9.374   9.811
15729WAT     H247430   7.712   9.269   9.845
15730WAT      O47431   0.089   2.613   2.893
15730WAT     H147432   0.181   2.610   2.853
15730WAT     H247433   0.097   2.616   2.993
15731WAT      O47434   7.762   5.515   1.598
15731WAT     H147435   7.684   5.575   1.578
15731WAT     H247436   7.778   5.455   1.520
15732WAT      O47437   5.116   2.871   4.918
15732WAT     H147438   5.161   2.788   4.951
15732WAT     H247439   5.055   2.849   4.842
15733WAT      O47440   8.393   7.839   3.150
15733WAT     H147441   8.425   7.785   3.228
15733WAT     H247442   8.355   7.926   3.182
15734WAT      O47443   4.935   9.634   4.726
15734WAT     H147444   5.031   9.653   4.706
15734WAT     H247445   4.920   9.637   4.825
15735WAT      O47446   4.812   0.709   7.401
15735WAT     H147447   4.713   0.710   7.414
15735WAT     H247448   4.855   0.649   7.468
15736WAT      O47449   1.651   0.488   0.754
15736WAT     H147450   1.618   0.553   0.822
15736WAT     H247451   1.585   0.480   0.680
15737WAT      O47452   0.854   4.448   6.340
15737WAT     H147453   0.814   4.386   6.273
15737WAT     H247454   0.950   4.465   6.317
15738WAT      O47455   0.892   8.472   7.367
15738WAT     H147456   0.801   8.430   7.369
15738WAT     H247457   0.893   8.545   7.299
15739WAT      O47458   0.005   0.545   2.159
15739WAT     H147459  -0.038   0.595   2.085
15739WAT     H247460   0.092   0.589   2.183
15740WAT      O47461   2.893   2.887   2.056
15740WAT     H147462   2.874   2.856   2.149
15740WAT     H247463   2.823   2.953   2.027
15741WAT      O47464   5.713   2.215   7.650
15741WAT     H147465   5.719   2.127   7.603
15741WAT     H247466   5.742   2.288   7.589
15742WAT      O47467   2.059   5.195   7.423
15742WAT     H147468   2.031   5.278   7.469
15742WAT     H247469   1.982   5.131   7.419
15743WAT      O47470   6.526   8.173   1.089
15743WAT     H147471   6.597   8.164   1.019
15743WAT     H247472   6.475   8.257   1.074
15744WAT      O47473   0.509   9.496   6.773
15744WAT     H147474   0.546   9.546   6.852
15744WAT     H247475   0.420   9.535   6.748
15745WAT      O47476   8.226   7.326   5.795
15745WAT     H147477   8.315   7.320   5.840
15745WAT     H247478   8.240   7.339   5.697
15746WAT      O47479   9.450   4.185   2.322
15746WAT     H147480   9.440   4.160   2.418
15746WAT     H247481   9.544   4.167   2.292
15747WAT      O47482   4.063   1.393   2.826
15747WAT     H147483   4.118   1.317   2.792
15747WAT     H247484   4.041   1.379   2.923
15748WAT      O47485   6.260   8.982   6.148
15748WAT     H147486   6.355   8.952   6.146
15748WAT     H247487   6.215   8.954   6.063
15749WAT      O47488   3.041   4.555   5.026
15749WAT     H147489   2.952   4.533   5.065
15749WAT     H247490   3.048   4.519   4.933
15750WAT      O47491   3.010   7.893   4.615
15750WAT     H147492   3.064   7.939   4.686
15750WAT     H247493   3.070   7.869   4.539
15751WAT      O47494   0.407   3.703   0.767
15751WAT     H147495   0.387   3.670   0.859
15751WAT     H247496   0.322   3.709   0.714
15752WAT      O47497   9.063   3.827   8.331
15752WAT     H147498   8.981   3.770   8.330
15752WAT     H247499   9.120   3.802   8.410
15753WAT      O47500   6.474   9.178   1.444
15753WAT     H147501   6.445   9.273   1.457
15753WAT     H247502   6.429   9.139   1.364
15754WAT      O47503   7.884   2.704   8.748
15754WAT     H147504   7.927   2.718   8.659
15754WAT     H247505   7.792   2.743   8.748
15755WAT      O47506   1.574   1.507   6.516
15755WAT     H147507   1.532   1.583   6.467
15755WAT     H247508   1.588   1.533   6.612
15756WAT      O47509   2.621   3.331   9.172
15756WAT     H147510   2.597   3.403   9.107
15756WAT     H247511   2.607   3.241   9.130
15757WAT      O47512   3.142   7.722   9.499
15757WAT     H147513   3.210   7.652   9.518
15757WAT     H247514   3.187   7.804   9.462
15758WAT      O47515   3.609   1.214   1.346
15758WAT     H147516   3.704   1.221   1.376
15758WAT     H247517   3.571   1.126   1.374
15759WAT      O47518   8.757   5.665   7.082
15759WAT     H147519   8.830   5.603   7.112
15759WAT     H247520   8.716   5.629   6.998
15760WAT      O47521   0.573   2.810   2.525
15760WAT     H147522   0.549   2.745   2.453
15760WAT     H247523   0.508   2.886   2.524
15761WAT      O47524   9.136   4.562   0.996
15761WAT     H147525   9.191   4.578   0.914
15761WAT     H247526   9.058   4.504   0.972
15762WAT      O47527   0.934   1.960   3.500
15762WAT     H147528   0.948   1.900   3.579
15762WAT     H247529   0.879   2.039   3.527
15763WAT      O47530   9.567   2.498   7.630
15763WAT     H147531   9.476   2.500   7.671
15763WAT     H247532   9.596   2.591   7.610
15764WAT      O47533   8.292   9.047   9.889
15764WAT     H147534   8.224   8.987   9.845
15764WAT     H247535   8.266   9.142   9.875
15765WAT      O47536   3.993   4.331   0.341
15765WAT     H147537   4.051   4.397   0.295
15765WAT     H247538   4.050   4.271   0.399
15766WAT      O47539   0.958   2.908   6.876
15766WAT     H147540   0.887   2.935   6.942
15766WAT     H247541   0.981   2.986   6.819
15767WAT      O47542   9.430   5.157   6.212
15767WAT     H147543   9.509   5.194   6.164
15767WAT     H247544   9.456   5.134   6.306
15768WAT      O47545   3.822   6.191   3.706
15768WAT     H147546   3.917   6.165   3.724
15768WAT     H247547   3.818   6.249   3.625
15769WAT      O47548   0.201   8.451   3.749
15769WAT     H147549   0.200   8.412   3.840
15769WAT     H247550   0.288   8.431   3.705
15770WAT      O47551   5.934   6.299   2.104
15770WAT     H147552   5.912   6.382   2.053
15770WAT     H247553   5.973   6.231   2.042
15771WAT      O47554   5.037   3.132   4.729
15771WAT     H147555   5.004   3.037   4.729
15771WAT     H247556   4.976   3.188   4.673
15772WAT      O47557   6.893   1.368   0.530
15772WAT     H147558   6.862   1.275   0.515
15772WAT     H247559   6.950   1.372   0.612
15773WAT      O47560   5.922   8.200   4.136
15773WAT     H147561   5.828   8.173   4.156
15773WAT     H247562   5.926   8.298   4.120
15774WAT      O47563   7.567   1.142   0.794
15774WAT     H147564   7.570   1.092   0.708
15774WAT     H247565   7.509   1.093   0.859
15775WAT      O47566   2.070   7.359   1.696
15775WAT     H147567   1.984   7.403   1.668
15775WAT     H247568   2.050   7.266   1.728
15776WAT      O47569   2.970   2.641   2.861
15776WAT     H147570   2.929   2.660   2.950
15776WAT     H247571   3.041   2.571   2.872
15777WAT      O47572   7.095   0.225   5.032
15777WAT     H147573   7.001   0.218   4.999
15777WAT     H247574   7.101   0.298   5.100
15778WAT      O47575   5.452   8.498   0.069
15778WAT     H147576   5.528   8.462   0.015
15778WAT     H247577   5.483   8.577   0.122
15779WAT      O47578   6.901   0.916   8.697
15779WAT     H147579   6.959   0.900   8.777
15779WAT     H247580   6.911   0.840   8.633
15780WAT      O47581   3.803   1.222   0.060
15780WAT     H147582   3.880   1.228  -0.003
15780WAT     H247583   3.726   1.274   0.023
15781WAT      O47584   3.474   6.911   9.417
15781WAT     H147585   3.466   6.992   9.475
15781WAT     H247586   3.547   6.926   9.350
15782WAT      O47587   1.778   4.023   0.870
15782WAT     H147588   1.875   4.004   0.857
15782WAT     H247589   1.741   4.064   0.787
15783WAT      O47590   2.310   9.747   8.828
15783WAT     H147591   2.395   9.697   8.845
15783WAT     H247592   2.311   9.833   8.878
15784WAT      O47593   3.800   3.298   8.562
15784WAT     H147594   3.719   3.329   8.512
15784WAT     H247595   3.852   3.234   8.505
15785WAT      O47596   1.264   0.320   1.115
15785WAT     H147597   1.264   0.242   1.177
15785WAT     H247598   1.277   0.288   1.021
15786WAT      O47599   6.980   7.077   9.178
15786WAT     H147600   6.937   7.154   9.130
15786WAT     H247601   7.053   7.039   9.121
15787WAT      O47602   5.870   2.732   8.776
15787WAT     H147603   5.881   2.773   8.686
15787WAT     H247604   5.916   2.789   8.845
15788WAT      O47605   0.763   5.697   9.228
15788WAT     H147606   0.801   5.729   9.315
15788WAT     H247607   0.680   5.748   9.206
15789WAT      O47608   0.399   5.300   1.685
15789WAT     H147609   0.302   5.325   1.682
15789WAT     H247610   0.413   5.213   1.638
15790WAT      O47611   1.389   1.864   8.649
15790WAT     H147612   1.356   1.871   8.555
15790WAT     H247613   1.438   1.778   8.661
15791WAT      O47614   5.039   1.656   6.589
15791WAT     H147615   5.115   1.702   6.635
15791WAT     H247616   5.075   1.588   6.525
15792WAT      O47617   5.048   1.486   1.677
15792WAT     H147618   5.135   1.467   1.721
15792WAT     H247619   5.061   1.493   1.578
15793WAT      O47620   8.073   8.463   9.769
15793WAT     H147621   8.039   8.524   9.697
15793WAT     H247622   8.153   8.413   9.735
15794WAT      O47623   4.484   6.321   4.762
15794WAT     H147624   4.556   6.259   4.794
15794WAT     H247625   4.415   6.268   4.711
15795WAT      O47626   7.407   9.441   4.561
15795WAT     H147627   7.499   9.418   4.592
15795WAT     H247628   7.342   9.432   4.636
15796WAT      O47629   8.154   7.253   8.058
15796WAT     H147630   8.215   7.324   8.094
15796WAT     H247631   8.182   7.164   8.092
15797WAT      O47632   6.886   4.997   7.292
15797WAT     H147633   6.875   5.063   7.367
15797WAT     H247634   6.851   4.908   7.321
15798WAT      O47635   9.580   7.282   8.290
15798WAT     H147636   9.614   7.246   8.376
15798WAT     H247637   9.647   7.344   8.250
15799WAT      O47638   1.108   4.051   0.695
15799WAT     H147639   1.115   4.025   0.791
15799WAT     H247640   1.015   4.082   0.676
15800WAT      O47641   6.198   0.572   2.179
15800WAT     H147642   6.252   0.605   2.101
15800WAT     H247643   6.258   0.527   2.245
15801WAT      O47644   4.674   7.701   3.073
15801WAT     H147645   4.632   7.740   3.155
15801WAT     H247646   4.772   7.721   3.074
15802WAT      O47647   7.597   6.944   0.191
15802WAT     H147648   7.597   6.851   0.228
15802WAT     H247649   7.645   7.005   0.254
15803WAT      O47650   1.546   9.065   7.320
15803WAT     H147651   1.563   9.137   7.252
15803WAT     H247652   1.631   9.045   7.369
15804WAT      O47653   4.494   9.799   8.856
15804WAT     H147654   4.505   9.872   8.787
15804WAT     H247655   4.542   9.717   8.826
15805WAT      O47656   1.946   3.365   8.986
15805WAT     H147657   1.986   3.431   9.049
15805WAT     H247658   2.013   3.338   8.917
15806WAT      O47659   8.818   0.392   0.653
15806WAT     H147660   8.906   0.353   0.628
15806WAT     H247661   8.748   0.321   0.651
15807WAT      O47662   7.831   5.152   2.013
15807WAT     H147663   7.738   5.184   2.033
15807WAT     H247664   7.863   5.195   1.928
15808WAT      O47665   2.256   0.659   8.673
15808WAT     H147666   2.354   0.668   8.654
15808WAT     H247667   2.212   0.748   8.661
15809WAT      O47668   5.044   5.977   8.134
15809WAT     H147669   5.004   6.021   8.054
15809WAT     H247670   5.133   6.017   8.153
15810WAT      O47671   3.151   4.401   7.943
15810WAT     H147672   3.068   4.440   7.981
15810WAT     H247673   3.224   4.405   8.011
15811WAT      O47674   7.048   8.375   1.932
15811WAT     H147675   7.145   8.358   1.914
15811WAT     H247676   7.039   8.446   2.002
15812WAT      O47677   6.744   1.538   6.308
15812WAT     H147678   6.646   1.521   6.323
15812WAT     H247679   6.761   1.636   6.307
15813WAT      O47680   5.795   6.877   5.170
15813WAT     H147681   5.842   6.872   5.258
15813WAT     H247682   5.736   6.797   5.160
15814WAT      O47683   2.872   1.301   0.414
15814WAT     H147684   2.822   1.369   0.359
15814WAT     H247685   2.849   1.312   0.510
15815WAT      O47686   3.427   0.572   9.830
15815WAT     H147687   3.456   0.590   9.924
15815WAT     H247688   3.342   0.520   9.831
15816WAT      O47689   7.111   8.565   2.993
15816WAT     H147690   7.026   8.611   3.019
15816WAT     H247691   7.185   8.632   2.988
15817WAT      O47692   8.282   7.661   5.934
15817WAT     H147693   8.310   7.674   5.839
15817WAT     H247694   8.216   7.586   5.939
15818WAT      O47695   7.776   8.647   1.078
15818WAT     H147696   7.813   8.603   0.996
15818WAT     H247697   7.774   8.746   1.065
15819WAT      O47698   2.647   4.164   0.078
15819WAT     H147699   2.634   4.146   0.176
15819WAT     H247700   2.563   4.204   0.041
15820WAT      O47701   6.811   1.245   2.766
15820WAT     H147702   6.833   1.266   2.861
15820WAT     H247703   6.826   1.147   2.748
15821WAT      O47704   6.106   3.499   7.241
15821WAT     H147705   6.129   3.492   7.338
15821WAT     H247706   6.095   3.595   7.216
15822WAT      O47707   1.769   9.553   5.901
15822WAT     H147708   1.691   9.513   5.852
15822WAT     H247709   1.776   9.650   5.877
15823WAT      O47710   6.509   6.123   9.583
15823WAT     H147711   6.527   6.214   9.621
15823WAT     H247712   6.534   6.053   9.650
15824WAT      O47713   7.574   0.797   8.016
15824WAT     H147714   7.655   0.836   8.061
15824WAT     H247715   7.518   0.871   7.978
15825WAT      O47716   9.402   8.489   2.950
15825WAT     H147717   9.406   8.462   2.854
15825WAT     H247718   9.372   8.412   3.006
15826WAT      O47719   3.949   4.235   2.377
15826WAT     H147720   3.943   4.181   2.460
15826WAT     H247721   3.946   4.175   2.297
15827WAT      O47722   9.166   2.391   1.011
15827WAT     H147723   9.127   2.467   0.959
15827WAT     H247724   9.263   2.406   1.024
15828WAT      O47725   0.226   9.429   1.006
15828WAT     H147726   0.314   9.446   0.962
15828WAT     H247727   0.202   9.507   1.064
15829WAT      O47728   4.060   3.974   0.349
15829WAT     H147729   4.014   3.886   0.365
15829WAT     H247730   4.145   3.958   0.298
15830WAT      O47731   4.082   9.435   3.181
15830WAT     H147732   4.150   9.458   3.251
15830WAT     H247733   3.990   9.446   3.219
15831WAT      O47734   1.802   4.642   5.935
15831WAT     H147735   1.815   4.730   5.890
15831WAT     H247736   1.737   4.651   6.010
15832WAT      O47737   6.810   6.182   0.342
15832WAT     H147738   6.863   6.161   0.424
15832WAT     H247739   6.730   6.122   0.338
15833WAT      O47740   8.021   9.235   7.050
15833WAT     H147741   7.921   9.239   7.048
15833WAT     H247742   8.050   9.140   7.062
15834WAT      O47743   8.222   6.344   1.544
15834WAT     H147744   8.206   6.308   1.452
15834WAT     H247745   8.242   6.269   1.606
15835WAT      O47746   5.388   9.072   7.335
15835WAT     H147747   5.427   9.164   7.326
15835WAT     H247748   5.376   9.033   7.244
15836WAT      O47749   1.642   3.370   1.306
15836WAT     H147750   1.618   3.411   1.218
15836WAT     H247751   1.560   3.338   1.352
15837WAT      O47752   1.743   4.523   1.155
15837WAT     H147753   1.777   4.543   1.246
15837WAT     H247754   1.799   4.570   1.087
15838WAT      O47755   6.736   2.298   1.879
15838WAT     H147756   6.784   2.303   1.792
15838WAT     H247757   6.655   2.239   1.869
15839WAT      O47758   7.905   8.202   1.432
15839WAT     H147759   7.834   8.169   1.370
15839WAT     H247760   7.972   8.130   1.447
15840WAT      O47761   1.088   1.898   8.923
15840WAT     H147762   1.163   1.928   8.981
15840WAT     H247763   1.031   1.977   8.899
15841WAT      O47764   9.799   7.129   2.467
15841WAT     H147765   9.766   7.066   2.536
15841WAT     H247766   9.764   7.221   2.486
15842WAT      O47767   5.118   2.962   1.189
15842WAT     H147768   5.034   2.939   1.239
15842WAT     H247769   5.195   2.966   1.252
15843WAT      O47770   5.794   6.967   0.037
15843WAT     H147771   5.732   6.981  -0.040
15843WAT     H247772   5.810   7.054   0.082
15844WAT      O47773   0.440   1.082   0.121
15844WAT     H147774   0.380   1.016   0.077
15844WAT     H247775   0.534   1.047   0.121
15845WAT      O47776   4.065   7.062   0.201
15845WAT     H147777   3.991   7.096   0.144
15845WAT     H247778   4.032   7.047   0.294
15846WAT      O47779   6.663   8.295   2.774
15846WAT     H147780   6.577   8.273   2.820
15846WAT     H247781   6.645   8.361   2.700
15847WAT      O47782   1.113   5.068   8.333
15847WAT     H147783   1.160   4.982   8.352
15847WAT     H247784   1.095   5.116   8.419
15848WAT      O47785   7.019   8.934   2.888
15848WAT     H147786   7.089   8.972   2.827
15848WAT     H247787   7.052   8.936   2.982
15849WAT      O47788   1.827   7.827   7.912
15849WAT     H147789   1.839   7.734   7.877
15849WAT     H247790   1.831   7.827   8.012
15850WAT      O47791   9.722   1.547   1.974
15850WAT     H147792   9.673   1.622   2.018
15850WAT     H247793   9.792   1.512   2.036
15851WAT      O47794   3.874   9.755   7.900
15851WAT     H147795   3.969   9.786   7.901
15851WAT     H247796   3.816   9.826   7.859
15852WAT      O47797   9.418   7.638   9.701
15852WAT     H147798   9.400   7.713   9.637
15852WAT     H247799   9.347   7.636   9.771
15853WAT      O47800   0.266   5.505   8.152
15853WAT     H147801   0.214   5.422   8.171
15853WAT     H247802   0.211   5.568   8.098
15854WAT      O47803   4.688   0.049   8.407
15854WAT     H147804   4.705  -0.049   8.421
15854WAT     H247805   4.769   0.101   8.435
15855WAT      O47806   8.620   1.865   1.186
15855WAT     H147807   8.543   1.928   1.198
15855WAT     H247808   8.694   1.912   1.137
15856WAT      O47809   1.797   3.500   4.760
15856WAT     H147810   1.865   3.445   4.808
15856WAT     H247811   1.793   3.473   4.664
15857WAT      O47812   1.903   7.456   8.274
15857WAT     H147813   1.972   7.506   8.327
15857WAT     H247814   1.949   7.405   8.200
15858WAT      O47815   9.450   1.277   9.295
15858WAT     H147816   9.419   1.249   9.204
15858WAT     H247817   9.546   1.305   9.290
15859WAT      O47818   9.410   4.916   2.681
15859WAT     H147819   9.337   4.859   2.644
15859WAT     H247820   9.373   4.977   2.751
15860WAT      O47821   6.398   0.905   6.363
15860WAT     H147822   6.466   0.954   6.309
15860WAT     H247823   6.433   0.890   6.456
15861WAT      O47824   5.288   2.105   4.519
15861WAT     H147825   5.377   2.111   4.474
15861WAT     H247826   5.223   2.058   4.458
15862WAT      O47827   6.608   8.222   8.171
15862WAT     H147828   6.514   8.235   8.202
15862WAT     H247829   6.630   8.291   8.102
15863WAT      O47830   0.593   8.763   6.512
15863WAT     H147831   0.680   8.716   6.526
15863WAT     H247832   0.519   8.710   6.554
15864WAT      O47833   7.015   5.839   0.496
15864WAT     H147834   6.920   5.824   0.470
15864WAT     H247835   7.070   5.761   0.467
15865WAT      O47836   4.402   3.493   0.081
15865WAT     H147837   4.350   3.570   0.043
15865WAT     H247838   4.401   3.417   0.016
15866WAT      O47839   9.724   4.846   6.338
15866WAT     H147840   9.720   4.747   6.354
15866WAT     H247841   9.713   4.864   6.241
15867WAT      O47842   6.548   4.536   8.916
15867WAT     H147843   6.464   4.484   8.932
15867WAT     H247844   6.582   4.517   8.824
15868WAT      O47845   9.321   0.791   5.669
15868WAT     H147846   9.409   0.840   5.665
15868WAT     H247847   9.299   0.755   5.579
15869WAT      O47848   3.421   8.317   3.757
15869WAT     H147849   3.470   8.236   3.789
15869WAT     H247850   3.485   8.394   3.749
15870WAT      O47851   1.327   2.324   8.191
15870WAT     H147852   1.248   2.285   8.239
15870WAT     H247853   1.302   2.342   8.095
15871WAT      O47854   2.271   9.169   7.448
15871WAT     H147855   2.219   9.083   7.448
15871WAT     H247856   2.267   9.210   7.357
15872WAT      O47857   3.127   5.628   4.842
15872WAT     H147858   3.100   5.590   4.753
15872WAT     H247859   3.223   5.605   4.860
15873WAT      O47860   1.755   1.108   5.717
15873WAT     H147861   1.770   1.194   5.766
15873WAT     H247862   1.822   1.099   5.644
15874WAT      O47863   1.783   1.255   3.896
15874WAT     H147864   1.877   1.257   3.930
15874WAT     H247865   1.774   1.181   3.829
15875WAT      O47866   0.001   5.190   6.343
15875WAT     H147867  -0.087   5.213   6.303
15875WAT     H247868   0.075   5.219   6.282
15876WAT      O47869   6.727   9.535   0.590
15876WAT     H147870   6.720   9.478   0.507
15876WAT     H247871   6.710   9.630   0.566
15877WAT      O47872   8.359   7.927   8.056
15877WAT     H147873   8.315   7.981   8.128
15877WAT     H247874   8.307   7.936   7.971
15878WAT      O47875   8.382   0.792   0.475
15878WAT     H147876   8.349   0.846   0.398
15878WAT     H247877   8.438   0.849   0.535
15879WAT      O47878   9.530   6.631   1.775
15879WAT     H147879   9.460   6.560   1.772
15879WAT     H247880   9.574   6.631   1.865
15880WAT      O47881   8.051   9.386   6.142
15880WAT     H147882   8.066   9.350   6.234
15880WAT     H247883   7.953   9.396   6.126
15881WAT      O47884   5.829   7.298   9.843
15881WAT     H147885   5.848   7.285   9.940
15881WAT     H247886   5.763   7.372   9.831
15882WAT      O47887   5.665   4.854   2.293
15882WAT     H147888   5.614   4.938   2.310
15882WAT     H247889   5.762   4.876   2.279
15883WAT      O47890   1.111   4.754   0.569
15883WAT     H147891   1.145   4.848   0.561
15883WAT     H247892   1.104   4.729   0.666
15884WAT      O47893   5.567   6.508   0.312
15884WAT     H147894   5.623   6.532   0.391
15884WAT     H247895   5.480   6.558   0.316
15885WAT      O47896   5.623   0.321   8.653
15885WAT     H147897   5.555   0.253   8.626
15885WAT     H247898   5.659   0.366   8.571
15886WAT      O47899   8.140   9.635   5.897
15886WAT     H147900   8.222   9.665   5.945
15886WAT     H247901   8.164   9.573   5.823
15887WAT      O47902   3.549   1.846   7.421
15887WAT     H147903   3.457   1.828   7.455
15887WAT     H247904   3.612   1.779   7.459
15888WAT      O47905   4.493   9.558   6.921
15888WAT     H147906   4.522   9.473   6.877
15888WAT     H247907   4.573   9.605   6.960
15889WAT      O47908   3.932   9.558   5.490
15889WAT     H147909   4.030   9.571   5.473
15889WAT     H247910   3.894   9.499   5.419
15890WAT      O47911   1.912   4.863   1.652
15890WAT     H147912   1.847   4.788   1.667
15890WAT     H247913   1.998   4.827   1.616
15891WAT      O47914   3.649   5.512   6.156
15891WAT     H147915   3.579   5.584   6.152
15891WAT     H247916   3.605   5.423   6.141
15892WAT      O47917   1.316   0.662   9.093
15892WAT     H147918   1.349   0.716   9.171
15892WAT     H247919   1.378   0.585   9.077
15893WAT      O47920   1.969   3.246   9.685
15893WAT     H147921   2.023   3.278   9.763
15893WAT     H247922   1.885   3.300   9.679
15894WAT      O47923   8.730   6.530   4.692
15894WAT     H147924   8.805   6.490   4.639
15894WAT     H247925   8.742   6.508   4.789
15895WAT      O47926   9.725   9.602   5.937
15895WAT     H147927   9.822   9.626   5.941
15895WAT     H247928   9.715   9.502   5.938
15896WAT      O47929   5.512   6.686   8.349
15896WAT     H147930   5.573   6.762   8.371
15896WAT     H247931   5.429   6.692   8.405
15897WAT      O47932   2.293   8.772   5.872
15897WAT     H147933   2.380   8.781   5.823
15897WAT     H247934   2.285   8.680   5.910
15898WAT      O47935   7.339   7.894   1.462
15898WAT     H147936   7.328   7.855   1.370
15898WAT     H247937   7.326   7.822   1.530
15899WAT      O47938   7.210   2.560   3.707
15899WAT     H147939   7.224   2.638   3.767
15899WAT     H247940   7.270   2.568   3.627
15900WAT      O47941   9.536   3.653   4.568
15900WAT     H147942   9.626   3.622   4.600
15900WAT     H247943   9.468   3.638   4.640
15901WAT      O47944   5.141   5.746   8.566
15901WAT     H147945   5.098   5.661   8.537
15901WAT     H247946   5.135   5.755   8.665
15902WAT      O47947   5.814   6.951   3.958
15902WAT     H147948   5.768   6.875   3.913
15902WAT     H247949   5.823   7.027   3.894
15903WAT      O47950   3.964   3.376   2.584
15903WAT     H147951   3.878   3.394   2.537
15903WAT     H247952   4.016   3.461   2.593
15904WAT      O47953   4.900   7.393   1.585
15904WAT     H147954   4.872   7.350   1.499
15904WAT     H247955   4.989   7.357   1.612
15905WAT      O47956   5.079   3.430   2.636
15905WAT     H147957   5.060   3.332   2.637
15905WAT     H247958   5.007   3.478   2.587
15906WAT      O47959   6.525   4.176   4.946
15906WAT     H147960   6.486   4.267   4.935
15906WAT     H247961   6.488   4.133   5.029
15907WAT      O47962   1.923   6.281   9.574
15907WAT     H147963   2.021   6.294   9.560
15907WAT     H247964   1.904   6.186   9.598
15908WAT      O47965   3.071   9.694   6.625
15908WAT     H147966   3.140   9.706   6.554
15908WAT     H247967   3.012   9.617   6.602
15909WAT      O47968   8.968   8.405   7.666
15909WAT     H147969   8.984   8.381   7.762
15909WAT     H247970   8.999   8.499   7.650
15910WAT      O47971   1.308   3.098   1.783
15910WAT     H147972   1.281   3.037   1.857
15910WAT     H247973   1.264   3.187   1.793
15911WAT      O47974   3.144   8.758   2.637
15911WAT     H147975   3.117   8.662   2.646
15911WAT     H247976   3.062   8.813   2.617
15912WAT      O47977   9.331   1.934   8.613
15912WAT     H147978   9.256   1.888   8.565
15912WAT     H247979   9.341   2.027   8.577
15913WAT      O47980   8.543   7.298   5.565
15913WAT     H147981   8.620   7.338   5.614
15913WAT     H247982   8.507   7.221   5.617
15914WAT      O47983   6.691   4.621   2.513
15914WAT     H147984   6.642   4.691   2.461
15914WAT     H247985   6.699   4.650   2.609
15915WAT      O47986   5.979   4.167   1.306
15915WAT     H147987   6.054   4.143   1.369
15915WAT     H247988   5.984   4.264   1.284
15916WAT      O47989   3.831   4.809   6.619
15916WAT     H147990   3.843   4.860   6.534
15916WAT     H247991   3.827   4.711   6.598
15917WAT      O47992   1.475   9.522   7.019
15917WAT     H147993   1.386   9.566   7.004
15917WAT     H247994   1.528   9.574   7.085
15918WAT      O47995   5.418   2.147   3.382
15918WAT     H147996   5.422   2.121   3.479
15918WAT     H247997   5.357   2.084   3.333
15919WAT      O47998   6.809   5.846   6.570
15919WAT     H147999   6.734   5.912   6.567
15919WAT     H248000   6.806   5.789   6.488
15920WAT      O48001   2.513   7.408   7.914
15920WAT     H148002   2.498   7.478   7.984
15920WAT     H248003   2.453   7.330   7.931
15921WAT      O48004   0.071   6.296   7.604
15921WAT     H148005   0.050   6.393   7.595
15921WAT     H248006   0.040   6.247   7.522
15922WAT      O48007   7.886   3.565   1.023
15922WAT     H148008   7.916   3.659   1.007
15922WAT     H248009   7.870   3.551   1.121
15923WAT      O48010   3.727   3.641   1.909
15923WAT     H148011   3.656   3.694   1.954
15923WAT     H248012   3.817   3.675   1.937
15924WAT      O48013   8.707   4.074   3.354
15924WAT     H148014   8.635   4.139   3.329
15924WAT     H248015   8.786   4.124   3.389
15925WAT      O48016   1.382   2.755   4.264
15925WAT     H148017   1.335   2.825   4.210
15925WAT     H248018   1.350   2.664   4.236
15926WAT      O48019   9.818   7.348   6.186
15926WAT     H148020   9.910   7.384   6.173
15926WAT     H248021   9.822   7.249   6.201
15927WAT      O48022   0.796   9.836   5.051
15927WAT     H148023   0.776   9.780   5.131
15927WAT     H248024   0.752   9.925   5.060
15928WAT      O48025   7.369   2.801   5.752
15928WAT     H148026   7.362   2.833   5.658
15928WAT     H248027   7.455   2.752   5.765
15929WAT      O48028   8.411   3.872   3.750
15929WAT     H148029   8.381   3.777   3.760
15929WAT     H248030   8.469   3.880   3.669
15930WAT      O48031   6.740   4.966   1.119
15930WAT     H148032   6.678   5.011   1.184
15930WAT     H248033   6.691   4.944   1.036
15931WAT      O48034   4.525   5.027   7.154
15931WAT     H148035   4.533   4.970   7.072
15931WAT     H248036   4.446   4.996   7.208
15932WAT      O48037   3.957   5.336   7.634
15932WAT     H148038   3.940   5.283   7.551
15932WAT     H248039   3.998   5.277   7.703
15933WAT      O48040   5.672   8.109   4.185
15933WAT     H148041   5.694   8.054   4.265
15933WAT     H248042   5.584   8.155   4.199
15934WAT      O48043   5.828   8.383   1.567
15934WAT     H148044   5.802   8.412   1.659
15934WAT     H248045   5.814   8.459   1.502
15935WAT      O48046   8.279   0.288   4.485
15935WAT     H148047   8.189   0.315   4.521
15935WAT     H248048   8.272   0.195   4.448
15936WAT      O48049   9.383   2.852   8.496
15936WAT     H148050   9.295   2.816   8.527
15936WAT     H248051   9.385   2.858   8.396
15937WAT      O48052   2.460   2.192   6.392
15937WAT     H148053   2.500   2.168   6.303
15937WAT     H248054   2.469   2.115   6.455
15938WAT      O48055   6.719   1.437   2.560
15938WAT     H148056   6.759   1.363   2.613
15938WAT     H248057   6.663   1.398   2.486
15939WAT      O48058   6.252   7.642   7.490
15939WAT     H148059   6.283   7.563   7.543
15939WAT     H248060   6.279   7.726   7.536
15940WAT      O48061   6.909   1.054   5.425
15940WAT     H148062   6.892   1.015   5.515
15940WAT     H248063   6.831   1.035   5.365
15941WAT      O48064   0.064   5.807   0.839
15941WAT     H148065  -0.024   5.774   0.874
15941WAT     H248066   0.102   5.875   0.902
15942WAT      O48067   8.497   1.669   5.988
15942WAT     H148068   8.585   1.664   5.942
15942WAT     H248069   8.507   1.640   6.083
15943WAT      O48070   7.124   2.252   1.292
15943WAT     H148071   7.194   2.289   1.353
15943WAT     H248072   7.072   2.181   1.340
15944WAT      O48073   8.250   8.865   3.916
15944WAT     H148074   8.175   8.931   3.926
15944WAT     H248075   8.328   8.910   3.872
15945WAT      O48076   0.026   3.921   2.001
15945WAT     H148077   0.046   3.868   2.083
15945WAT     H248078   0.098   3.990   1.987
15946WAT      O48079   2.257   9.236   7.178
15946WAT     H148080   2.246   9.139   7.155
15946WAT     H248081   2.351   9.264   7.160
15947WAT      O48082   6.747   5.953   6.127
15947WAT     H148083   6.753   5.861   6.088
15947WAT     H248084   6.803   6.016   6.074
15948WAT      O48085   4.543   7.839   2.861
15948WAT     H148086   4.586   7.782   2.931
15948WAT     H248087   4.580   7.817   2.771
15949WAT      O48088   7.723   6.508   4.640
15949WAT     H148089   7.736   6.411   4.661
15949WAT     H248090   7.713   6.520   4.542
15950WAT      O48091   0.515   2.377   3.267
15950WAT     H148092   0.611   2.352   3.281
15950WAT     H248093   0.456   2.309   3.311
15951WAT      O48094   5.058   8.007   4.595
15951WAT     H148095   5.151   7.974   4.580
15951WAT     H248096   4.999   7.931   4.620
15952WAT      O48097   4.906   8.816   0.195
15952WAT     H148098   4.836   8.852   0.257
15952WAT     H248099   4.992   8.865   0.210
15953WAT      O48100   2.712   1.090   2.467
15953WAT     H148101   2.691   1.183   2.440
15953WAT     H248102   2.684   1.027   2.395
15954WAT      O48103   1.662   8.315   5.005
15954WAT     H148104   1.594   8.256   4.960
15954WAT     H248105   1.621   8.356   5.086
15955WAT      O48106   7.253   8.415   5.881
15955WAT     H148107   7.257   8.376   5.972
15955WAT     H248108   7.291   8.507   5.882
15956WAT      O48109   2.545   5.675   3.877
15956WAT     H148110   2.565   5.577   3.876
15956WAT     H248111   2.624   5.725   3.912
15957WAT      O48112   6.524   9.783   6.645
15957WAT     H148113   6.427   9.796   6.622
15957WAT     H248114   6.557   9.700   6.601
15958WAT      O48115   0.756   2.277   3.325
15958WAT     H148116   0.789   2.307   3.415
15958WAT     H248117   0.800   2.191   3.300
15959WAT      O48118   4.956   2.180   4.785
15959WAT     H148119   5.054   2.183   4.806
15959WAT     H248120   4.931   2.258   4.729
15960WAT      O48121   2.155   2.808   9.469
15960WAT     H148122   2.085   2.759   9.417
15960WAT     H248123   2.118   2.834   9.558
15961WAT      O48124   3.168   5.365   7.934
15961WAT     H148125   3.198   5.401   8.022
15961WAT     H248126   3.122   5.438   7.882
15962WAT      O48127   0.503   9.710   0.018
15962WAT     H148128   0.572   9.746   0.080
15962WAT     H248129   0.504   9.610   0.020
15963WAT      O48130   3.152   6.719   5.565
15963WAT     H148131   3.126   6.624   5.550
15963WAT     H248132   3.190   6.757   5.481
15964WAT      O48133   2.040   4.651   2.629
15964WAT     H148134   2.010   4.567   2.585
15964WAT     H248135   2.132   4.675   2.596
15965WAT      O48136   1.858   7.228   7.200
15965WAT     H148137   1.778   7.283   7.177
15965WAT     H248138   1.907   7.204   7.116
15966WAT      O48139   2.064   8.135   6.036
15966WAT     H148140   2.131   8.060   6.040
15966WAT     H248141   2.016   8.132   5.949
15967WAT      O48142   5.812   7.149   3.090
15967WAT     H148143   5.722   7.120   3.057
15967WAT     H248144   5.801   7.227   3.152
15968WAT      O48145   4.523   3.393   2.059
15968WAT     H148146   4.443   3.361   2.009
15968WAT     H248147   4.580   3.450   1.999
15969WAT      O48148   9.451   3.662   2.802
15969WAT     H148149   9.400   3.679   2.717
15969WAT     H248150   9.503   3.744   2.826
15970WAT      O48151   7.020   7.562   1.606
15970WAT     H148152   6.989   7.491   1.669
15970WAT     H248153   6.949   7.632   1.596
15971WAT      O48154   2.286   5.139   4.254
15971WAT     H148155   2.237   5.099   4.177
15971WAT     H248156   2.220   5.179   4.318
15972WAT      O48157   9.851   5.938   2.226
15972WAT     H148158   9.808   5.950   2.136
15972WAT     H248159   9.820   6.011   2.287
15973WAT      O48160   4.580   5.614   0.405
15973WAT     H148161   4.519   5.549   0.360
15973WAT     H248162   4.647   5.565   0.460
15974WAT      O48163   3.845   0.914   5.308
15974WAT     H148164   3.893   0.962   5.381
15974WAT     H248165   3.793   0.980   5.253
15975WAT      O48166   4.969   8.913   3.510
15975WAT     H148167   4.884   8.889   3.465
15975WAT     H248168   4.987   9.010   3.499
15976WAT      O48169   6.896   3.798   2.981
15976WAT     H148170   6.942   3.743   2.911
15976WAT     H248171   6.957   3.872   3.011
15977WAT      O48172   4.835   4.022   8.496
15977WAT     H148173   4.838   4.026   8.396
15977WAT     H248174   4.797   4.107   8.531
15978WAT      O48175   9.584   9.440   1.008
15978WAT     H148176   9.651   9.511   0.986
15978WAT     H248177   9.558   9.391   0.925
15979WAT      O48178   4.482   6.670   4.555
15979WAT     H148179   4.572   6.628   4.542
15979WAT     H248180   4.490   6.746   4.620
15980WAT      O48181   0.447   6.985   7.400
15980WAT     H148182   0.374   7.044   7.434
15980WAT     H248183   0.515   6.972   7.473
15981WAT      O48184   3.640   2.905   4.125
15981WAT     H148185   3.582   2.855   4.190
15981WAT     H248186   3.686   2.840   4.066
15982WAT      O48187   4.707   1.934   2.597
15982WAT     H148188   4.717   1.861   2.530
15982WAT     H248189   4.782   1.999   2.586
15983WAT      O48190   9.591   9.531   0.487
15983WAT     H148191   9.680   9.556   0.450
15983WAT     H248192   9.603   9.490   0.578
15984WAT      O48193   0.869   8.472   3.404
15984WAT     H148194   0.853   8.565   3.372
15984WAT     H248195   0.964   8.447   3.388
15985WAT      O48196   1.830   6.635   7.605
15985WAT     H148197   1.821   6.601   7.699
15985WAT     H248198   1.742   6.631   7.559
15986WAT      O48199   0.588   4.723   7.787
15986WAT     H148200   0.544   4.653   7.843
15986WAT     H248201   0.543   4.727   7.697
15987WAT      O48202   5.501   6.115   0.815
15987WAT     H148203   5.557   6.141   0.736
15987WAT     H248204   5.559   6.079   0.888
15988WAT      O48205   9.090   5.940   6.943
15988WAT     H148206   9.184   5.935   6.910
15988WAT     H248207   9.036   5.998   6.881
15989WAT      O48208   7.602   1.853   1.611
15989WAT     H148209   7.649   1.802   1.539
15989WAT     H248210   7.624   1.950   1.601
15990WAT      O48211   9.452   0.195   7.624
15990WAT     H148212   9.413   0.239   7.705
15990WAT     H248213   9.445   0.096   7.632
15991WAT      O48214   7.338   2.713   4.535
15991WAT     H148215   7.324   2.652   4.614
15991WAT     H248216   7.290   2.799   4.552
15992WAT      O48217   6.822   1.499   5.737
15992WAT     H148218   6.734   1.523   5.778
15992WAT     H248219   6.807   1.459   5.647
15993WAT      O48220   1.153   2.942   4.163
15993WAT     H148221   1.183   2.945   4.067
15993WAT     H248222   1.196   3.017   4.214
15994WAT      O48223   2.405   9.006   5.600
15994WAT     H148224   2.397   9.017   5.699
15994WAT     H248225   2.356   8.924   5.571
15995WAT      O48226   3.381   6.259   0.702
15995WAT     H148227   3.353   6.195   0.774
15995WAT     H248228   3.354   6.222   0.613
15996WAT      O48229   7.224   9.038   4.666
15996WAT     H148230   7.277   8.958   4.636
15996WAT     H248231   7.271   9.083   4.742
15997WAT      O48232   6.103   9.071   7.961
15997WAT     H148233   6.191   9.052   7.917
15997WAT     H248234   6.050   8.987   7.968
15998WAT      O48235   7.323   6.805   0.979
15998WAT     H148236   7.254   6.735   0.993
15998WAT     H248237   7.340   6.816   0.881
15999WAT      O48238   8.595   8.296   3.421
15999WAT     H148239   8.597   8.385   3.467
15999WAT     H248240   8.543   8.231   3.476
16000WAT      O48241   4.253   9.066   0.437
16000WAT     H148242   4.161   9.032   0.459
16000WAT     H248243   4.244   9.151   0.383
16001WAT      O48244   5.508   0.092   2.716
16001WAT     H148245   5.539   0.187   2.708
16001WAT     H248246   5.555   0.036   2.648
16002WAT      O48247   0.942   5.083   2.372
16002WAT     H148248   1.035   5.056   2.344
16002WAT     H248249   0.930   5.181   2.358
16003WAT      O48250   8.532   0.616   4.859
16003WAT     H148251   8.566   0.585   4.770
16003WAT     H248252   8.479   0.700   4.846
16004WAT      O48253   3.591   1.875   7.085
16004WAT     H148254   3.658   1.915   7.148
16004WAT     H248255   3.627   1.876   6.992
16005WAT      O48256   2.750   4.369   9.825
16005WAT     H148257   2.819   4.354   9.755
16005WAT     H248258   2.718   4.280   9.860
16006WAT      O48259   2.069   0.683   1.177
16006WAT     H148260   2.070   0.614   1.104
16006WAT     H248261   2.026   0.645   1.258
16007WAT      O48262   3.641   9.113   4.743
16007WAT     H148263   3.578   9.144   4.814
16007WAT     H248264   3.602   9.130   4.653
16008WAT      O48265   6.913   8.724   2.515
16008WAT     H148266   6.994   8.782   2.524
16008WAT     H248267   6.884   8.696   2.607
16009WAT      O48268   6.961   0.022   6.059
16009WAT     H148269   6.965  -0.072   6.094
16009WAT     H248270   6.966   0.020   5.959
16010WAT      O48271   7.567   2.134   7.280
16010WAT     H148272   7.618   2.054   7.312
16010WAT     H248273   7.620   2.216   7.299
16011WAT      O48274   3.666   8.555   8.139
16011WAT     H148275   3.593   8.552   8.206
16011WAT     H248276   3.742   8.609   8.175
16012WAT      O48277   5.144   0.037   3.824
16012WAT     H148278   5.072   0.009   3.887
16012WAT     H248279   5.156   0.136   3.829
16013WAT      O48280   1.594   7.344   7.200
16013WAT     H148281   1.527   7.384   7.137
16013WAT     H248282   1.613   7.409   7.274
16014WAT      O48283   9.142   0.889   9.713
16014WAT     H148284   9.239   0.875   9.693
16014WAT     H248285   9.125   0.986   9.731
16015WAT      O48286   1.738   4.083   8.419
16015WAT     H148287   1.770   3.989   8.412
16015WAT     H248288   1.640   4.087   8.403
16016WAT      O48289   1.283   1.563   5.066
16016WAT     H148290   1.364   1.582   5.010
16016WAT     H248291   1.253   1.469   5.051
16017WAT      O48292   4.547   4.611   8.828
16017WAT     H148293   4.605   4.619   8.909
16017WAT     H248294   4.596   4.647   8.748
16018WAT      O48295   6.925   0.010   2.576
16018WAT     H148296   6.850   0.073   2.596
16018WAT     H248297   6.950   0.017   2.479
16019WAT      O48298   4.368   8.609   0.574
16019WAT     H148299   4.456   8.653   0.591
16019WAT     H248300   4.305   8.629   0.649
16020WAT      O48301   9.547   9.053   2.506
16020WAT     H148302   9.578   9.010   2.422
16020WAT     H248303   9.594   9.141   2.519
16021WAT      O48304   1.503   4.865   6.948
16021WAT     H148305   1.403   4.866   6.938
16021WAT     H248306   1.545   4.852   6.858
16022WAT      O48307   8.393   0.507   3.398
16022WAT     H148308   8.352   0.416   3.400
16022WAT     H248309   8.371   0.557   3.481
16023WAT      O48310   8.488   4.218   3.315
16023WAT     H148311   8.493   4.296   3.253
16023WAT     H248312   8.395   4.183   3.318
16024WAT      O48313   5.985   4.717   0.356
16024WAT     H148314   6.053   4.780   0.319
16024WAT     H248315   5.934   4.675   0.281
16025WAT      O48316   6.941   4.659   5.790
16025WAT     H148317   6.854   4.677   5.835
16025WAT     H248318   6.924   4.627   5.696
16026WAT      O48319   7.906   8.102   9.230
16026WAT     H148320   7.889   8.063   9.139
16026WAT     H248321   7.823   8.097   9.285
16027WAT      O48322   3.519   9.742   0.044
16027WAT     H148323   3.599   9.758   0.102
16027WAT     H248324   3.437   9.768   0.094
16028WAT      O48325   4.888   4.947   8.961
16028WAT     H148326   4.824   5.019   8.987
16028WAT     H248327   4.928   4.969   8.872
16029WAT      O48328   4.528   4.315   1.764
16029WAT     H148329   4.482   4.229   1.743
16029WAT     H248330   4.627   4.304   1.753
16030WAT      O48331   6.620   1.415   4.206
16030WAT     H148332   6.550   1.389   4.272
16030WAT     H248333   6.605   1.365   4.121
16031WAT      O48334   8.382   0.531   0.408
16031WAT     H148335   8.340   0.525   0.317
16031WAT     H248336   8.385   0.627   0.436
16032WAT      O48337   8.381   5.855   0.697
16032WAT     H148338   8.438   5.788   0.648
16032WAT     H248339   8.440   5.913   0.753
16033WAT      O48340   1.809   2.882   4.583
16033WAT     H148341   1.738   2.812   4.579
16033WAT     H248342   1.821   2.912   4.678
16034WAT      O48343   8.566   4.014   0.624
16034WAT     H148344   8.643   3.950   0.627
16034WAT     H248345   8.521   4.007   0.535
16035WAT      O48346   5.076   6.312   8.790
16035WAT     H148347   5.038   6.395   8.750
16035WAT     H248348   5.003   6.257   8.831
16036WAT      O48349   6.321   7.119   3.137
16036WAT     H148350   6.411   7.093   3.101
16036WAT     H248351   6.324   7.215   3.167
16037WAT      O48352   2.074   3.840   9.183
16037WAT     H148353   1.981   3.810   9.163
16037WAT     H248354   2.135   3.761   9.183
16038WAT      O48355   3.810   9.420   2.380
16038WAT     H148356   3.876   9.494   2.372
16038WAT     H248357   3.718   9.458   2.385
16039WAT      O48358   2.553   4.400   8.659
16039WAT     H148359   2.597   4.343   8.590
16039WAT     H248360   2.469   4.355   8.691
16040WAT      O48361   0.453   6.262   2.289
16040WAT     H148362   0.372   6.208   2.310
16040WAT     H248363   0.434   6.323   2.212
16041WAT      O48364   0.360   4.501   5.924
16041WAT     H148365   0.398   4.507   6.016
16041WAT     H248366   0.362   4.591   5.881
16042WAT      O48367   2.591   8.936   0.359
16042WAT     H148368   2.563   9.017   0.412
16042WAT     H248369   2.536   8.930   0.276
16043WAT      O48370   6.028   7.709   4.493
16043WAT     H148371   6.005   7.705   4.590
16043WAT     H248372   6.075   7.795   4.474
16044WAT      O48373   2.163   6.941   1.626
16044WAT     H148374   2.239   7.001   1.599
16044WAT     H248375   2.078   6.994   1.628
16045WAT      O48376   4.730   1.340   0.184
16045WAT     H148377   4.658   1.389   0.232
16045WAT     H248378   4.809   1.399   0.172
16046WAT      O48379   2.890   3.737   2.792
16046WAT     H148380   2.832   3.727   2.873
16046WAT     H248381   2.975   3.784   2.817
16047WAT      O48382   4.085   8.364   4.857
16047WAT     H148383   4.057   8.454   4.824
16047WAT     H248384   4.180   8.348   4.834
16048WAT      O48385   8.813   1.965   1.029
16048WAT     H148386   8.775   2.004   0.945
16048WAT     H248387   8.875   2.032   1.071
16049WAT      O48388   0.922   0.076   1.428
16049WAT     H148389   1.020   0.058   1.438
16049WAT     H248390   0.884   0.014   1.359
16050WAT      O48391   1.459   7.846   4.705
16050WAT     H148392   1.376   7.796   4.682
16050WAT     H248393   1.444   7.944   4.691
16051WAT      O48394   8.672   9.139   4.858
16051WAT     H148395   8.620   9.217   4.823
16051WAT     H248396   8.768   9.165   4.866
16052WAT      O48397   9.281   6.346   8.906
16052WAT     H148398   9.339   6.298   8.972
16052WAT     H248399   9.185   6.327   8.926
16053WAT      O48400   7.710   0.686   3.997
16053WAT     H148401   7.780   0.707   4.065
16053WAT     H248402   7.734   0.729   3.910
16054WAT      O48403   3.087   0.869   9.842
16054WAT     H148404   3.108   0.831   9.752
16054WAT     H248405   2.988   0.878   9.852
16055WAT      O48406   7.778   3.698   6.262
16055WAT     H148407   7.750   3.673   6.169
16055WAT     H248408   7.858   3.644   6.287
16056WAT      O48409   9.627   0.131   2.136
16056WAT     H148410   9.555   0.162   2.199
16056WAT     H248411   9.655   0.208   2.078
16057WAT      O48412   4.234   6.517   5.513
16057WAT     H148413   4.306   6.585   5.506
16057WAT     H248414   4.241   6.469   5.601
16058WAT      O48415   9.301   8.039   6.952
16058WAT     H148416   9.340   7.968   6.894
16058WAT     H248417   9.330   8.024   7.047
16059WAT      O48418   8.383   7.276   2.704
16059WAT     H148419   8.384   7.343   2.629
16059WAT     H248420   8.398   7.324   2.791
16060WAT      O48421   8.938   6.493   5.125
16060WAT     H148422   8.957   6.416   5.185
16060WAT     H248423   8.931   6.577   5.180
16061WAT      O48424   7.654   9.597   3.120
16061WAT     H148425   7.602   9.682   3.126
16061WAT     H248426   7.744   9.609   3.161
16062WAT      O48427   4.258   8.249   2.573
16062WAT     H148428   4.323   8.258   2.497
16062WAT     H248429   4.175   8.203   2.541
16063WAT      O48430   4.854   3.158   0.821
16063WAT     H148431   4.862   3.190   0.916
16063WAT     H248432   4.810   3.229   0.766
16064WAT      O48433   0.911   7.306   8.351
16064WAT     H148434   0.863   7.358   8.423
16064WAT     H248435   0.910   7.359   8.266
16065WAT      O48436   7.960   8.534   7.319
16065WAT     H148437   8.058   8.554   7.321
16065WAT     H248438   7.921   8.569   7.234
16066WAT      O48439   6.819   9.245   5.188
16066WAT     H148440   6.830   9.190   5.106
16066WAT     H248441   6.817   9.342   5.163
16067WAT      O48442   5.595   0.957   1.104
16067WAT     H148443   5.627   0.868   1.138
16067WAT     H248444   5.497   0.953   1.087
16068WAT      O48445   9.399   4.070   6.502
16068WAT     H148446   9.490   4.091   6.465
16068WAT     H248447   9.363   4.150   6.549
16069WAT      O48448   8.079   8.897   9.786
16069WAT     H148449   8.126   8.814   9.817
16069WAT     H248450   8.022   8.875   9.707
16070WAT      O48451   8.566   2.269   8.061
16070WAT     H148452   8.568   2.213   8.144
16070WAT     H248453   8.659   2.281   8.027
16071WAT      O48454   4.388   7.429   2.752
16071WAT     H148455   4.311   7.383   2.708
16071WAT     H248456   4.354   7.502   2.811
16072WAT      O48457   2.603   3.979   3.441
16072WAT     H148458   2.543   3.982   3.522
16072WAT     H248459   2.600   4.068   3.395
16073WAT      O48460   1.242   2.471   7.139
16073WAT     H148461   1.194   2.470   7.051
16073WAT     H248462   1.330   2.424   7.130
16074WAT      O48463   2.528   8.182   8.869
16074WAT     H148464   2.525   8.188   8.769
16074WAT     H248465   2.444   8.220   8.907
16075WAT      O48466   2.917   0.270   0.698
16075WAT     H148467   2.949   0.360   0.729
16075WAT     H248468   2.972   0.240   0.621
16076WAT      O48469   8.718   1.577   0.271
16076WAT     H148470   8.718   1.480   0.249
16076WAT     H248471   8.776   1.594   0.350
16077WAT      O48472   3.328   7.834   7.687
16077WAT     H148473   3.268   7.824   7.608
16077WAT     H248474   3.274   7.858   7.768
16078WAT      O48475   9.854   9.250   9.856
16078WAT     H148476   9.756   9.262   9.844
16078WAT     H248477   9.871   9.182   9.927
16079WAT      O48478   4.035   6.684   1.822
16079WAT     H148479   4.115   6.658   1.875
16079WAT     H248480   3.956   6.630   1.852
16080WAT      O48481   9.511   1.494   5.658
16080WAT     H148482   9.428   1.438   5.661
16080WAT     H248483   9.486   1.589   5.637
16081WAT      O48484   6.095   6.929   7.100
16081WAT     H148485   6.116   6.839   7.062
16081WAT     H248486   6.142   6.999   7.046
16082WAT      O48487   6.914   0.574   0.933
16082WAT     H148488   6.835   0.628   0.962
16082WAT     H248489   6.893   0.477   0.942
16083WAT      O48490   0.343   3.533   2.290
16083WAT     H148491   0.263   3.544   2.231
16083WAT     H248492   0.426   3.542   2.235
16084WAT      O48493   8.280   8.482   8.211
16084WAT     H148494   8.266   8.572   8.252
16084WAT     H248495   8.191   8.442   8.188
16085WAT      O48496   1.445   8.094   0.961
16085WAT     H148497   1.538   8.097   0.925
16085WAT     H248498   1.382   8.135   0.896
16086WAT      O48499   7.892   3.177   9.166
16086WAT     H148500   7.898   3.126   9.080
16086WAT     H248501   7.849   3.119   9.236
16087WAT      O48502   7.417   3.047   4.225
16087WAT     H148503   7.470   2.967   4.254
16087WAT     H248504   7.381   3.031   4.133
16088WAT      O48505   6.532   4.219   2.989
16088WAT     H148506   6.434   4.232   2.971
16088WAT     H248507   6.574   4.307   3.011
16089WAT      O48508   4.540   5.111   8.432
16089WAT     H148509   4.477   5.085   8.505
16089WAT     H248510   4.527   5.208   8.410
16090WAT      O48511   0.388   8.330   9.351
16090WAT     H148512   0.421   8.416   9.390
16090WAT     H248513   0.450   8.256   9.377
16091WAT      O48514   9.139   3.549   3.362
16091WAT     H148515   9.103   3.577   3.273
16091WAT     H248516   9.176   3.629   3.409
16092WAT      O48517   2.186   9.816   7.552
16092WAT     H148518   2.199   9.904   7.506
16092WAT     H248519   2.140   9.752   7.490
16093WAT      O48520   1.675   7.611   6.712
16093WAT     H148521   1.622   7.527   6.698
16093WAT     H248522   1.712   7.612   6.805
16094WAT      O48523   5.904   1.652   3.911
16094WAT     H148524   5.827   1.592   3.933
16094WAT     H248525   5.910   1.725   3.979
16095WAT      O48526   6.577   9.178   7.110
16095WAT     H148527   6.649   9.165   7.178
16095WAT     H248528   6.510   9.245   7.144
16096WAT      O48529   2.592   1.591   0.656
16096WAT     H148530   2.652   1.617   0.580
16096WAT     H248531   2.507   1.642   0.651
16097WAT      O48532   8.395   3.035   3.570
16097WAT     H148533   8.356   2.959   3.623
16097WAT     H248534   8.327   3.107   3.561
16098WAT      O48535   0.001   6.707   4.028
16098WAT     H148536   0.053   6.776   3.978
16098WAT     H248537  -0.046   6.647   3.964
16099WAT      O48538   5.883   6.196   4.041
16099WAT     H148539   5.852   6.103   4.019
16099WAT     H248540   5.803   6.254   4.058
16100WAT      O48541   4.846   0.270   8.804
16100WAT     H148542   4.914   0.334   8.769
16100WAT     H248543   4.874   0.176   8.782
16101WAT      O48544   9.044   0.705   2.425
16101WAT     H148545   9.069   0.798   2.452
16101WAT     H248546   9.023   0.703   2.327
16102WAT      O48547   0.890   6.017   5.299
16102WAT     H148548   0.938   6.006   5.387
16102WAT     H248549   0.932   5.957   5.231
16103WAT      O48550   9.415   6.892   3.249
16103WAT     H148551   9.327   6.939   3.256
16103WAT     H248552   9.484   6.958   3.219
16104WAT      O48553   9.774   6.481   3.856
16104WAT     H148554   9.744   6.390   3.825
16104WAT     H248555   9.849   6.512   3.797
16105WAT      O48556   1.274   5.098   5.961
16105WAT     H148557   1.218   5.143   5.892
16105WAT     H248558   1.370   5.102   5.934
16106WAT      O48559   5.433   2.954   3.505
16106WAT     H148560   5.460   2.960   3.409
16106WAT     H248561   5.341   2.992   3.516
16107WAT      O48562   2.813   9.590   8.499
16107WAT     H148563   2.806   9.493   8.477
16107WAT     H248564   2.909   9.615   8.512
16108WAT      O48565   4.077   3.542   0.322
16108WAT     H148566   4.144   3.576   0.257
16108WAT     H248567   4.117   3.469   0.377
16109WAT      O48568   9.478   5.565   0.273
16109WAT     H148569   9.455   5.579   0.177
16109WAT     H248570   9.534   5.483   0.282
16110WAT      O48571   4.230   1.315   8.270
16110WAT     H148572   4.295   1.371   8.220
16110WAT     H248573   4.228   1.223   8.230
16111WAT      O48574   1.689   0.123   2.861
16111WAT     H148575   1.706   0.220   2.879
16111WAT     H248576   1.614   0.092   2.919
16112WAT      O48577   3.610   5.764   2.305
16112WAT     H148578   3.578   5.843   2.357
16112WAT     H248579   3.545   5.743   2.233
16113WAT      O48580   9.114   2.513   4.654
16113WAT     H148581   9.132   2.417   4.674
16113WAT     H248582   9.054   2.551   4.724
16114WAT      O48583   5.743   3.928   5.604
16114WAT     H148584   5.756   4.001   5.538
16114WAT     H248585   5.742   3.966   5.696
16115WAT      O48586   0.738   8.826   3.788
16115WAT     H148587   0.827   8.810   3.745
16115WAT     H248588   0.702   8.915   3.758
16116WAT      O48589   8.705   4.594   7.612
16116WAT     H148590   8.723   4.550   7.700
16116WAT     H248591   8.769   4.670   7.599
16117WAT      O48592   0.003   5.218   7.520
16117WAT     H148593   0.023   5.144   7.455
16117WAT     H248594  -0.036   5.178   7.603
16118WAT      O48595   9.873   6.904   1.768
16118WAT     H148596   9.945   6.936   1.830
16118WAT     H248597   9.824   6.828   1.810
16119WAT      O48598   0.100   3.990   6.438
16119WAT     H148599   0.086   4.003   6.340
16119WAT     H248600   0.196   4.004   6.460
16120WAT      O48601   4.910   3.173   2.605
16120WAT     H148602   4.857   3.210   2.682
16120WAT     H248603   4.901   3.074   2.603
16121WAT      O48604   2.013   4.271   9.252
16121WAT     H148605   2.009   4.179   9.290
16121WAT     H248606   2.100   4.314   9.276
16122WAT      O48607   4.005   7.439   5.116
16122WAT     H148608   4.099   7.441   5.083
16122WAT     H248609   3.993   7.364   5.180
16123WAT      O48610   2.418   2.685   4.535
16123WAT     H148611   2.460   2.636   4.459
16123WAT     H248612   2.379   2.619   4.600
16124WAT      O48613   6.627   0.270   1.100
16124WAT     H148614   6.633   0.349   1.040
16124WAT     H248615   6.530   0.245   1.112
16125WAT      O48616   4.196   7.377   2.188
16125WAT     H148617   4.264   7.396   2.116
16125WAT     H248618   4.170   7.281   2.185
16126WAT      O48619   1.945   3.565   0.663
16126WAT     H148620   1.965   3.601   0.754
16126WAT     H248621   1.956   3.638   0.595
16127WAT      O48622   1.209   0.844   6.364
16127WAT     H148623   1.211   0.814   6.268
16127WAT     H248624   1.265   0.926   6.375
16128WAT      O48625   0.279   0.145   0.383
16128WAT     H148626   0.245   0.081   0.453
16128WAT     H248627   0.205   0.207   0.356
16129WAT      O48628   1.180   0.085   6.637
16129WAT     H148629   1.219   0.085   6.729
16129WAT     H248630   1.254   0.082   6.569
16130WAT      O48631   5.054   9.329   7.064
16130WAT     H148632   5.109   9.405   7.030
16130WAT     H248633   4.959   9.339   7.032
16131WAT      O48634   8.344   2.274   7.905
16131WAT     H148635   8.405   2.277   7.984
16131WAT     H248636   8.253   2.307   7.931
16132WAT      O48637   7.911   9.411   5.243
16132WAT     H148638   7.882   9.320   5.272
16132WAT     H248639   7.844   9.479   5.276
16133WAT      O48640   0.912   2.684   9.722
16133WAT     H148641   0.813   2.674   9.731
16133WAT     H248642   0.934   2.778   9.698
16134WAT      O48643   7.116   1.182   2.576
16134WAT     H148644   7.173   1.117   2.526
16134WAT     H248645   7.067   1.135   2.648
16135WAT      O48646   9.525   8.361   9.470
16135WAT     H148647   9.480   8.319   9.550
16135WAT     H248648   9.478   8.332   9.387
16136WAT      O48649   5.298   2.941   7.268
16136WAT     H148650   5.228   2.930   7.339
16136WAT     H248651   5.340   2.853   7.248
16137WAT      O48652   6.346   2.817   6.915
16137WAT     H148653   6.344   2.816   6.815
16137WAT     H248654   6.423   2.874   6.945
16138WAT      O48655   6.733   8.455   1.031
16138WAT     H148656   6.748   8.426   0.937
16138WAT     H248657   6.637   8.440   1.056
16139WAT      O48658   8.050   7.938   4.693
16139WAT     H148659   8.070   7.848   4.730
16139WAT     H248660   8.026   7.931   4.596
16140WAT      O48661   6.306   1.325   4.044
16140WAT     H148662   6.364   1.333   3.963
16140WAT     H248663   6.271   1.231   4.050
16141WAT      O48664   4.856   7.678   4.973
16141WAT     H148665   4.779   7.739   4.994
16141WAT     H248666   4.876   7.621   5.052
16142WAT      O48667   6.598   2.685   3.340
16142WAT     H148668   6.556   2.774   3.317
16142WAT     H248669   6.612   2.680   3.439
16143WAT      O48670   9.460   8.020   4.710
16143WAT     H148671   9.474   8.026   4.611
16143WAT     H248672   9.541   8.054   4.757
16144WAT      O48673   8.426   4.908   2.126
16144WAT     H148674   8.388   4.961   2.050
16144WAT     H248675   8.435   4.966   2.207
16145WAT      O48676   8.461   9.637   7.943
16145WAT     H148677   8.442   9.684   7.856
16145WAT     H248678   8.557   9.610   7.945
16146WAT      O48679   5.269   9.011   2.388
16146WAT     H148680   5.204   8.962   2.446
16146WAT     H248681   5.229   9.024   2.297
16147WAT      O48682   7.906   2.886   7.543
16147WAT     H148683   7.878   2.969   7.496
16147WAT     H248684   7.826   2.840   7.581
16148WAT      O48685   3.100   0.127   7.601
16148WAT     H148686   3.154   0.192   7.654
16148WAT     H248687   3.095   0.041   7.651
16149WAT      O48688   4.558   5.872   6.017
16149WAT     H148689   4.526   5.960   6.052
16149WAT     H248690   4.621   5.830   6.082
16150WAT      O48691   4.820   0.537   6.772
16150WAT     H148692   4.752   0.541   6.845
16150WAT     H248693   4.874   0.621   6.773
16151WAT      O48694   5.460   8.830   5.560
16151WAT     H148695   5.501   8.743   5.589
16151WAT     H248696   5.379   8.849   5.615
16152WAT      O48697   2.209   6.793   2.570
16152WAT     H148698   2.172   6.826   2.657
16152WAT     H248699   2.158   6.712   2.540
16153WAT      O48700   8.938   1.683   8.289
16153WAT     H148701   8.853   1.725   8.318
16153WAT     H248702   8.939   1.674   8.189
16154WAT      O48703   9.662   6.724   8.417
16154WAT     H148704   9.575   6.762   8.386
16154WAT     H248705   9.738   6.774   8.376
16155WAT      O48706   6.564   0.203   1.494
16155WAT     H148707   6.465   0.217   1.496
16155WAT     H248708   6.585   0.111   1.526
16156WAT      O48709   0.118   0.909   4.784
16156WAT     H148710   0.166   0.839   4.731
16156WAT     H248711   0.034   0.870   4.822
16157WAT      O48712   2.191   7.729   4.418
16157WAT     H148713   2.103   7.691   4.390
16157WAT     H248714   2.263   7.662   4.401
16158WAT      O48715   2.251   4.431   0.038
16158WAT     H148716   2.257   4.522  -0.002
16158WAT     H248717   2.198   4.435   0.122
16159WAT      O48718   8.640   0.380   5.016
16159WAT     H148719   8.587   0.465   5.011
16159WAT     H248720   8.610   0.328   5.096
16160WAT      O48721   8.898   2.590   7.571
16160WAT     H148722   8.980   2.615   7.520
16160WAT     H248723   8.881   2.492   7.561
16161WAT      O48724   8.254   9.530   5.401
16161WAT     H148725   8.185   9.465   5.434
16161WAT     H248726   8.212   9.620   5.389
16162WAT      O48727   0.578   2.804   4.551
16162WAT     H148728   0.587   2.759   4.462
16162WAT     H248729   0.637   2.885   4.554
16163WAT      O48730   4.016   9.813   0.299
16163WAT     H148731   4.039   9.877   0.372
16163WAT     H248732   3.988   9.725   0.339
16164WAT      O48733   1.885   1.749   3.366
16164WAT     H148734   1.863   1.825   3.428
16164WAT     H248735   1.919   1.784   3.280
16165WAT      O48736   4.886   1.765   2.038
16165WAT     H148737   4.820   1.761   1.963
16165WAT     H248738   4.854   1.707   2.114
16166WAT      O48739   0.320   1.460   7.833
16166WAT     H148740   0.393   1.520   7.799
16166WAT     H248741   0.322   1.460   7.933
16167WAT      O48742   9.381   1.366   2.372
16167WAT     H148743   9.439   1.385   2.451
16167WAT     H248744   9.289   1.343   2.403
16168WAT      O48745   1.846   2.557   6.654
16168WAT     H148746   1.777   2.491   6.683
16168WAT     H248747   1.900   2.585   6.733
16169WAT      O48748   5.457   9.777   4.944
16169WAT     H148749   5.406   9.696   4.916
16169WAT     H248750   5.395   9.854   4.952
16170WAT      O48751   2.966   7.474   2.363
16170WAT     H148752   3.010   7.545   2.417
16170WAT     H248753   2.883   7.510   2.321
16171WAT      O48754   5.988   6.505   6.327
16171WAT     H148755   5.923   6.565   6.374
16171WAT     H248756   5.945   6.467   6.245
16172WAT      O48757   9.314   4.608   9.593
16172WAT     H148758   9.239   4.580   9.653
16172WAT     H248759   9.295   4.700   9.558
16173WAT      O48760   1.319   0.810   6.098
16173WAT     H148761   1.375   0.892   6.105
16173WAT     H248762   1.376   0.730   6.116
16174WAT      O48763   3.118   1.055   2.582
16174WAT     H148764   3.069   0.974   2.613
16174WAT     H248765   3.081   1.085   2.494
16175WAT      O48766   3.314   8.955   7.729
16175WAT     H148767   3.308   8.864   7.770
16175WAT     H248768   3.223   8.995   7.722
16176WAT      O48769   7.794   0.757   8.944
16176WAT     H148770   7.847   0.784   8.863
16176WAT     H248771   7.761   0.663   8.932
16177WAT      O48772   2.517   3.379   4.387
16177WAT     H148773   2.451   3.394   4.461
16177WAT     H248774   2.587   3.450   4.390
16178WAT      O48775   7.807   4.109   3.607
16178WAT     H148776   7.899   4.071   3.602
16178WAT     H248777   7.803   4.176   3.681
16179WAT      O48778   5.787   2.150   9.605
16179WAT     H148779   5.742   2.230   9.565
16179WAT     H248780   5.874   2.178   9.647
16180WAT      O48781   3.690   0.347   2.874
16180WAT     H148782   3.705   0.439   2.908
16180WAT     H248783   3.609   0.345   2.815
16181WAT      O48784   4.873   1.440   2.831
16181WAT     H148785   4.893   1.439   2.928
16181WAT     H248786   4.788   1.389   2.814
16182WAT      O48787   8.285   6.876   0.008
16182WAT     H148788   8.255   6.884   0.103
16182WAT     H248789   8.224   6.928  -0.051
16183WAT      O48790   3.915   7.950   1.976
16183WAT     H148791   3.834   7.988   2.021
16183WAT     H248792   3.958   8.019   1.918
16184WAT      O48793   8.968   8.296   4.567
16184WAT     H148794   8.924   8.317   4.480
16184WAT     H248795   9.052   8.350   4.575
16185WAT      O48796   0.152   5.968   2.607
16185WAT     H148797   0.190   5.977   2.699
16185WAT     H248798   0.066   6.018   2.601
16186WAT      O48799   0.858   0.554   2.345
16186WAT     H148800   0.912   0.592   2.269
16186WAT     H248801   0.799   0.481   2.310
16187WAT      O48802   6.669   4.125   3.581
16187WAT     H148803   6.633   4.125   3.674
16187WAT     H248804   6.745   4.190   3.575
16188WAT      O48805   8.077   5.264   2.468
16188WAT     H148806   8.150   5.248   2.535
16188WAT     H248807   7.990   5.275   2.516
16189WAT      O48808   0.795   0.950   0.692
16189WAT     H148809   0.872   0.913   0.640
16189WAT     H248810   0.798   0.916   0.786
16190WAT      O48811   9.484   4.915   8.282
16190WAT     H148812   9.387   4.892   8.291
16190WAT     H248813   9.506   4.990   8.345
16191WAT      O48814   7.360   2.584   4.031
16191WAT     H148815   7.360   2.614   4.126
16191WAT     H248816   7.286   2.518   4.016
16192WAT      O48817   6.893   8.741   8.486
16192WAT     H148818   6.867   8.810   8.418
16192WAT     H248819   6.910   8.654   8.440
16193WAT      O48820   7.138   7.362   2.101
16193WAT     H148821   7.194   7.296   2.053
16193WAT     H248822   7.130   7.336   2.197
16194WAT      O48823   9.155   5.031   3.162
16194WAT     H148824   9.199   5.089   3.229
16194WAT     H248825   9.192   5.050   3.071
16195WAT      O48826   4.892   7.648   9.421
16195WAT     H148827   4.875   7.741   9.454
16195WAT     H248828   4.943   7.596   9.489
16196WAT      O48829   6.854   5.122   2.879
16196WAT     H148830   6.825   5.187   2.808
16196WAT     H248831   6.784   5.118   2.950
16197WAT      O48832   0.093   0.958   5.502
16197WAT     H148833   0.045   0.882   5.545
16197WAT     H248834   0.029   1.031   5.481
16198WAT      O48835   0.691   6.671   6.009
16198WAT     H148836   0.689   6.680   5.909
16198WAT     H248837   0.767   6.611   6.035
16199WAT      O48838   8.872   4.536   9.796
16199WAT     H148839   8.893   4.631   9.776
16199WAT     H248840   8.798   4.532   9.863
16200WAT      O48841   4.211   1.979   7.488
16200WAT     H148842   4.125   2.015   7.453
16200WAT     H248843   4.194   1.924   7.569
16201WAT      O48844   7.703   2.812   0.324
16201WAT     H148845   7.731   2.879   0.255
16201WAT     H248846   7.683   2.725   0.279
16202WAT      O48847   9.318   1.528   8.051
16202WAT     H148848   9.340   1.563   7.960
16202WAT     H248849   9.285   1.434   8.044
16203WAT      O48850   3.467   7.283   8.297
16203WAT     H148851   3.375   7.296   8.334
16203WAT     H248852   3.526   7.358   8.326
16204WAT      O48853   9.743   0.838   8.308
16204WAT     H148854   9.752   0.741   8.332
16204WAT     H248855   9.707   0.888   8.387
16205WAT      O48856   0.425   5.524   4.850
16205WAT     H148857   0.497   5.593   4.858
16205WAT     H248858   0.362   5.532   4.927
16206WAT      O48859   3.523   6.246   1.402
16206WAT     H148860   3.617   6.215   1.395
16206WAT     H248861   3.500   6.261   1.498
16207WAT      O48862   0.106   5.865   0.229
16207WAT     H148863   0.037   5.865   0.301
16207WAT     H248864   0.133   5.771   0.208
16208WAT      O48865   5.382   1.263   2.864
16208WAT     H148866   5.336   1.227   2.945
16208WAT     H248867   5.358   1.359   2.852
16209WAT      O48868   9.076   1.503   6.768
16209WAT     H148869   9.014   1.557   6.826
16209WAT     H248870   9.165   1.495   6.812
16210WAT      O48871   4.342   3.361   3.939
16210WAT     H148872   4.263   3.414   3.969
16210WAT     H248873   4.408   3.423   3.896
16211WAT      O48874   4.344   6.566   7.862
16211WAT     H148875   4.382   6.649   7.903
16211WAT     H248876   4.408   6.531   7.792
16212WAT      O48877   3.711   1.661   2.540
16212WAT     H148878   3.774   1.584   2.550
16212WAT     H248879   3.666   1.679   2.628
16213WAT      O48880   2.559   5.429   8.275
16213WAT     H148881   2.537   5.520   8.239
16213WAT     H248882   2.527   5.421   8.369
16214WAT      O48883   8.328   4.196   7.025
16214WAT     H148884   8.399   4.246   6.975
16214WAT     H248885   8.318   4.236   7.117
16215WAT      O48886   4.435   6.326   7.310
16215WAT     H148887   4.482   6.316   7.222
16215WAT     H248888   4.444   6.241   7.362
16216WAT      O48889   4.466   0.750   6.080
16216WAT     H148890   4.472   0.721   5.985
16216WAT     H248891   4.373   0.782   6.099
16217WAT      O48892   4.510   6.859   5.784
16217WAT     H148893   4.459   6.813   5.856
16217WAT     H248894   4.490   6.816   5.696
16218WAT      O48895   7.878   2.998   9.705
16218WAT     H148896   7.852   3.047   9.788
16218WAT     H248897   7.796   2.960   9.662
16219WAT      O48898   1.658   3.937   0.004
16219WAT     H148899   1.669   3.896   0.095
16219WAT     H248900   1.633   3.866  -0.062
16220WAT      O48901   3.638   6.203   2.284
16220WAT     H148902   3.706   6.225   2.214
16220WAT     H248903   3.619   6.285   2.339
16221WAT      O48904   9.389   2.692   5.946
16221WAT     H148905   9.487   2.679   5.927
16221WAT     H248906   9.368   2.655   6.037
16222WAT      O48907   2.695   1.968   8.655
16222WAT     H148908   2.747   1.968   8.740
16222WAT     H248909   2.718   1.888   8.600
16223WAT      O48910   3.766   4.580   9.275
16223WAT     H148911   3.750   4.664   9.327
16223WAT     H248912   3.722   4.503   9.322
16224WAT      O48913   3.904   7.283   6.592
16224WAT     H148914   3.919   7.188   6.621
16224WAT     H248915   3.903   7.288   6.492
16225WAT      O48916   3.457   2.162   2.176
16225WAT     H148917   3.444   2.241   2.237
16225WAT     H248918   3.480   2.082   2.230
16226WAT      O48919   3.379   0.037   4.250
16226WAT     H148920   3.417   0.081   4.331
16226WAT     H248921   3.412  -0.058   4.245
16227WAT      O48922   4.736   5.548   8.750
16227WAT     H148923   4.698   5.536   8.842
16227WAT     H248924   4.676   5.608   8.697
16228WAT      O48925   5.809   6.020   8.234
16228WAT     H148926   5.753   5.945   8.270
16228WAT     H248927   5.906   5.997   8.246
16229WAT      O48928   2.833   9.790   9.464
16229WAT     H148929   2.852   9.850   9.386
16229WAT     H248930   2.917   9.774   9.516
16230WAT      O48931   0.345   6.248   8.408
16230WAT     H148932   0.396   6.329   8.378
16230WAT     H248933   0.393   6.165   8.379
16231WAT      O48934   2.466   3.046   3.554
16231WAT     H148935   2.516   3.021   3.471
16231WAT     H248936   2.531   3.062   3.628
16232WAT      O48937   6.260   8.226   0.771
16232WAT     H148938   6.318   8.149   0.799
16232WAT     H248939   6.260   8.232   0.671
16233WAT      O48940   8.384   2.971   2.698
16233WAT     H148941   8.423   2.884   2.728
16233WAT     H248942   8.408   3.043   2.764
16234WAT      O48943   5.853   2.612   4.428
16234WAT     H148944   5.895   2.623   4.519
16234WAT     H248945   5.923   2.621   4.358
16235WAT      O48946   8.634   7.855   6.517
16235WAT     H148947   8.558   7.839   6.579
16235WAT     H248948   8.702   7.914   6.561
16236WAT      O48949   3.641   4.620   6.316
16236WAT     H148950   3.735   4.613   6.348
16236WAT     H248951   3.581   4.638   6.394
16237WAT      O48952   3.185   4.882   9.647
16237WAT     H148953   3.098   4.885   9.696
16237WAT     H248954   3.169   4.853   9.553
16238WAT      O48955   6.407   2.664   5.897
16238WAT     H148956   6.400   2.568   5.870
16238WAT     H248957   6.501   2.696   5.886
16239WAT      O48958   0.593   2.539   3.487
16239WAT     H148959   0.567   2.481   3.410
16239WAT     H248960   0.572   2.634   3.466
16240WAT      O48961   0.813   7.303   4.765
16240WAT     H148962   0.719   7.313   4.800
16240WAT     H248963   0.843   7.389   4.724
16241WAT      O48964   8.167   9.035   9.511
16241WAT     H148965   8.089   9.096   9.520
16241WAT     H248966   8.248   9.078   9.553
16242WAT      O48967   8.631   0.948   8.546
16242WAT     H148968   8.686   0.906   8.474
16242WAT     H248969   8.588   0.877   8.602
16243WAT      O48970   3.839   0.937   8.834
16243WAT     H148971   3.858   1.035   8.839
16243WAT     H248972   3.914   0.891   8.787
16244WAT      O48973   7.967   1.724   2.103
16244WAT     H148974   7.884   1.709   2.048
16244WAT     H248975   8.033   1.652   2.084
16245WAT      O48976   3.497   8.786   3.993
16245WAT     H148977   3.455   8.722   3.929
16245WAT     H248978   3.589   8.809   3.961
16246WAT      O48979   8.564   0.720   0.027
16246WAT     H148980   8.555   0.649  -0.042
16246WAT     H248981   8.659   0.726   0.058
16247WAT      O48982   4.368   2.882   7.047
16247WAT     H148983   4.403   2.973   7.026
16247WAT     H248984   4.401   2.817   6.980
16248WAT      O48985   3.801   2.105   4.376
16248WAT     H148986   3.869   2.089   4.305
16248WAT     H248987   3.749   2.188   4.354
16249WAT      O48988   9.567   8.990   3.786
16249WAT     H148989   9.584   8.892   3.780
16249WAT     H248990   9.480   9.012   3.742
16250WAT      O48991   1.116   4.562   3.373
16250WAT     H148992   1.179   4.594   3.303
16250WAT     H248993   1.034   4.523   3.330
16251WAT      O48994   8.275   4.593   3.298
16251WAT     H148995   8.326   4.676   3.322
16251WAT     H248996   8.181   4.601   3.330
16252WAT      O48997   0.443   5.983   3.137
16252WAT     H148998   0.369   6.041   3.170
16252WAT     H248999   0.525   6.038   3.124
16253WAT      O49000   3.959   2.296   1.125
16253WAT     H149001   3.953   2.273   1.223
16253WAT     H249002   3.908   2.228   1.072
16254WAT      O49003   8.335   3.063   7.712
16254WAT     H149004   8.325   2.991   7.781
16254WAT     H249005   8.245   3.086   7.675
16255WAT      O49006   9.755   8.390   8.411
16255WAT     H149007   9.835   8.442   8.440
16255WAT     H249008   9.781   8.296   8.390
16256WAT      O49009   4.470   5.463   1.502
16256WAT     H149010   4.397   5.532   1.496
16256WAT     H249011   4.447   5.385   1.444
16257WAT      O49012   8.533   9.645   2.739
16257WAT     H149013   8.548   9.709   2.663
16257WAT     H249014   8.616   9.640   2.795
16258WAT      O49015   0.678   9.763   4.097
16258WAT     H149016   0.587   9.759   4.139
16258WAT     H249017   0.741   9.705   4.149
16259WAT      O49018   7.220   9.703   9.820
16259WAT     H149019   7.198   9.610   9.790
16259WAT     H249020   7.150   9.734   9.885
16260WAT      O49021   9.469   1.401   2.845
16260WAT     H149022   9.562   1.382   2.876
16260WAT     H249023   9.469   1.486   2.792
16261WAT      O49024   4.618   3.647   9.391
16261WAT     H149025   4.574   3.719   9.445
16261WAT     H249026   4.565   3.629   9.309
16262WAT      O49027   8.193   7.905   4.205
16262WAT     H149028   8.227   7.857   4.287
16262WAT     H249029   8.198   7.843   4.127
16263WAT      O49030   3.297   3.279   6.928
16263WAT     H149031   3.294   3.275   6.828
16263WAT     H249032   3.385   3.317   6.957
16264WAT      O49033   5.853   0.203   5.945
16264WAT     H149034   5.825   0.202   5.849
16264WAT     H249035   5.897   0.290   5.966
16265WAT      O49036   4.227   1.233   1.878
16265WAT     H149037   4.260   1.156   1.824
16265WAT     H249038   4.172   1.293   1.820
16266WAT      O49039   0.008   1.159   0.354
16266WAT     H149040  -0.062   1.131   0.289
16266WAT     H249041   0.062   1.079   0.381
16267WAT      O49042   3.163   7.710   5.841
16267WAT     H149043   3.093   7.779   5.821
16267WAT     H249044   3.166   7.693   5.939
16268WAT      O49045   7.931   2.562   7.917
16268WAT     H149046   7.862   2.539   7.849
16268WAT     H249047   7.889   2.563   8.008
16269WAT      O49048   1.179   2.396   7.393
16269WAT     H149049   1.200   2.423   7.299
16269WAT     H249050   1.177   2.296   7.400
16270WAT      O49051   0.382   4.922   7.774
16270WAT     H149052   0.436   4.841   7.754
16270WAT     H249053   0.300   4.896   7.824
16271WAT      O49054   3.672   7.710   8.711
16271WAT     H149055   3.710   7.765   8.785
16271WAT     H249056   3.573   7.725   8.706
16272WAT      O49057   8.815   5.640   3.372
16272WAT     H149058   8.907   5.648   3.409
16272WAT     H249059   8.760   5.718   3.402
16273WAT      O49060   7.094   2.636   2.832
16273WAT     H149061   7.086   2.608   2.927
16273WAT     H249062   7.104   2.735   2.826
16274WAT      O49063   6.004   4.045   0.569
16274WAT     H149064   6.075   3.981   0.541
16274WAT     H249065   5.961   4.084   0.487
16275WAT      O49066   3.594   1.081   3.819
16275WAT     H149067   3.606   0.996   3.767
16275WAT     H249068   3.554   1.060   3.908
16276WAT      O49069   3.322   5.772   1.762
16276WAT     H149070   3.256   5.785   1.836
16276WAT     H249071   3.313   5.679   1.725
16277WAT      O49072   8.532   4.345   0.288
16277WAT     H149073   8.499   4.282   0.357
16277WAT     H249074   8.494   4.436   0.306
16278WAT      O49075   9.363   4.004   1.489
16278WAT     H149076   9.433   4.067   1.522
16278WAT     H249077   9.405   3.929   1.439
16279WAT      O49078   1.048   8.238   7.330
16279WAT     H149079   0.997   8.324   7.332
16279WAT     H249080   1.023   8.183   7.410
16280WAT      O49081   7.411   1.830   9.223
16280WAT     H149082   7.363   1.775   9.154
16280WAT     H249083   7.363   1.916   9.237
16281WAT      O49084   8.405   8.897   1.542
16281WAT     H149085   8.374   8.904   1.447
16281WAT     H249086   8.505   8.897   1.544
16282WAT      O49087   4.801   3.203   9.837
16282WAT     H149088   4.726   3.155   9.792
16282WAT     H249089   4.764   3.276   9.895
16283WAT      O49090   8.841   4.532   1.762
16283WAT     H149091   8.903   4.468   1.808
16283WAT     H249092   8.757   4.484   1.737
16284WAT      O49093   8.701   3.251   7.645
16284WAT     H149094   8.613   3.258   7.693
16284WAT     H249095   8.752   3.173   7.682
16285WAT      O49096   6.960   8.110   4.896
16285WAT     H149097   6.995   8.158   4.816
16285WAT     H249098   6.884   8.161   4.935
16286WAT      O49099   2.542   6.712   1.810
16286WAT     H149100   2.536   6.673   1.718
16286WAT     H249101   2.583   6.646   1.872
16287WAT      O49102   4.912   0.688   9.343
16287WAT     H149103   5.002   0.731   9.345
16287WAT     H249104   4.859   0.717   9.423
16288WAT      O49105   5.632   9.460   3.659
16288WAT     H149106   5.669   9.519   3.731
16288WAT     H249107   5.692   9.381   3.647
16289WAT      O49108   9.358   6.093   1.964
16289WAT     H149109   9.288   6.162   1.984
16289WAT     H249110   9.367   6.083   1.865
16290WAT      O49111   0.469   0.478   2.728
16290WAT     H149112   0.398   0.519   2.785
16290WAT     H249113   0.556   0.523   2.746
16291WAT      O49114   3.577   7.565   9.116
16291WAT     H149115   3.477   7.568   9.109
16291WAT     H249116   3.614   7.509   9.042
16292WAT      O49117   2.342   5.231   6.085
16292WAT     H149118   2.353   5.161   6.156
16292WAT     H249119   2.432   5.261   6.054
16293WAT      O49120   6.835   0.150   0.477
16293WAT     H149121   6.879   0.226   0.525
16293WAT     H249122   6.812   0.179   0.384
16294WAT      O49123   4.544   7.581   1.229
16294WAT     H149124   4.478   7.656   1.233
16294WAT     H249125   4.527   7.519   1.306
16295WAT      O49126   9.096   6.719   7.052
16295WAT     H149127   9.059   6.684   7.139
16295WAT     H249128   9.170   6.659   7.021
16296WAT      O49129   0.503   9.172   2.477
16296WAT     H149130   0.534   9.169   2.382
16296WAT     H249131   0.582   9.174   2.538
16297WAT      O49132   9.362   2.948   9.542
16297WAT     H149133   9.452   2.907   9.559
16297WAT     H249134   9.345   3.020   9.608
16298WAT      O49135   1.960   4.337   2.226
16298WAT     H149136   1.884   4.382   2.179
16298WAT     H249137   1.952   4.238   2.213
16299WAT      O49138   5.277   8.970   3.909
16299WAT     H149139   5.268   8.896   3.976
16299WAT     H249140   5.234   9.053   3.945
16300WAT      O49141   4.495   3.935   7.469
16300WAT     H149142   4.495   4.030   7.501
16300WAT     H249143   4.434   3.881   7.526
16301WAT      O49144   2.591   3.501   8.439
16301WAT     H149145   2.563   3.418   8.487
16301WAT     H249146   2.588   3.485   8.341
16302WAT      O49147   8.432   7.301   3.679
16302WAT     H149148   8.494   7.251   3.618
16302WAT     H249149   8.438   7.263   3.771
16303WAT      O49150   4.296   0.274   5.005
16303WAT     H149151   4.215   0.309   4.959
16303WAT     H249152   4.329   0.193   4.958
16304WAT      O49153   3.415   3.034   4.039
16304WAT     H149154   3.502   2.991   4.066
16304WAT     H249155   3.433   3.112   3.979
16305WAT      O49156   5.918   9.819   5.639
16305WAT     H149157   5.993   9.833   5.704
16305WAT     H249158   5.842   9.879   5.661
16306WAT      O49159   8.641   9.764   7.251
16306WAT     H149160   8.548   9.756   7.287
16306WAT     H249161   8.670   9.675   7.215
16307WAT      O49162   1.355   0.405   1.599
16307WAT     H149163   1.316   0.413   1.691
16307WAT     H249164   1.331   0.485   1.545
16308WAT      O49165   1.240   1.645   9.391
16308WAT     H149166   1.286   1.562   9.358
16308WAT     H249167   1.308   1.709   9.427
16309WAT      O49168   2.160   9.716   1.316
16309WAT     H149169   2.107   9.719   1.401
16309WAT     H249170   2.155   9.805   1.271
16310WAT      O49171   5.669   3.394   3.395
16310WAT     H149172   5.609   3.315   3.383
16310WAT     H249173   5.654   3.434   3.486
16311WAT      O49174   9.832   5.978   5.660
16311WAT     H149175   9.888   6.015   5.586
16311WAT     H249176   9.751   5.933   5.621
16312WAT      O49177   7.205   6.698   9.873
16312WAT     H149178   7.147   6.764   9.921
16312WAT     H249179   7.301   6.720   9.888
16313WAT      O49180   0.927   2.280   4.742
16313WAT     H149181   0.892   2.253   4.652
16313WAT     H249182   0.864   2.346   4.783
16314WAT      O49183   2.954   1.972   7.791
16314WAT     H149184   2.924   1.939   7.880
16314WAT     H249185   2.989   2.065   7.799
16315WAT      O49186   6.691   9.625   2.763
16315WAT     H149187   6.658   9.719   2.766
16315WAT     H249188   6.791   9.625   2.754
16316WAT      O49189   3.982   2.543   3.943
16316WAT     H149190   3.984   2.570   3.847
16316WAT     H249191   4.062   2.485   3.963
16317WAT      O49192   3.880   2.473   9.526
16317WAT     H149193   3.935   2.389   9.521
16317WAT     H249194   3.793   2.453   9.570
16318WAT      O49195   0.876   9.243   9.438
16318WAT     H149196   0.834   9.309   9.375
16318WAT     H249197   0.873   9.152   9.398
16319WAT      O49198   2.127   0.777   6.733
16319WAT     H149199   2.213   0.771   6.783
16319WAT     H249200   2.118   0.699   6.671
16320WAT      O49201   0.820   4.850   7.758
16320WAT     H149202   0.877   4.795   7.819
16320WAT     H249203   0.725   4.816   7.761
16321WAT      O49204   1.191   1.492   2.481
16321WAT     H149205   1.201   1.397   2.508
16321WAT     H249206   1.170   1.548   2.561
16322WAT      O49207   8.240   9.484   5.696
16322WAT     H149208   8.305   9.534   5.640
16322WAT     H249209   8.158   9.464   5.642
16323WAT      O49210   0.153   8.309   9.204
16323WAT     H149211   0.239   8.300   9.256
16323WAT     H249212   0.123   8.405   9.207
16324WAT      O49213   9.810   5.742   4.463
16324WAT     H149214   9.721   5.715   4.498
16324WAT     H249215   9.881   5.683   4.501
16325WAT      O49216   3.665   2.056   7.306
16325WAT     H149217   3.605   1.988   7.348
16325WAT     H249218   3.638   2.148   7.335
16326WAT      O49219   5.893   0.026   1.594
16326WAT     H149220   5.912  -0.039   1.520
16326WAT     H249221   5.979   0.066   1.627
16327WAT      O49222   0.321   9.733   8.407
16327WAT     H149223   0.319   9.646   8.455
16327WAT     H249224   0.344   9.717   8.311
16328WAT      O49225   5.791   0.953   5.712
16328WAT     H149226   5.755   0.955   5.619
16328WAT     H249227   5.729   1.002   5.773
16329WAT      O49228   2.262   8.962   7.163
16329WAT     H149229   2.253   8.908   7.079
16329WAT     H249230   2.198   8.928   7.232
16330WAT      O49231   6.441   2.896   0.620
16330WAT     H149232   6.518   2.948   0.657
16330WAT     H249233   6.383   2.864   0.695
16331WAT      O49234   5.460   6.450   4.583
16331WAT     H149235   5.489   6.477   4.675
16331WAT     H249236   5.367   6.414   4.587
16332WAT      O49237   9.166   1.212   8.236
16332WAT     H149238   9.123   1.236   8.323
16332WAT     H249239   9.255   1.169   8.252
16333WAT      O49240   8.377   8.675   3.430
16333WAT     H149241   8.362   8.761   3.479
16333WAT     H249242   8.383   8.600   3.496
16334WAT      O49243   5.818   7.605   4.354
16334WAT     H149244   5.786   7.531   4.412
16334WAT     H249245   5.884   7.661   4.404
16335WAT      O49246   8.641   3.851   8.926
16335WAT     H149247   8.639   3.751   8.927
16335WAT     H249248   8.549   3.886   8.943
16336WAT      O49249   5.093   7.240   0.655
16336WAT     H149250   5.035   7.320   0.640
16336WAT     H249251   5.178   7.268   0.700
16337WAT      O49252   1.835   7.988   2.162
16337WAT     H149253   1.811   8.026   2.072
16337WAT     H249254   1.763   7.927   2.193
16338WAT      O49255   1.505   1.776   9.486
16338WAT     H149256   1.509   1.869   9.451
16338WAT     H249257   1.549   1.772   9.576
16339WAT      O49258   9.082   0.302   5.199
16339WAT     H149259   9.031   0.349   5.271
16339WAT     H249260   9.138   0.230   5.239
16340WAT      O49261   7.436   3.027   5.948
16340WAT     H149262   7.401   2.952   5.892
16340WAT     H249263   7.404   3.114   5.911
16341WAT      O49264   0.293   7.196   3.148
16341WAT     H149265   0.230   7.121   3.163
16341WAT     H249266   0.248   7.267   3.094
16342WAT      O49267   2.154   0.245   7.890
16342WAT     H149268   2.119   0.249   7.984
16342WAT     H249269   2.194   0.334   7.865
16343WAT      O49270   0.738   6.733   8.089
16343WAT     H149271   0.709   6.781   8.172
16343WAT     H249272   0.827   6.768   8.060
16344WAT      O49273   9.529   4.440   6.730
16344WAT     H149274   9.569   4.360   6.685
16344WAT     H249275   9.566   4.524   6.688
16345WAT      O49276   5.893   5.774   1.658
16345WAT     H149277   5.830   5.698   1.671
16345WAT     H249278   5.865   5.827   1.578
16346WAT      O49279   7.527   8.106   1.926
16346WAT     H149280   7.563   8.126   2.018
16346WAT     H249281   7.543   8.010   1.905
16347WAT      O49282   4.710   5.227   2.755
16347WAT     H149283   4.727   5.230   2.854
16347WAT     H249284   4.612   5.233   2.738
16348WAT      O49285   0.919   5.050   8.765
16348WAT     H149286   0.884   5.023   8.855
16348WAT     H249287   0.843   5.082   8.708
16349WAT      O49288   2.888   6.445   5.860
16349WAT     H149289   2.926   6.503   5.932
16349WAT     H249290   2.880   6.351   5.894
16350WAT      O49291   5.087   0.473   0.128
16350WAT     H149292   5.103   0.390   0.182
16350WAT     H249293   4.996   0.508   0.147
16351WAT      O49294   2.029   0.766   1.650
16351WAT     H149295   2.110   0.813   1.613
16351WAT     H249296   1.947   0.800   1.605
16352WAT      O49297   2.488   7.460   5.790
16352WAT     H149298   2.542   7.541   5.811
16352WAT     H249299   2.473   7.407   5.873
16353WAT      O49300   8.442   7.841   1.991
16353WAT     H149301   8.361   7.820   2.046
16353WAT     H249302   8.524   7.836   2.049
16354WAT      O49303   5.465   9.529   9.565
16354WAT     H149304   5.430   9.490   9.480
16354WAT     H249305   5.565   9.523   9.565
16355WAT      O49306   4.098   4.504   4.197
16355WAT     H149307   4.092   4.406   4.177
16355WAT     H249308   4.179   4.522   4.253
16356WAT      O49309   0.961   5.064   0.931
16356WAT     H149310   0.882   5.004   0.939
16356WAT     H249311   0.945   5.132   0.859
16357WAT      O49312   6.819   2.018   6.446
16357WAT     H149313   6.773   1.944   6.495
16357WAT     H249314   6.757   2.059   6.379
16358WAT      O49315   8.450   6.994   1.906
16358WAT     H149316   8.374   7.046   1.867
16358WAT     H249317   8.415   6.912   1.951
16359WAT      O49318   6.901   2.765   6.138
16359WAT     H149319   6.935   2.671   6.133
16359WAT     H249320   6.872   2.785   6.232
16360WAT      O49321   1.529   3.850   5.797
16360WAT     H149322   1.591   3.872   5.873
16360WAT     H249323   1.583   3.827   5.716
16361WAT      O49324   5.504   1.544   7.387
16361WAT     H149325   5.596   1.511   7.408
16361WAT     H249326   5.510   1.623   7.326
16362WAT      O49327   4.454   5.145   0.173
16362WAT     H149328   4.357   5.123   0.178
16362WAT     H249329   4.496   5.129   0.263
16363WAT      O49330   8.703   4.492   0.149
16363WAT     H149331   8.791   4.457   0.180
16363WAT     H249332   8.631   4.427   0.172
16364WAT      O49333   5.020   7.246   2.082
16364WAT     H149334   5.113   7.274   2.104
16364WAT     H249335   5.005   7.255   1.984
16365WAT      O49336   0.483   1.356   7.033
16365WAT     H149337   0.500   1.439   6.980
16365WAT     H249338   0.531   1.279   6.990
16366WAT      O49339   5.744   3.726   2.212
16366WAT     H149340   5.667   3.670   2.181
16366WAT     H249341   5.736   3.818   2.175
16367WAT      O49342   0.900   5.913   0.559
16367WAT     H149343   0.949   5.849   0.618
16367WAT     H249344   0.868   5.864   0.477
16368WAT      O49345   0.885   7.534   4.677
16368WAT     H149346   0.846   7.602   4.739
16368WAT     H249347   0.864   7.559   4.582
16369WAT      O49348   9.276   8.787   0.846
16369WAT     H149349   9.223   8.763   0.928
16369WAT     H249350   9.327   8.871   0.863
16370WAT      O49351   6.632   3.690   4.824
16370WAT     H149352   6.680   3.778   4.820
16370WAT     H249353   6.533   3.707   4.829
16371WAT      O49354   5.203   4.621   3.501
16371WAT     H149355   5.192   4.529   3.539
16371WAT     H249356   5.171   4.689   3.566
16372WAT      O49357   7.258   6.910   8.085
16372WAT     H149358   7.332   6.971   8.110
16372WAT     H249359   7.185   6.962   8.040
16373WAT      O49360   9.302   4.483   4.620
16373WAT     H149361   9.335   4.402   4.571
16373WAT     H249362   9.326   4.566   4.568
16374WAT      O49363   7.359   5.480   7.153
16374WAT     H149364   7.374   5.381   7.160
16374WAT     H249365   7.286   5.497   7.086
16375WAT      O49366   0.607   7.943   7.103
16375WAT     H149367   0.529   7.989   7.061
16375WAT     H249368   0.675   8.011   7.131
16376WAT      O49369   8.925   0.953   7.930
16376WAT     H149370   8.873   1.038   7.927
16376WAT     H249371   8.972   0.945   8.018
16377WAT      O49372   7.745   2.910   5.480
16377WAT     H149373   7.647   2.913   5.496
16377WAT     H249374   7.787   2.994   5.514
16378WAT      O49375   9.359   5.997   6.769
16378WAT     H149376   9.408   6.054   6.703
16378WAT     H249377   9.337   5.909   6.727
16379WAT      O49378   0.057   5.471   1.472
16379WAT     H149379  -0.031   5.514   1.494
16379WAT     H249380   0.100   5.439   1.556
16380WAT      O49381   1.844   4.488   7.676
16380WAT     H149382   1.752   4.506   7.710
16380WAT     H249383   1.839   4.418   7.604
16381WAT      O49384   2.400   4.212   3.842
16381WAT     H149385   2.338   4.200   3.919
16381WAT     H249386   2.370   4.289   3.786
16382WAT      O49387   1.732   8.596   1.535
16382WAT     H149388   1.739   8.640   1.624
16382WAT     H249389   1.723   8.497   1.548
16383WAT      O49390   2.509   6.926   7.732
16383WAT     H149391   2.471   6.834   7.740
16383WAT     H249392   2.452   6.981   7.670
16384WAT      O49393   3.862   3.329   8.949
16384WAT     H149394   3.853   3.287   9.039
16384WAT     H249395   3.804   3.281   8.883
16385WAT      O49396   7.235   2.083   3.195
16385WAT     H149397   7.177   2.005   3.171
16385WAT     H249398   7.194   2.167   3.158
16386WAT      O49399   0.060   6.218   1.130
16386WAT     H149400   0.012   6.233   1.216
16386WAT     H249401   0.067   6.303   1.079
16387WAT      O49402   0.217   5.037   8.103
16387WAT     H149403   0.236   4.953   8.052
16387WAT     H249404   0.301   5.070   8.146
16388WAT      O49405   7.666   1.160   8.988
16388WAT     H149406   7.759   1.181   8.955
16388WAT     H249407   7.619   1.245   9.011
16389WAT      O49408   3.453   6.034   8.625
16389WAT     H149409   3.536   6.000   8.581
16389WAT     H249410   3.434   5.980   8.707
16390WAT      O49411   7.234   6.977   7.703
16390WAT     H149412   7.164   6.977   7.631
16390WAT     H249413   7.190   6.982   7.792
16391WAT      O49414   9.144   0.405   2.445
16391WAT     H149415   9.099   0.489   2.475
16391WAT     H249416   9.238   0.404   2.479
16392WAT      O49417   9.470   3.376   8.029
16392WAT     H149418   9.561   3.352   7.995
16392WAT     H249419   9.419   3.422   7.957
16393WAT      O49420   6.749   9.639   6.108
16393WAT     H149421   6.750   9.580   6.028
16393WAT     H249422   6.661   9.629   6.155
16394WAT      O49423   2.275   1.401   1.113
16394WAT     H149424   2.271   1.376   1.016
16394WAT     H249425   2.232   1.328   1.167
16395WAT      O49426   5.994   0.447   0.838
16395WAT     H149427   6.045   0.385   0.779
16395WAT     H249428   5.992   0.538   0.796
16396WAT      O49429   6.103   7.761   5.061
16396WAT     H149430   6.175   7.795   5.001
16396WAT     H249431   6.120   7.793   5.154
16397WAT      O49432   0.011   3.732   7.320
16397WAT     H149433  -0.073   3.677   7.314
16397WAT     H249434   0.035   3.746   7.416
16398WAT      O49435   7.136   9.519   6.748
16398WAT     H149436   7.050   9.570   6.747
16398WAT     H249437   7.194   9.554   6.822
16399WAT      O49438   0.876   0.751   1.597
16399WAT     H149439   0.874   0.829   1.660
16399WAT     H249440   0.823   0.774   1.515
16400WAT      O49441   7.516   3.966   7.258
16400WAT     H149442   7.500   4.047   7.315
16400WAT     H249443   7.431   3.914   7.251
16401WAT      O49444   8.510   3.624   9.145
16401WAT     H149445   8.540   3.604   9.052
16401WAT     H249446   8.552   3.710   9.176
16402WAT      O49447   7.081   4.426   5.828
16402WAT     H149448   7.016   4.483   5.779
16402WAT     H249449   7.174   4.456   5.807
16403WAT      O49450   6.146   3.863   9.825
16403WAT     H149451   6.207   3.942   9.820
16403WAT     H249452   6.086   3.872   9.905
16404WAT      O49453   6.164   3.301   8.556
16404WAT     H149454   6.134   3.352   8.637
16404WAT     H249455   6.093   3.305   8.486
16405WAT      O49456   2.119   7.770   2.346
16405WAT     H149457   2.076   7.681   2.330
16405WAT     H249458   2.145   7.777   2.442
16406WAT      O49459   1.032   8.310   4.825
16406WAT     H149460   1.012   8.304   4.923
16406WAT     H249461   1.013   8.402   4.792
16407WAT      O49462   2.150   8.900   4.497
16407WAT     H149463   2.187   8.876   4.407
16407WAT     H249464   2.118   8.817   4.543
16408WAT      O49465   9.470   2.980   6.029
16408WAT     H149466   9.450   2.904   5.967
16408WAT     H249467   9.471   3.066   5.977
16409WAT      O49468   2.916   7.020   4.616
16409WAT     H149469   2.907   6.920   4.612
16409WAT     H249470   2.896   7.051   4.709
16410WAT      O49471   5.845   5.894   2.446
16410WAT     H149472   5.790   5.976   2.435
16410WAT     H249473   5.835   5.858   2.539
16411WAT      O49474   9.119   6.887   6.839
16411WAT     H149475   9.138   6.806   6.783
16411WAT     H249476   9.104   6.859   6.934
16412WAT      O49477   5.907   4.072   7.695
16412WAT     H149478   5.908   4.132   7.615
16412WAT     H249479   5.816   4.032   7.706
16413WAT      O49480   8.599   2.779   6.138
16413WAT     H149481   8.572   2.869   6.172
16413WAT     H249482   8.647   2.729   6.210
16414WAT      O49483   9.647   0.401   5.550
16414WAT     H149484   9.549   0.386   5.557
16414WAT     H249485   9.695   0.313   5.556
16415WAT      O49486   4.959   3.571   7.553
16415WAT     H149487   4.971   3.519   7.637
16415WAT     H249488   4.963   3.669   7.572
16416WAT      O49489   6.327   6.668   5.885
16416WAT     H149490   6.375   6.727   5.820
16416WAT     H249491   6.291   6.588   5.837
16417WAT      O49492   4.667   0.691   8.453
16417WAT     H149493   4.598   0.754   8.488
16417WAT     H249494   4.635   0.597   8.466
16418WAT      O49495   2.876   5.287   6.478
16418WAT     H149496   2.858   5.301   6.381
16418WAT     H249497   2.809   5.337   6.533
16419WAT      O49498   0.684   6.763   3.403
16419WAT     H149499   0.665   6.712   3.318
16419WAT     H249500   0.783   6.774   3.413
16420WAT      O49501   6.593   1.523   1.826
16420WAT     H149502   6.680   1.572   1.828
16420WAT     H249503   6.571   1.498   1.732
16421WAT      O49504   2.063   8.503   2.053
16421WAT     H149505   2.029   8.570   1.987
16421WAT     H249506   2.099   8.424   2.003
16422WAT      O49507   2.835   9.531   4.710
16422WAT     H149508   2.890   9.471   4.652
16422WAT     H249509   2.833   9.494   4.803
16423WAT      O49510   2.584   9.160   4.692
16423WAT     H149511   2.561   9.191   4.599
16423WAT     H249512   2.548   9.068   4.706
16424WAT      O49513   1.976   9.822   2.524
16424WAT     H149514   1.946   9.901   2.577
16424WAT     H249515   2.071   9.801   2.546
16425WAT      O49516   2.672   4.375   0.962
16425WAT     H149517   2.686   4.377   1.061
16425WAT     H249518   2.643   4.466   0.931
16426WAT      O49519   6.280   0.100   3.100
16426WAT     H149520   6.201   0.045   3.073
16426WAT     H249521   6.362   0.044   3.099
16427WAT      O49522   2.863   7.674   4.674
16427WAT     H149523   2.935   7.738   4.647
16427WAT     H249524   2.874   7.588   4.626
16428WAT      O49525   4.027   6.013   7.553
16428WAT     H149526   3.932   6.011   7.522
16428WAT     H249527   4.055   6.107   7.570
16429WAT      O49528   6.503   8.824   3.835
16429WAT     H149529   6.476   8.731   3.809
16429WAT     H249530   6.602   8.828   3.846
16430WAT      O49531   9.568   9.357   7.214
16430WAT     H149532   9.613   9.350   7.303
16430WAT     H249533   9.616   9.299   7.148
16431WAT      O49534   6.972   3.255   7.537
16431WAT     H149535   6.981   3.157   7.519
16431WAT     H249536   6.877   3.282   7.522
16432WAT      O49537   8.815   9.702   1.150
16432WAT     H149538   8.808   9.653   1.236
16432WAT     H249539   8.776   9.646   1.077
16433WAT      O49540   5.707   0.369   7.718
16433WAT     H149541   5.801   0.374   7.754
16433WAT     H249542   5.680   0.273   7.712
16434WAT      O49543   7.882   4.825   7.251
16434WAT     H149544   7.915   4.825   7.345
16434WAT     H249545   7.955   4.796   7.189
16435WAT      O49546   1.705   0.525   1.765
16435WAT     H149547   1.691   0.434   1.804
16435WAT     H249548   1.625   0.582   1.783
16436WAT      O49549   2.521   8.716   1.813
16436WAT     H149550   2.608   8.702   1.766
16436WAT     H249551   2.462   8.636   1.800
16437WAT      O49552   7.816   0.888   7.709
16437WAT     H149553   7.904   0.931   7.688
16437WAT     H249554   7.830   0.814   7.775
16438WAT      O49555   7.671   4.404   4.617
16438WAT     H149556   7.619   4.433   4.537
16438WAT     H249557   7.739   4.336   4.590
16439WAT      O49558   2.796   3.863   5.828
16439WAT     H149559   2.745   3.945   5.802
16439WAT     H249560   2.779   3.790   5.761
16440WAT      O49561   1.364   9.529   4.049
16440WAT     H149562   1.301   9.496   3.979
16440WAT     H249563   1.401   9.618   4.022
16441WAT      O49564   1.597   5.391   8.124
16441WAT     H149565   1.572   5.485   8.100
16441WAT     H249566   1.598   5.381   8.224
16442WAT      O49567   9.178   1.540   3.899
16442WAT     H149568   9.229   1.521   3.983
16442WAT     H249569   9.241   1.576   3.830
16443WAT      O49570   0.586   9.622   7.003
16443WAT     H149571   0.615   9.717   6.989
16443WAT     H249572   0.518   9.618   7.076
16444WAT      O49573   2.729   3.671   2.999
16444WAT     H149574   2.735   3.691   3.097
16444WAT     H249575   2.655   3.724   2.958
16445WAT      O49576   0.846   5.668   1.202
16445WAT     H149577   0.945   5.655   1.206
16445WAT     H249578   0.808   5.664   1.294
16446WAT      O49579   7.262   4.414   8.702
16446WAT     H149580   7.232   4.509   8.707
16446WAT     H249581   7.244   4.378   8.610
16447WAT      O49582   0.427   7.192   2.615
16447WAT     H149583   0.369   7.266   2.649
16447WAT     H249584   0.445   7.127   2.689
16448WAT      O49585   9.504   6.942   4.192
16448WAT     H149586   9.549   6.995   4.264
16448WAT     H249587   9.555   6.858   4.175
16449WAT      O49588   2.871   5.780   0.304
16449WAT     H149589   2.832   5.746   0.389
16449WAT     H249590   2.970   5.761   0.303
16450WAT      O49591   2.195   8.894   4.007
16450WAT     H149592   2.133   8.816   4.003
16450WAT     H249593   2.143   8.979   3.998
16451WAT      O49594   4.474   1.582   0.224
16451WAT     H149595   4.514   1.650   0.285
16451WAT     H249596   4.393   1.620   0.180
16452WAT      O49597   2.160   2.628   2.064
16452WAT     H149598   2.061   2.631   2.048
16452WAT     H249599   2.208   2.644   1.977
16453WAT      O49600   7.616   6.974   9.481
16453WAT     H149601   7.530   6.924   9.467
16453WAT     H249602   7.625   6.999   9.577
16454WAT      O49603   6.942   7.897   4.029
16454WAT     H149604   6.926   7.800   4.011
16454WAT     H249605   7.028   7.925   3.987
16455WAT      O49606   8.509   0.450   8.832
16455WAT     H149607   8.609   0.455   8.841
16455WAT     H249608   8.482   0.355   8.817
16456WAT      O49609   9.599   5.576   2.975
16456WAT     H149610   9.665   5.582   2.900
16456WAT     H249611   9.518   5.527   2.944
16457WAT      O49612   1.022   4.497   8.288
16457WAT     H149613   0.984   4.549   8.365
16457WAT     H249614   1.056   4.409   8.321
16458WAT      O49615   1.951   2.085   1.883
16458WAT     H149616   1.988   2.176   1.865
16458WAT     H249617   1.875   2.092   1.948
16459WAT      O49618   1.653   0.379   4.198
16459WAT     H149619   1.747   0.396   4.227
16459WAT     H249620   1.636   0.280   4.196
16460WAT      O49621   6.552   0.940   5.515
16460WAT     H149622   6.571   0.845   5.540
16460WAT     H249623   6.621   1.000   5.556
16461WAT      O49624   2.005   3.969   0.749
16461WAT     H149625   2.090   3.933   0.789
16461WAT     H249626   1.989   3.925   0.660
16462WAT      O49627   6.018   7.774   8.598
16462WAT     H149628   5.933   7.735   8.562
16462WAT     H249629   6.039   7.859   8.551
16463WAT      O49630   0.573   7.952   3.148
16463WAT     H149631   0.659   7.994   3.120
16463WAT     H249632   0.507   7.958   3.074
16464WAT      O49633   3.773   7.526   2.928
16464WAT     H149634   3.802   7.620   2.942
16464WAT     H249635   3.696   7.506   2.989
16465WAT      O49636   8.996   4.908   1.372
16465WAT     H149637   8.917   4.910   1.311
16465WAT     H249638   8.970   4.945   1.461
16466WAT      O49639   2.131   9.518   2.304
16466WAT     H149640   2.126   9.419   2.318
16466WAT     H249641   2.212   9.553   2.351
16467WAT      O49642   9.097   8.230   0.242
16467WAT     H149643   9.173   8.290   0.218
16467WAT     H249644   9.087   8.159   0.172
16468WAT      O49645   7.993   1.341   0.712
16468WAT     H149646   7.961   1.359   0.805
16468WAT     H249647   8.080   1.389   0.697
16469WAT      O49648   4.226   9.240   9.803
16469WAT     H149649   4.316   9.199   9.815
16469WAT     H249650   4.211   9.259   9.706
16470WAT      O49651   0.542   2.332   6.172
16470WAT     H149652   0.579   2.271   6.242
16470WAT     H249653   0.478   2.396   6.214
16471WAT      O49654   4.683   6.674   8.288
16471WAT     H149655   4.703   6.591   8.236
16471WAT     H249656   4.671   6.751   8.225
16472WAT      O49657   2.497   0.407   9.213
16472WAT     H149658   2.525   0.310   9.212
16472WAT     H249659   2.519   0.447   9.302
16473WAT      O49660   1.003   0.472   7.926
16473WAT     H149661   0.974   0.385   7.964
16473WAT     H249662   1.102   0.476   7.923
16474WAT      O49663   7.727   4.476   7.767
16474WAT     H149664   7.782   4.513   7.842
16474WAT     H249665   7.784   4.466   7.686
16475WAT      O49666   3.300   7.926   1.219
16475WAT     H149667   3.330   7.990   1.290
16475WAT     H249668   3.375   7.911   1.154
16476WAT      O49669   3.408   7.859   0.299
16476WAT     H149670   3.349   7.870   0.378
16476WAT     H249671   3.504   7.866   0.327
16477WAT      O49672   8.477   0.904   2.904
16477WAT     H149673   8.484   0.956   2.819
16477WAT     H249674   8.452   0.809   2.884
16478WAT      O49675   7.137   7.421   6.824
16478WAT     H149676   7.041   7.394   6.830
16478WAT     H249677   7.195   7.340   6.822
16479WAT      O49678   7.842   3.112   2.372
16479WAT     H149679   7.930   3.152   2.346
16479WAT     H249680   7.778   3.123   2.296
16480WAT      O49681   3.550   7.698   6.098
16480WAT     H149682   3.496   7.614   6.083
16480WAT     H249683   3.611   7.685   6.176
16481WAT      O49684   3.481   4.227   2.895
16481WAT     H149685   3.580   4.238   2.901
16481WAT     H249686   3.454   4.227   2.798
16482WAT      O49687   7.006   3.976   4.677
16482WAT     H149688   7.083   3.995   4.738
16482WAT     H249689   7.040   3.950   4.587
16483WAT      O49690   6.741   7.348   2.158
16483WAT     H149691   6.642   7.363   2.150
16483WAT     H249692   6.761   7.309   2.248
16484WAT      O49693   3.909   8.210   0.337
16484WAT     H149694   3.844   8.279   0.367
16484WAT     H249695   3.953   8.239   0.252
16485WAT      O49696   2.768   2.661   1.812
16485WAT     H149697   2.677   2.628   1.837
16485WAT     H249698   2.825   2.583   1.785
16486WAT      O49699   5.567   4.160   0.289
16486WAT     H149700   5.478   4.116   0.285
16486WAT     H249701   5.623   4.128   0.213
16487WAT      O49702   7.197   2.694   8.671
16487WAT     H149703   7.198   2.726   8.766
16487WAT     H249704   7.103   2.692   8.638
16488WAT      O49705   7.531   9.236   7.218
16488WAT     H149706   7.584   9.296   7.278
16488WAT     H249707   7.525   9.144   7.259
16489WAT      O49708   4.618   1.921   0.577
16489WAT     H149709   4.661   1.990   0.634
16489WAT     H249710   4.575   1.851   0.634
16490WAT      O49711   9.618   5.875   4.695
16490WAT     H149712   9.655   5.829   4.776
16490WAT     H249713   9.567   5.809   4.639
16491WAT      O49714   0.881   4.559   3.892
16491WAT     H149715   0.870   4.473   3.942
16491WAT     H249716   0.954   4.550   3.825
16492WAT      O49717   8.252   8.291   2.173
16492WAT     H149718   8.298   8.379   2.183
16492WAT     H249719   8.316   8.217   2.197
16493WAT      O49720   7.467   2.768   2.526
16493WAT     H149721   7.462   2.689   2.587
16493WAT     H249722   7.555   2.813   2.537
16494WAT      O49723   1.559   0.331   0.227
16494WAT     H149724   1.543   0.244   0.181
16494WAT     H249725   1.541   0.406   0.164
16495WAT      O49726   2.734   3.761   1.858
16495WAT     H149727   2.710   3.788   1.951
16495WAT     H249728   2.726   3.662   1.849
16496WAT      O49729   7.488   5.650   6.464
16496WAT     H149730   7.395   5.672   6.434
16496WAT     H249731   7.500   5.551   6.467
16497WAT      O49732   4.139   7.272   3.807
16497WAT     H149733   4.186   7.350   3.847
16497WAT     H249734   4.204   7.198   3.790
16498WAT      O49735   7.633   6.628   2.191
16498WAT     H149736   7.534   6.611   2.192
16498WAT     H249737   7.674   6.591   2.274
16499WAT      O49738   8.214   9.514   8.006
16499WAT     H149739   8.298   9.555   7.971
16499WAT     H249740   8.215   9.514   8.106
16500WAT      O49741   8.087   3.104   1.832
16500WAT     H149742   8.185   3.099   1.851
16500WAT     H249743   8.074   3.147   1.742
16501WAT      O49744   5.519   8.433   2.333
16501WAT     H149745   5.579   8.365   2.292
16501WAT     H249746   5.571   8.491   2.395
16502WAT      O49747   9.084   2.148   1.137
16502WAT     H149748   9.063   2.197   1.222
16502WAT     H249749   9.157   2.196   1.089
16503WAT      O49750   1.101   2.045   2.857
16503WAT     H149751   1.155   1.962   2.843
16503WAT     H249752   1.104   2.101   2.775
16504WAT      O49753   0.405   7.717   5.462
16504WAT     H149754   0.484   7.657   5.459
16504WAT     H249755   0.322   7.662   5.474
16505WAT      O49756   0.467   5.019   0.660
16505WAT     H149757   0.552   5.004   0.611
16505WAT     H249758   0.391   5.024   0.595
16506WAT      O49759   3.729   3.409   1.795
16506WAT     H149760   3.724   3.499   1.837
16506WAT     H249761   3.708   3.339   1.864
16507WAT      O49762   1.500   6.639   1.719
16507WAT     H149763   1.439   6.718   1.707
16507WAT     H249764   1.591   6.670   1.744
16508WAT      O49765   0.136   5.189   9.306
16508WAT     H149766   0.178   5.134   9.378
16508WAT     H249767   0.064   5.246   9.345
16509WAT      O49768   0.486   2.122   7.125
16509WAT     H149769   0.500   2.080   7.214
16509WAT     H249770   0.498   2.221   7.132
16510WAT      O49771   9.554   8.933   3.138
16510WAT     H149772   9.536   8.877   3.219
16510WAT     H249773   9.594   8.877   3.066
16511WAT      O49774   6.526   6.230   0.917
16511WAT     H149775   6.505   6.215   0.821
16511WAT     H249776   6.625   6.243   0.929
16512WAT      O49777   3.682   6.353   2.704
16512WAT     H149778   3.775   6.316   2.713
16512WAT     H249779   3.669   6.389   2.612
16513WAT      O49780   7.708   3.544   5.261
16513WAT     H149781   7.633   3.591   5.306
16513WAT     H249782   7.677   3.456   5.226
16514WAT      O49783   4.543   6.526   3.184
16514WAT     H149784   4.643   6.531   3.174
16514WAT     H249785   4.509   6.449   3.130
16515WAT      O49786   5.728   7.531   7.946
16515WAT     H149787   5.644   7.565   7.903
16515WAT     H249788   5.802   7.597   7.933
16516WAT      O49789   5.974   9.634   5.137
16516WAT     H149790   5.963   9.643   5.236
16516WAT     H249791   5.996   9.723   5.098
16517WAT      O49792   8.724   6.948   7.644
16517WAT     H149793   8.691   7.042   7.632
16517WAT     H249794   8.812   6.950   7.691
16518WAT      O49795   7.531   0.541   9.772
16518WAT     H149796   7.578   0.627   9.754
16518WAT     H249797   7.445   0.560   9.820
16519WAT      O49798   9.824   7.024   8.685
16519WAT     H149799   9.913   7.066   8.667
16519WAT     H249800   9.752   7.085   8.652
16520WAT      O49801   6.574   0.257   3.830
16520WAT     H149802   6.595   0.222   3.922
16520WAT     H249803   6.606   0.191   3.762
16521WAT      O49804   0.980   1.075   5.007
16521WAT     H149805   0.969   1.116   5.097
16521WAT     H249806   1.054   1.007   5.010
16522WAT      O49807   7.950   4.976   9.387
16522WAT     H149808   7.909   5.057   9.345
16522WAT     H249809   7.906   4.958   9.475
16523WAT      O49810   4.330   9.568   0.263
16523WAT     H149811   4.274   9.611   0.193
16523WAT     H249812   4.353   9.635   0.334
16524WAT      O49813   0.939   2.312   5.898
16524WAT     H149814   1.008   2.270   5.956
16524WAT     H249815   0.847   2.291   5.933
16525WAT      O49816   8.624   2.526   2.949
16525WAT     H149817   8.526   2.527   2.933
16525WAT     H249818   8.644   2.465   3.026
16526WAT      O49819   2.347   8.401   0.898
16526WAT     H149820   2.323   8.467   0.969
16526WAT     H249821   2.292   8.419   0.816
16527WAT      O49822   4.150   5.934   9.518
16527WAT     H149823   4.070   5.876   9.534
16527WAT     H249824   4.134   5.992   9.437
16528WAT      O49825   6.664   3.048   4.535
16528WAT     H149826   6.607   2.994   4.472
16528WAT     H249827   6.605   3.094   4.602
16529WAT      O49828   3.392   6.388   3.524
16529WAT     H149829   3.461   6.390   3.596
16529WAT     H249830   3.364   6.293   3.507
16530WAT      O49831   3.990   7.470   0.713
16530WAT     H149832   4.060   7.542   0.715
16530WAT     H249833   4.008   7.408   0.637
16531WAT      O49834   8.156   9.438   6.771
16531WAT     H149835   8.207   9.417   6.854
16531WAT     H249836   8.137   9.536   6.768
16532WAT      O49837   5.091   0.863   7.118
16532WAT     H149838   5.131   0.776   7.089
16532WAT     H249839   5.098   0.872   7.217
16533WAT      O49840   2.052   2.092   9.788
16533WAT     H149841   2.096   2.180   9.806
16533WAT     H249842   1.969   2.084   9.844
16534WAT      O49843   1.025   4.665   1.106
16534WAT     H149844   1.123   4.677   1.123
16534WAT     H249845   0.984   4.615   1.182
16535WAT      O49846   2.951   5.731   3.604
16535WAT     H149847   2.927   5.808   3.663
16535WAT     H249848   3.017   5.762   3.535
16536WAT      O49849   8.444   3.966   9.065
16536WAT     H149850   8.483   3.987   9.155
16536WAT     H249851   8.388   4.043   9.035
16537WAT      O49852   4.970   7.059   5.514
16537WAT     H149853   5.046   7.106   5.469
16537WAT     H249854   4.979   7.068   5.613
16538WAT      O49855   0.888   6.370   1.327
16538WAT     H149856   0.847   6.455   1.294
16538WAT     H249857   0.854   6.350   1.419
16539WAT      O49858   2.991   6.942   3.228
16539WAT     H149859   3.070   6.918   3.172
16539WAT     H249860   2.932   6.862   3.239
16540WAT      O49861   3.521   5.437   7.200
16540WAT     H149862   3.565   5.461   7.287
16540WAT     H249863   3.425   5.465   7.201
16541WAT      O49864   1.914   6.129   4.260
16541WAT     H149865   2.009   6.100   4.270
16541WAT     H249866   1.895   6.146   4.164
16542WAT      O49867   6.509   8.294   3.629
16542WAT     H149868   6.503   8.195   3.625
16542WAT     H249869   6.436   8.334   3.573
16543WAT      O49870   2.012   0.116   2.126
16543WAT     H149871   2.058   0.036   2.163
16543WAT     H249872   2.057   0.143   2.040
16544WAT      O49873   4.994   4.903   2.570
16544WAT     H149874   4.969   4.810   2.543
16544WAT     H249875   4.971   4.967   2.497
16545WAT      O49876   7.079   7.753   5.222
16545WAT     H149877   6.992   7.714   5.252
16545WAT     H249878   7.153   7.688   5.242
16546WAT      O49879   6.300   8.207   0.481
16546WAT     H149880   6.215   8.158   0.463
16546WAT     H249881   6.372   8.173   0.420
16547WAT      O49882   6.921   3.233   2.627
16547WAT     H149883   6.924   3.313   2.568
16547WAT     H249884   6.957   3.154   2.578
16548WAT      O49885   0.131   7.216   3.489
16548WAT     H149886   0.054   7.225   3.427
16548WAT     H249887   0.199   7.287   3.468
16549WAT      O49888   8.906   7.161   1.568
16549WAT     H149889   8.926   7.070   1.531
16549WAT     H249890   8.831   7.154   1.634
16550WAT      O49891   5.628   4.995   5.283
16550WAT     H149892   5.570   4.966   5.206
16550WAT     H249893   5.703   5.051   5.248
16551WAT      O49894   3.949   9.359   5.896
16551WAT     H149895   3.950   9.285   5.963
16551WAT     H249896   3.988   9.441   5.936
16552WAT      O49897   5.999   1.885   3.513
16552WAT     H149898   5.986   1.901   3.415
16552WAT     H249899   5.951   1.801   3.539
16553WAT      O49900   1.058   0.037   3.065
16553WAT     H149901   1.084  -0.027   3.137
16553WAT     H249902   0.961   0.060   3.074
16554WAT      O49903   3.044   6.636   9.564
16554WAT     H149904   2.959   6.637   9.617
16554WAT     H249905   3.117   6.596   9.620
16555WAT      O49906   3.254   8.043   7.988
16555WAT     H149907   3.256   7.945   7.971
16555WAT     H249908   3.169   8.068   8.034
16556WAT      O49909   7.678   6.135   6.727
16556WAT     H149910   7.616   6.194   6.777
16556WAT     H249911   7.626   6.077   6.664
16557WAT      O49912   6.702   8.373   3.450
16557WAT     H149913   6.728   8.280   3.424
16557WAT     H249914   6.626   8.369   3.514
16558WAT      O49915   8.896   3.734   2.609
16558WAT     H149916   8.983   3.688   2.624
16558WAT     H249917   8.827   3.697   2.670
16559WAT      O49918   4.817   7.324   1.032
16559WAT     H149919   4.848   7.391   0.965
16559WAT     H249920   4.717   7.329   1.041
16560WAT      O49921   2.490   3.614   6.680
16560WAT     H149922   2.581   3.587   6.650
16560WAT     H249923   2.458   3.551   6.751
16561WAT      O49924   1.150   8.098   9.447
16561WAT     H149925   1.072   8.125   9.389
16561WAT     H249926   1.142   8.146   9.535
16562WAT      O49927   3.519   1.286   4.702
16562WAT     H149928   3.496   1.278   4.604
16562WAT     H249929   3.434   1.296   4.754
16563WAT      O49930   6.384   7.498   2.435
16563WAT     H149931   6.331   7.508   2.519
16563WAT     H249932   6.418   7.404   2.428
16564WAT      O49933   1.927   0.473   5.751
16564WAT     H149934   1.835   0.508   5.769
16564WAT     H249935   1.988   0.548   5.728
16565WAT      O49936   3.388   4.820   3.977
16565WAT     H149937   3.387   4.857   3.884
16565WAT     H249938   3.312   4.757   3.988
16566WAT      O49939   2.352   1.639   1.845
16566WAT     H149940   2.259   1.645   1.808
16566WAT     H249941   2.360   1.557   1.902
16567WAT      O49942   9.089   1.751   9.710
16567WAT     H149943   9.040   1.759   9.796
16567WAT     H249944   9.069   1.662   9.668
16568WAT      O49945   8.328   9.087   4.196
16568WAT     H149946   8.252   9.026   4.215
16568WAT     H249947   8.403   9.035   4.154
16569WAT      O49948   6.193   2.296   2.574
16569WAT     H149949   6.195   2.249   2.662
16569WAT     H249950   6.190   2.395   2.588
16570WAT      O49951   7.959   1.999   2.140
16570WAT     H149952   7.954   1.899   2.131
16570WAT     H249953   7.927   2.041   2.055
16571WAT      O49954   7.035   8.997   2.326
16571WAT     H149955   7.021   8.917   2.384
16571WAT     H249956   7.132   9.009   2.307
16572WAT      O49957   3.095   3.291   0.230
16572WAT     H149958   3.077   3.226   0.304
16572WAT     H249959   3.072   3.249   0.143
16573WAT      O49960   5.034   6.598   2.031
16573WAT     H149961   5.027   6.663   1.955
16573WAT     H249962   5.009   6.507   1.999
16574WAT      O49963   3.537   0.178   9.817
16574WAT     H149964   3.468   0.208   9.752
16574WAT     H249965   3.531   0.079   9.828
16575WAT      O49966   8.805   0.308   8.592
16575WAT     H149967   8.890   0.293   8.540
16575WAT     H249968   8.735   0.243   8.561
16576WAT      O49969   4.657   2.569   6.915
16576WAT     H149970   4.684   2.485   6.868
16576WAT     H249971   4.732   2.635   6.913
16577WAT      O49972   1.031   6.008   9.361
16577WAT     H149973   1.020   6.036   9.266
16577WAT     H249974   0.957   5.944   9.385
16578WAT      O49975   2.712   3.682   0.943
16578WAT     H149976   2.643   3.619   0.979
16578WAT     H249977   2.696   3.697   0.845
16579WAT      O49978   8.955   7.493   7.974
16579WAT     H149979   8.934   7.472   7.878
16579WAT     H249980   8.955   7.409   8.027
16580WAT      O49981   4.009   9.765   3.761
16580WAT     H149982   4.052   9.833   3.702
16580WAT     H249983   3.910   9.781   3.764
16581WAT      O49984   0.669   5.626   2.308
16581WAT     H149985   0.587   5.606   2.255
16581WAT     H249986   0.674   5.564   2.387
16582WAT      O49987   5.201   9.288   3.068
16582WAT     H149988   5.286   9.236   3.079
16582WAT     H249989   5.197   9.328   2.977
16583WAT      O49990   8.163   1.074   5.687
16583WAT     H149991   8.166   1.140   5.762
16583WAT     H249992   8.247   1.081   5.633
16584WAT      O49993   9.610   9.325   2.559
16584WAT     H149994   9.637   9.360   2.469
16584WAT     H249995   9.600   9.402   2.622
16585WAT      O49996   4.448   4.989   1.065
16585WAT     H149997   4.463   4.893   1.046
16585WAT     H249998   4.508   5.019   1.139
16586WAT      O49999   1.792   3.281   1.531
16586WAT     H150000   1.756   3.326   1.449
16586WAT     H250001   1.723   3.281   1.603
16587WAT      O50002   6.547   5.492   1.285
16587WAT     H150003   6.484   5.568   1.270
16587WAT     H250004   6.527   5.420   1.218
16588WAT      O50005   8.333   5.617   6.792
16588WAT     H150006   8.403   5.546   6.781
16588WAT     H250007   8.349   5.666   6.877
16589WAT      O50008   1.196   3.817   9.128
16589WAT     H150009   1.243   3.877   9.062
16589WAT     H250010   1.168   3.733   9.082
16590WAT      O50011   9.237   9.140   3.142
16590WAT     H150012   9.292   9.148   3.225
16590WAT     H250013   9.150   9.096   3.164
16591WAT      O50014   1.359   0.269   1.968
16591WAT     H150015   1.445   0.239   2.008
16591WAT     H250016   1.303   0.312   2.039
16592WAT      O50017   4.177   5.279   2.136
16592WAT     H150018   4.131   5.300   2.223
16592WAT     H250019   4.268   5.242   2.155
16593WAT      O50020   7.841   7.689   2.425
16593WAT     H150021   7.765   7.642   2.469
16593WAT     H250022   7.927   7.642   2.447
16594WAT      O50023   7.124   0.291   2.407
16594WAT     H150024   7.124   0.351   2.327
16594WAT     H250025   7.094   0.200   2.380
16595WAT      O50026   9.487   7.806   7.995
16595WAT     H150027   9.438   7.892   7.981
16595WAT     H250028   9.574   7.808   7.945
16596WAT      O50029   2.506   1.831   3.638
16596WAT     H150030   2.446   1.751   3.640
16596WAT     H250031   2.598   1.804   3.665
16597WAT      O50032   1.138   9.294   1.534
16597WAT     H150033   1.212   9.314   1.471
16597WAT     H250034   1.173   9.243   1.613
16598WAT      O50035   6.693   3.370   6.735
16598WAT     H150036   6.631   3.303   6.775
16598WAT     H250037   6.788   3.340   6.747
16599WAT      O50038   5.630   6.607   9.700
16599WAT     H150039   5.587   6.684   9.748
16599WAT     H250040   5.702   6.642   9.640
16600WAT      O50041   9.110   1.169   5.629
16600WAT     H150042   9.069   1.090   5.675
16600WAT     H250043   9.109   1.155   5.530
16601WAT      O50044   1.045   3.070   2.225
16601WAT     H150045   1.094   3.058   2.311
16601WAT     H250046   0.960   3.017   2.227
16602WAT      O50047   4.431   9.448   0.581
16602WAT     H150048   4.346   9.397   0.594
16602WAT     H250049   4.411   9.538   0.542
16603WAT      O50050   0.715   0.672   8.247
16603WAT     H150051   0.726   0.744   8.179
16603WAT     H250052   0.619   0.667   8.274
16604WAT      O50053   6.766   8.957   7.605
16604WAT     H150054   6.754   8.958   7.704
16604WAT     H250055   6.682   8.988   7.560
16605WAT      O50056   3.847   3.025   5.933
16605WAT     H150057   3.889   2.940   5.966
16605WAT     H250058   3.883   3.048   5.843
16606WAT      O50059   4.390   2.541   2.034
16606WAT     H150060   4.447   2.470   2.075
16606WAT     H250061   4.326   2.577   2.103
16607WAT      O50062   5.275   2.474   3.511
16607WAT     H150063   5.194   2.416   3.512
16607WAT     H250064   5.252   2.563   3.471
16608WAT      O50065   6.895   3.949   5.195
16608WAT     H150066   6.977   3.898   5.170
16608WAT     H250067   6.841   3.896   5.261
16609WAT      O50068   4.204   8.650   0.771
16609WAT     H150069   4.217   8.640   0.870
16609WAT     H250070   4.182   8.745   0.749
16610WAT      O50071   0.313   9.290   8.754
16610WAT     H150072   0.354   9.286   8.845
16610WAT     H250073   0.379   9.326   8.689
16611WAT      O50074   8.264   0.664   8.556
16611WAT     H150075   8.227   0.576   8.585
16611WAT     H250076   8.364   0.661   8.558
16612WAT      O50077   0.294   6.645   4.037
16612WAT     H150078   0.264   6.632   3.942
16612WAT     H250079   0.214   6.663   4.095
16613WAT      O50080   1.600   2.468   2.052
16613WAT     H150081   1.538   2.391   2.067
16613WAT     H250082   1.630   2.469   1.956
16614WAT      O50083   2.260   7.910   3.723
16614WAT     H150084   2.305   7.840   3.779
16614WAT     H250085   2.232   7.869   3.636
16615WAT      O50086   4.955   8.861   3.805
16615WAT     H150087   4.974   8.865   3.707
16615WAT     H250088   4.952   8.766   3.835
16616WAT      O50089   9.518   2.126   7.730
16616WAT     H150090   9.530   2.167   7.821
16616WAT     H250091   9.554   2.188   7.661
16617WAT      O50092   9.870   7.098   3.687
16617WAT     H150093   9.900   7.156   3.611
16617WAT     H250094   9.771   7.108   3.700
16618WAT      O50095   6.240   1.279   0.117
16618WAT     H150096   6.147   1.263   0.149
16618WAT     H250097   6.239   1.299   0.019
16619WAT      O50098   4.257   2.334   9.541
16619WAT     H150099   4.158   2.319   9.544
16619WAT     H250100   4.303   2.247   9.525
16620WAT      O50101   0.743   3.531   7.520
16620WAT     H150102   0.794   3.471   7.583
16620WAT     H250103   0.802   3.607   7.493
16621WAT      O50104   8.534   1.282   9.343
16621WAT     H150105   8.489   1.248   9.260
16621WAT     H250106   8.601   1.352   9.318
16622WAT      O50107   8.766   8.454   4.026
16622WAT     H150108   8.677   8.485   4.057
16622WAT     H250109   8.830   8.531   4.023
16623WAT      O50110   2.066   9.183   6.043
16623WAT     H150111   2.152   9.139   6.015
16623WAT     H250112   2.040   9.252   5.975
16624WAT      O50113   4.035   8.583   4.728
16624WAT     H150114   4.121   8.617   4.691
16624WAT     H250115   3.959   8.611   4.668
16625WAT      O50116   6.706   1.328   6.601
16625WAT     H150117   6.716   1.395   6.674
16625WAT     H250118   6.775   1.343   6.531
16626WAT      O50119   1.344   7.390   8.659
16626WAT     H150120   1.311   7.430   8.745
16626WAT     H250121   1.338   7.458   8.586
16627WAT      O50122   5.065   6.783   5.104
16627WAT     H150123   5.045   6.686   5.088
16627WAT     H250124   4.980   6.832   5.125
16628WAT      O50125   2.493   1.400   1.977
16628WAT     H150126   2.426   1.346   1.927
16628WAT     H250127   2.483   1.384   2.075
16629WAT      O50128   2.752   0.921   5.819
16629WAT     H150129   2.664   0.874   5.808
16629WAT     H250130   2.801   0.883   5.897
16630WAT      O50131   8.333   4.742   7.307
16630WAT     H150132   8.414   4.722   7.363
16630WAT     H250133   8.252   4.741   7.365
16631WAT      O50134   9.416   6.114   1.706
16631WAT     H150135   9.499   6.150   1.748
16631WAT     H250136   9.352   6.189   1.690
16632WAT      O50137   0.999   6.845   5.055
16632WAT     H150138   0.966   6.868   5.146
16632WAT     H250139   0.980   6.920   4.991
16633WAT      O50140   9.163   9.156   5.215
16633WAT     H150141   9.111   9.202   5.287
16633WAT     H250142   9.101   9.115   5.148
16634WAT      O50143   8.312   9.684   2.027
16634WAT     H150144   8.235   9.666   2.088
16634WAT     H250145   8.368   9.758   2.066
16635WAT      O50146   4.057   8.488   8.758
16635WAT     H150147   4.137   8.538   8.791
16635WAT     H250148   3.976   8.547   8.765
16636WAT      O50149   9.370   7.220   9.086
16636WAT     H150150   9.372   7.289   9.013
16636WAT     H250151   9.374   7.265   9.175
16637WAT      O50152   5.168   9.419   4.564
16637WAT     H150153   5.113   9.432   4.481
16637WAT     H250154   5.168   9.504   4.617
16638WAT      O50155   0.508   2.099   5.838
16638WAT     H150156   0.572   2.023   5.839
16638WAT     H250157   0.443   2.087   5.763
16639WAT      O50158   4.531   4.606   9.745
16639WAT     H150159   4.567   4.515   9.726
16639WAT     H250160   4.439   4.614   9.707
16640WAT      O50161   9.035   0.357   2.206
16640WAT     H150162   9.091   0.359   2.123
16640WAT     H250163   9.095   0.351   2.286
16641WAT      O50164   1.169   6.451   6.137
16641WAT     H150165   1.216   6.535   6.166
16641WAT     H250166   1.223   6.372   6.164
16642WAT      O50167   5.393   2.628   0.313
16642WAT     H150168   5.372   2.532   0.291
16642WAT     H250169   5.451   2.631   0.394
16643WAT      O50170   5.725   3.453   2.262
16643WAT     H150171   5.711   3.535   2.318
16643WAT     H250172   5.803   3.467   2.201
16644WAT      O50173   5.304   2.506   9.113
16644WAT     H150174   5.262   2.429   9.066
16644WAT     H250175   5.326   2.480   9.207
16645WAT      O50176   3.978   2.785   5.967
16645WAT     H150177   3.975   2.796   5.867
16645WAT     H250178   4.065   2.743   5.993
16646WAT      O50179   9.065   3.968   7.588
16646WAT     H150180   9.110   3.984   7.500
16646WAT     H250181   9.070   4.052   7.643
16647WAT      O50182   4.461   9.476   3.205
16647WAT     H150183   4.392   9.486   3.277
16647WAT     H250184   4.509   9.563   3.192
16648WAT      O50185   0.865   2.931   6.243
16648WAT     H150186   0.783   2.989   6.247
16648WAT     H250187   0.850   2.849   6.299
16649WAT      O50188   2.026   7.074   9.162
16649WAT     H150189   2.120   7.109   9.156
16649WAT     H250190   1.965   7.147   9.191
16650WAT      O50191   8.468   2.649   9.302
16650WAT     H150192   8.542   2.648   9.235
16650WAT     H250193   8.385   2.613   9.259
16651WAT      O50194   3.251   4.403   7.482
16651WAT     H150195   3.325   4.336   7.483
16651WAT     H250196   3.278   4.484   7.534
16652WAT      O50197   5.789   3.664   1.254
16652WAT     H150198   5.797   3.762   1.238
16652WAT     H250199   5.755   3.619   1.171
16653WAT      O50200   0.772   8.050   9.516
16653WAT     H150201   0.813   8.132   9.477
16653WAT     H250202   0.807   7.969   9.469
16654WAT      O50203   5.366   8.713   8.217
16654WAT     H150204   5.373   8.812   8.223
16654WAT     H250205   5.450   8.676   8.176
16655WAT      O50206   8.105   6.475   6.618
16655WAT     H150207   8.049   6.400   6.584
16655WAT     H250208   8.132   6.534   6.542
16656WAT      O50209   3.941   1.812   4.987
16656WAT     H150210   3.965   1.787   4.893
16656WAT     H250211   3.849   1.852   4.989
16657WAT      O50212   1.016   1.399   1.664
16657WAT     H150213   0.978   1.483   1.625
16657WAT     H250214   0.984   1.320   1.611
16658WAT      O50215   5.300   6.261   0.227
16658WAT     H150216   5.236   6.194   0.264
16658WAT     H250217   5.250   6.343   0.198
16659WAT      O50218   3.580   9.283   6.248
16659WAT     H150219   3.556   9.372   6.287
16659WAT     H250220   3.677   9.283   6.225
16660WAT      O50221   2.417   0.145   2.258
16660WAT     H150222   2.378   0.210   2.323
16660WAT     H250223   2.349   0.074   2.236
16661WAT      O50224   6.851   7.311   7.140
16661WAT     H150225   6.829   7.307   7.043
16661WAT     H250226   6.784   7.368   7.187
16662WAT      O50227   2.530   4.844   1.047
16662WAT     H150228   2.486   4.808   1.129
16662WAT     H250229   2.560   4.938   1.064
16663WAT      O50230   1.511   1.923   7.435
16663WAT     H150231   1.573   1.966   7.500
16663WAT     H250232   1.442   1.869   7.484
16664WAT      O50233   7.858   0.829   2.930
16664WAT     H150234   7.873   0.870   2.841
16664WAT     H250235   7.861   0.900   3.001
16665WAT      O50236   3.928   7.131   5.259
16665WAT     H150237   3.969   7.095   5.343
16665WAT     H250238   4.000   7.150   5.193
16666WAT      O50239   8.636   8.514   0.267
16666WAT     H150240   8.716   8.513   0.208
16666WAT     H250241   8.655   8.461   0.350
16667WAT      O50242   5.051   5.187   8.509
16667WAT     H150243   4.970   5.243   8.490
16667WAT     H250244   5.127   5.216   8.450
16668WAT      O50245   1.617   7.139   9.436
16668WAT     H150246   1.542   7.120   9.372
16668WAT     H250247   1.635   7.058   9.491
16669WAT      O50248   7.194   7.503   0.654
16669WAT     H150249   7.124   7.444   0.613
16669WAT     H250250   7.250   7.449   0.716
16670WAT      O50251   2.855   3.125   8.611
16670WAT     H150252   2.778   3.182   8.639
16670WAT     H250253   2.936   3.182   8.598
16671WAT      O50254   7.531   0.459   1.301
16671WAT     H150255   7.614   0.483   1.251
16671WAT     H250256   7.452   0.501   1.257
16672WAT      O50257   5.027   8.040   5.480
16672WAT     H150258   4.997   8.135   5.488
16672WAT     H250259   5.116   8.030   5.525
16673WAT      O50260   5.662   8.609   9.594
16673WAT     H150261   5.593   8.680   9.613
16673WAT     H250262   5.715   8.636   9.513
16674WAT      O50263   7.675   0.867   2.496
16674WAT     H150264   7.579   0.839   2.501
16674WAT     H250265   7.717   0.830   2.413
16675WAT      O50266   3.772   7.708   5.773
16675WAT     H150267   3.766   7.736   5.677
16675WAT     H250268   3.730   7.618   5.784
16676WAT      O50269   5.506   9.458   6.377
16676WAT     H150270   5.434   9.525   6.359
16676WAT     H250271   5.558   9.485   6.458
16677WAT      O50272   0.676   9.795   0.626
16677WAT     H150273   0.645   9.854   0.701
16677WAT     H250274   0.729   9.850   0.561
16678WAT      O50275   7.245   7.268   1.376
16678WAT     H150276   7.259   7.270   1.277
16678WAT     H250277   7.325   7.307   1.422
16679WAT      O50278   4.072   2.007   8.958
16679WAT     H150279   4.127   1.930   8.990
16679WAT     H250280   4.125   2.091   8.964
16680WAT      O50281   0.111   4.710   4.892
16680WAT     H150282   0.096   4.809   4.886
16680WAT     H250283   0.140   4.686   4.984
16681WAT      O50284   3.497   2.509   3.185
16681WAT     H150285   3.439   2.567   3.127
16681WAT     H250286   3.516   2.423   3.137
16682WAT      O50287   5.099   2.961   7.848
16682WAT     H150288   5.166   2.915   7.790
16682WAT     H250289   5.121   3.058   7.855
16683WAT      O50290   5.402   7.143   2.229
16683WAT     H150291   5.393   7.082   2.150
16683WAT     H250292   5.388   7.237   2.199
16684WAT      O50293   1.771   6.504   6.181
16684WAT     H150294   1.797   6.512   6.085
16684WAT     H250295   1.684   6.454   6.187
16685WAT      O50296   7.217   2.666   0.263
16685WAT     H150297   7.229   2.589   0.325
16685WAT     H250298   7.225   2.751   0.313
16686WAT      O50299   5.972   4.998   3.356
16686WAT     H150300   6.070   4.985   3.343
16686WAT     H250301   5.923   4.915   3.328
16687WAT      O50302   8.895   7.805   1.826
16687WAT     H150303   8.887   7.861   1.907
16687WAT     H250304   8.891   7.708   1.851
16688WAT      O50305   0.871   8.089   5.646
16688WAT     H150306   0.832   8.138   5.724
16688WAT     H250307   0.962   8.126   5.627
16689WAT      O50308  -0.000   4.864   7.045
16689WAT     H150309   0.024   4.898   7.136
16689WAT     H250310   0.005   4.938   6.979
16690WAT      O50311   0.067   9.241   2.802
16690WAT     H150312   0.074   9.154   2.851
16690WAT     H250313   0.116   9.311   2.854
16691WAT      O50314   4.416   9.445   6.452
16691WAT     H150315   4.505   9.443   6.497
16691WAT     H250316   4.386   9.351   6.435
16692WAT      O50317   2.926   4.958   3.906
16692WAT     H150318   2.932   5.053   3.934
16692WAT     H250319   2.963   4.899   3.978
16693WAT      O50320   9.547   1.675   1.448
16693WAT     H150321   9.577   1.769   1.468
16693WAT     H250322   9.451   1.676   1.421
16694WAT      O50323   8.873   6.064   1.798
16694WAT     H150324   8.782   6.073   1.839
16694WAT     H250325   8.928   6.002   1.854
16695WAT      O50326   5.971   0.416   6.009
16695WAT     H150327   5.955   0.502   6.057
16695WAT     H250328   6.060   0.379   6.035
16696WAT      O50329   8.099   3.497   6.944
16696WAT     H150330   8.165   3.434   6.986
16696WAT     H250331   8.141   3.588   6.937
16697WAT      O50332   5.303   3.672   9.852
16697WAT     H150333   5.326   3.769   9.847
16697WAT     H250334   5.247   3.647   9.773
16698WAT      O50335   1.273   9.361   4.561
16698WAT     H150336   1.271   9.374   4.462
16698WAT     H250337   1.291   9.265   4.581
16699WAT      O50338   4.802   8.051   6.497
16699WAT     H150339   4.768   8.083   6.586
16699WAT     H250340   4.821   8.130   6.439
16700WAT      O50341   7.938   4.327   9.352
16700WAT     H150342   7.958   4.401   9.288
16700WAT     H250343   7.847   4.291   9.333
16701WAT      O50344   8.223   3.644   4.525
16701WAT     H150345   8.284   3.700   4.581
16701WAT     H250346   8.273   3.607   4.447
16702WAT      O50347   8.994   5.206   1.666
16702WAT     H150348   8.931   5.248   1.730
16702WAT     H250349   8.975   5.108   1.660
16703WAT      O50350   7.466   1.423   4.602
16703WAT     H150351   7.409   1.491   4.647
16703WAT     H250352   7.542   1.469   4.555
16704WAT      O50353   3.260   1.460   3.805
16704WAT     H150354   3.305   1.428   3.722
16704WAT     H250355   3.165   1.429   3.807
16705WAT      O50356   2.981   2.550   8.722
16705WAT     H150357   2.988   2.618   8.794
16705WAT     H250358   2.962   2.595   8.635
16706WAT      O50359   9.622   7.355   7.104
16706WAT     H150360   9.713   7.394   7.120
16706WAT     H250361   9.594   7.375   7.010
16707WAT      O50362   3.226   6.948   7.758
16707WAT     H150363   3.324   6.954   7.744
16707WAT     H250364   3.189   7.039   7.777
16708WAT      O50365   7.232   0.576   8.277
16708WAT     H150366   7.162   0.556   8.345
16708WAT     H250367   7.190   0.623   8.199
16709WAT      O50368   4.592   0.231   9.610
16709WAT     H150369   4.683   0.207   9.577
16709WAT     H250370   4.534   0.149   9.610
16710WAT      O50371   9.798   4.716   4.255
16710WAT     H150372   9.875   4.680   4.308
16710WAT     H250373   9.814   4.813   4.236
16711WAT      O50374   1.271   2.126   1.483
16711WAT     H150375   1.191   2.144   1.425
16711WAT     H250376   1.350   2.110   1.425
16712WAT      O50377   1.357   0.137   1.291
16712WAT     H150378   1.430   0.174   1.348
16712WAT     H250379   1.394   0.069   1.228
16713WAT      O50380   4.882   0.788   2.161
16713WAT     H150381   4.973   0.773   2.123
16713WAT     H250382   4.886   0.783   2.261
16714WAT      O50383   7.274   8.805   4.457
16714WAT     H150384   7.329   8.870   4.403
16714WAT     H250385   7.187   8.788   4.410
16715WAT      O50386   3.579   8.365   2.609
16715WAT     H150387   3.490   8.397   2.641
16715WAT     H250388   3.644   8.370   2.685
16716WAT      O50389   7.841   1.204   4.885
16716WAT     H150390   7.871   1.113   4.914
16716WAT     H250391   7.847   1.267   4.962
16717WAT      O50392   5.969   7.783   5.492
16717WAT     H150393   5.986   7.879   5.511
16717WAT     H250394   5.899   7.774   5.421
16718WAT      O50395   4.286   2.586   9.696
16718WAT     H150396   4.286   2.487   9.679
16718WAT     H250397   4.193   2.622   9.685
16719WAT      O50398   0.301   4.055   3.509
16719WAT     H150399   0.262   3.981   3.453
16719WAT     H250400   0.370   4.017   3.570
16720WAT      O50401   9.768   0.440   6.691
16720WAT     H150402   9.792   0.527   6.733
16720WAT     H250403   9.818   0.366   6.736
16721WAT      O50404   6.269   2.887   3.462
16721WAT     H150405   6.284   2.803   3.515
16721WAT     H250406   6.233   2.864   3.372
16722WAT      O50407   6.224   9.826   9.814
16722WAT     H150408   6.179   9.812   9.902
16722WAT     H250409   6.156   9.825   9.740
16723WAT      O50410   0.528   2.955   7.135
16723WAT     H150411   0.496   2.951   7.041
16723WAT     H250412   0.488   2.878   7.187
16724WAT      O50413   1.252   9.315   0.988
16724WAT     H150414   1.155   9.292   0.982
16724WAT     H250415   1.306   9.242   0.948
16725WAT      O50416   0.163   2.972   5.673
16725WAT     H150417   0.260   2.984   5.698
16725WAT     H250418   0.116   2.921   5.745
16726WAT      O50419   7.920   4.705   5.514
16726WAT     H150420   7.933   4.708   5.613
16726WAT     H250421   7.882   4.616   5.488
16727WAT      O50422   5.974   3.033   3.483
16727WAT     H150423   5.951   3.010   3.578
16727WAT     H250424   6.063   3.080   3.482
16728WAT      O50425   4.504   4.229   0.380
16728WAT     H150426   4.471   4.304   0.437
16728WAT     H250427   4.521   4.148   0.437
16729WAT      O50428   3.973   4.717   8.870
16729WAT     H150429   4.062   4.686   8.904
16729WAT     H250430   3.900   4.674   8.923
16730WAT      O50431   8.142   4.420   0.465
16730WAT     H150432   8.130   4.331   0.509
16730WAT     H250433   8.239   4.433   0.443
16731WAT      O50434   5.032   1.253   0.116
16731WAT     H150435   5.032   1.179   0.182
16731WAT     H250436   4.965   1.234   0.044
16732WAT      O50437   2.068   6.329   1.892
16732WAT     H150438   2.159   6.302   1.860
16732WAT     H250439   2.038   6.410   1.842
16733WAT      O50440   6.323   1.893   4.544
16733WAT     H150441   6.287   1.889   4.451
16733WAT     H250442   6.402   1.953   4.547
16734WAT      O50443   3.584   1.930   1.106
16734WAT     H150444   3.499   1.894   1.144
16734WAT     H250445   3.661   1.871   1.132
16735WAT      O50446   5.194   0.770   9.265
16735WAT     H150447   5.263   0.721   9.318
16735WAT     H250448   5.237   0.845   9.214
16736WAT      O50449   8.842   0.906   7.099
16736WAT     H150450   8.764   0.844   7.096
16736WAT     H250451   8.896   0.888   7.181
16737WAT      O50452   8.598   1.446   9.095
16737WAT     H150453   8.608   1.354   9.058
16737WAT     H250454   8.656   1.456   9.176
16738WAT      O50455   1.796   3.271   6.464
16738WAT     H150456   1.733   3.243   6.537
16738WAT     H250457   1.881   3.302   6.505
16739WAT      O50458   5.299   3.420   5.340
16739WAT     H150459   5.279   3.505   5.291
16739WAT     H250460   5.238   3.411   5.418
16740WAT      O50461   8.402   8.889   1.272
16740WAT     H150462   8.484   8.835   1.254
16740WAT     H250463   8.328   8.858   1.213
16741WAT      O50464   9.693   3.720   7.849
16741WAT     H150465   9.699   3.734   7.948
16741WAT     H250466   9.721   3.627   7.827
16742WAT      O50467   3.480   0.567   8.336
16742WAT     H150468   3.565   0.617   8.321
16742WAT     H250469   3.405   0.632   8.350
16743WAT      O50470   4.797   8.747   8.964
16743WAT     H150471   4.706   8.784   8.947
16743WAT     H250472   4.847   8.739   8.878
16744WAT      O50473   2.724   1.867   3.968
16744WAT     H150474   2.701   1.961   3.994
16744WAT     H250475   2.652   1.805   3.999
16745WAT      O50476   6.950   0.083   8.748
16745WAT     H150477   6.912   0.151   8.684
16745WAT     H250478   7.041   0.112   8.776
16746WAT      O50479   4.355   0.369   7.191
16746WAT     H150480   4.357   0.341   7.287
16746WAT     H250481   4.419   0.444   7.177
16747WAT      O50482   5.826   9.598   1.470
16747WAT     H150483   5.760   9.621   1.398
16747WAT     H250484   5.909   9.563   1.429
16748WAT      O50485   5.291   1.238   4.542
16748WAT     H150486   5.363   1.188   4.494
16748WAT     H250487   5.210   1.180   4.550
16749WAT      O50488   6.045   7.072   0.363
16749WAT     H150489   5.994   7.053   0.447
16749WAT     H250490   6.086   6.987   0.329
16750WAT      O50491   6.096   8.921   6.582
16750WAT     H150492   6.010   8.962   6.612
16750WAT     H250493   6.167   8.937   6.650
16751WAT      O50494   1.919   1.682   4.041
16751WAT     H150495   1.845   1.618   4.019
16751WAT     H250496   2.006   1.631   4.048
16752WAT      O50497   7.205   0.455   0.260
16752WAT     H150498   7.220   0.508   0.343
16752WAT     H250499   7.109   0.462   0.233
16753WAT      O50500   7.093   1.119   5.090
16753WAT     H150501   7.038   1.038   5.110
16753WAT     H250502   7.033   1.193   5.058
16754WAT      O50503   6.647   5.534   7.955
16754WAT     H150504   6.680   5.491   7.871
16754WAT     H250505   6.640   5.633   7.941
16755WAT      O50506   5.990   0.499   6.488
16755WAT     H150507   5.896   0.473   6.506
16755WAT     H250508   6.052   0.442   6.542
16756WAT      O50509   7.613   7.202   1.298
16756WAT     H150510   7.627   7.301   1.300
16756WAT     H250511   7.644   7.162   1.384
16757WAT      O50512   8.518   4.728   5.348
16757WAT     H150513   8.515   4.822   5.313
16757WAT     H250514   8.451   4.719   5.422
16758WAT      O50515   8.011   3.119   9.492
16758WAT     H150516   7.931   3.079   9.447
16758WAT     H250517   8.022   3.079   9.583
16759WAT      O50518   3.373   3.525   6.672
16759WAT     H150519   3.326   3.439   6.651
16759WAT     H250520   3.448   3.539   6.608
16760WAT      O50521   0.981   7.173   2.308
16760WAT     H150522   0.967   7.266   2.274
16760WAT     H250523   0.973   7.172   2.408
16761WAT      O50524   9.216   8.928   3.385
16761WAT     H150525   9.313   8.952   3.374
16761WAT     H250526   9.208   8.846   3.441
16762WAT      O50527   4.053   5.132   0.255
16762WAT     H150528   4.111   5.053   0.234
16762WAT     H250529   4.099   5.189   0.324
16763WAT      O50530   5.735   8.018   6.814
16763WAT     H150531   5.716   8.102   6.866
16763WAT     H250532   5.832   7.995   6.823
16764WAT      O50533   3.590   5.470   0.515
16764WAT     H150534   3.619   5.380   0.549
16764WAT     H250535   3.569   5.463   0.418
16765WAT      O50536   0.782   7.122   6.926
16765WAT     H150537   0.739   7.115   7.016
16765WAT     H250538   0.856   7.056   6.919
16766WAT      O50539   4.429   0.777   8.529
16766WAT     H150540   4.396   0.807   8.618
16766WAT     H250541   4.358   0.724   8.483
16767WAT      O50542   4.540   7.060   4.741
16767WAT     H150543   4.630   7.103   4.734
16767WAT     H250544   4.527   7.024   4.834
16768WAT      O50545   8.896   6.277   7.856
16768WAT     H150546   8.928   6.239   7.770
16768WAT     H250547   8.828   6.349   7.838
16769WAT      O50548   7.299   1.765   3.957
16769WAT     H150549   7.294   1.832   3.883
16769WAT     H250550   7.393   1.730   3.963
16770WAT      O50551   3.832   8.489   1.057
16770WAT     H150552   3.839   8.542   1.141
16770WAT     H250553   3.819   8.551   0.979
16771WAT      O50554   7.391   7.974   2.344
16771WAT     H150555   7.362   8.024   2.263
16771WAT     H250556   7.456   7.903   2.318
16772WAT      O50557   6.458   4.605   1.205
16772WAT     H150558   6.535   4.572   1.150
16772WAT     H250559   6.397   4.529   1.225
16773WAT      O50560   5.071   5.521   5.418
16773WAT     H150561   5.062   5.610   5.463
16773WAT     H250562   5.163   5.485   5.435
16774WAT      O50563   1.137   5.638   7.801
16774WAT     H150564   1.187   5.559   7.767
16774WAT     H250565   1.163   5.719   7.749
16775WAT      O50566   6.493   2.369   9.250
16775WAT     H150567   6.516   2.311   9.171
16775WAT     H250568   6.397   2.358   9.273
16776WAT      O50569   6.289   3.770   7.253
16776WAT     H150570   6.313   3.691   7.310
16776WAT     H250571   6.327   3.759   7.162
16777WAT      O50572   9.644   4.808   2.216
16777WAT     H150573   9.642   4.885   2.280
16777WAT     H250574   9.555   4.764   2.215
16778WAT      O50575   8.938   9.602   4.780
16778WAT     H150576   8.876   9.582   4.705
16778WAT     H250577   9.030   9.618   4.744
16779WAT      O50578   5.090   3.202   9.285
16779WAT     H150579   5.106   3.104   9.270
16779WAT     H250580   5.033   3.214   9.367
16780WAT      O50581   5.183   4.451   3.984
16780WAT     H150582   5.240   4.386   4.035
16780WAT     H250583   5.129   4.504   4.049
16781WAT      O50584   9.080   5.055   4.542
16781WAT     H150585   9.035   5.142   4.521
16781WAT     H250586   9.178   5.070   4.555
16782WAT      O50587   0.010   1.169   2.255
16782WAT     H150588   0.076   1.171   2.331
16782WAT     H250589   0.013   1.256   2.206
16783WAT      O50590   8.499   7.046   5.391
16783WAT     H150591   8.463   7.095   5.471
16783WAT     H250592   8.474   7.096   5.308
16784WAT      O50593   7.594   4.190   1.957
16784WAT     H150594   7.549   4.129   1.892
16784WAT     H250595   7.526   4.228   2.020
16785WAT      O50596   0.593   4.362   4.103
16785WAT     H150597   0.547   4.388   4.018
16785WAT     H250598   0.585   4.263   4.116
16786WAT      O50599   1.576   1.728   2.587
16786WAT     H150600   1.579   1.648   2.526
16786WAT     H250601   1.497   1.721   2.647
16787WAT      O50602   0.981   4.516   1.780
16787WAT     H150603   0.904   4.580   1.777
16787WAT     H250604   1.036   4.526   1.698
16788WAT      O50605   6.060   2.717   2.212
16788WAT     H150606   5.979   2.726   2.154
16788WAT     H250607   6.138   2.762   2.167
16789WAT      O50608   1.682   4.686   1.761
16789WAT     H150609   1.603   4.632   1.788
16789WAT     H250610   1.717   4.736   1.840
16790WAT      O50611   6.469   2.930   5.077
16790WAT     H150612   6.421   2.987   5.010
16790WAT     H250613   6.566   2.925   5.054
16791WAT      O50614   8.197   8.421   5.196
16791WAT     H150615   8.147   8.391   5.276
16791WAT     H250616   8.289   8.381   5.197
16792WAT      O50617   4.085   3.317   2.184
16792WAT     H150618   3.993   3.291   2.214
16792WAT     H250619   4.125   3.242   2.131
16793WAT      O50620   3.805   1.797   4.065
16793WAT     H150621   3.825   1.895   4.071
16793WAT     H250622   3.879   1.751   4.016
16794WAT      O50623   7.273   5.347   6.824
16794WAT     H150624   7.209   5.309   6.757
16794WAT     H250625   7.224   5.405   6.889
16795WAT      O50626   8.914   8.042   2.908
16795WAT     H150627   9.001   8.022   2.952
16795WAT     H250628   8.890   8.138   2.924
16796WAT      O50629   6.829   2.735   7.821
16796WAT     H150630   6.774   2.661   7.780
16796WAT     H250631   6.879   2.700   7.899
16797WAT      O50632   2.889   3.671   4.065
16797WAT     H150633   2.922   3.645   3.974
16797WAT     H250634   2.795   3.639   4.076
16798WAT      O50635   1.162   6.324   1.896
16798WAT     H150636   1.112   6.403   1.932
16798WAT     H250637   1.133   6.306   1.802
16799WAT      O50638   6.531   2.221   9.031
16799WAT     H150639   6.627   2.200   9.012
16799WAT     H250640   6.496   2.283   8.960
16800WAT      O50641   2.040   3.700   1.876
16800WAT     H150642   2.103   3.691   1.953
16800WAT     H250643   2.049   3.620   1.816
16801WAT      O50644   8.662   4.140   9.209
16801WAT     H150645   8.603   4.215   9.177
16801WAT     H250646   8.673   4.147   9.308
16802WAT      O50647   0.661   7.492   6.027
16802WAT     H150648   0.760   7.506   6.021
16802WAT     H250649   0.614   7.563   5.975
16803WAT      O50650   8.340   2.456   7.073
16803WAT     H150651   8.440   2.443   7.076
16803WAT     H250652   8.299   2.386   7.015
16804WAT      O50653   2.838   2.939   3.310
16804WAT     H150654   2.928   2.973   3.282
16804WAT     H250655   2.844   2.899   3.401
16805WAT      O50656   5.128   8.103   2.036
16805WAT     H150657   5.191   8.177   2.059
16805WAT     H250658   5.164   8.017   2.070
16806WAT      O50659   2.751   0.736   4.808
16806WAT     H150660   2.771   0.819   4.859
16806WAT     H250661   2.824   0.719   4.742
16807WAT      O50662   1.520   9.532   1.757
16807WAT     H150663   1.605   9.480   1.744
16807WAT     H250664   1.455   9.477   1.809
16808WAT      O50665   1.036   5.734   4.182
16808WAT     H150666   1.023   5.634   4.181
16808WAT     H250667   1.093   5.761   4.105
16809WAT      O50668   5.209   0.791   4.605
16809WAT     H150669   5.295   0.827   4.568
16809WAT     H250670   5.199   0.695   4.577
16810WAT      O50671   4.767   8.720   5.121
16810WAT     H150672   4.816   8.646   5.076
16810WAT     H250673   4.672   8.693   5.136
16811WAT      O50674   4.078   3.684   4.520
16811WAT     H150675   3.994   3.696   4.573
16811WAT     H250676   4.074   3.740   4.438
16812WAT      O50677   9.670   0.895   0.637
16812WAT     H150678   9.641   0.834   0.711
16812WAT     H250679   9.594   0.909   0.574
16813WAT      O50680   3.576   5.631   6.518
16813WAT     H150681   3.513   5.612   6.442
16813WAT     H250682   3.663   5.584   6.502
16814WAT      O50683   8.256   3.907   2.370
16814WAT     H150684   8.295   3.820   2.340
16814WAT     H250685   8.169   3.923   2.322
16815WAT      O50686   0.019   6.654   0.093
16815WAT     H150687  -0.036   6.582   0.050
16815WAT     H250688   0.110   6.618   0.115
16816WAT      O50689   8.206   7.523   7.017
16816WAT     H150690   8.260   7.440   7.000
16816WAT     H250691   8.130   7.527   6.951
16817WAT      O50692   1.091   7.878   0.675
16817WAT     H150693   1.126   7.892   0.582
16817WAT     H250694   1.007   7.823   0.670
16818WAT      O50695   1.861   1.592   6.387
16818WAT     H150696   1.923   1.632   6.320
16818WAT     H250697   1.774   1.641   6.385
16819WAT      O50698   5.263   0.120   4.958
16819WAT     H150699   5.182   0.084   4.911
16819WAT     H250700   5.273   0.217   4.936
16820WAT      O50701   4.755   5.633   2.057
16820WAT     H150702   4.705   5.696   2.117
16820WAT     H250703   4.853   5.640   2.077
16821WAT      O50704   5.633   8.204   2.904
16821WAT     H150705   5.673   8.136   2.965
16821WAT     H250706   5.696   8.221   2.828
16822WAT      O50707   1.879   7.373   4.502
16822WAT     H150708   1.853   7.287   4.545
16822WAT     H250709   1.943   7.422   4.561
16823WAT      O50710   7.450   1.189   2.523
16823WAT     H150711   7.495   1.190   2.612
16823WAT     H250712   7.517   1.212   2.452
16824WAT      O50713   1.062   3.398   5.354
16824WAT     H150714   0.994   3.417   5.283
16824WAT     H250715   1.051   3.463   5.429
16825WAT      O50716   6.899   5.531   2.871
16825WAT     H150717   6.966   5.457   2.868
16825WAT     H250718   6.869   5.544   2.966
16826WAT      O50719   4.223   7.684   2.602
16826WAT     H150720   4.257   7.669   2.695
16826WAT     H250721   4.298   7.670   2.537
16827WAT      O50722   7.062   3.844   3.841
16827WAT     H150723   7.020   3.901   3.911
16827WAT     H250724   7.125   3.779   3.884
16828WAT      O50725   3.524   5.712   4.235
16828WAT     H150726   3.543   5.709   4.333
16828WAT     H250727   3.448   5.774   4.218
16829WAT      O50728   4.106   8.576   6.365
16829WAT     H150729   4.102   8.655   6.425
16829WAT     H250730   4.013   8.546   6.343
16830WAT      O50731   4.503   9.301   6.803
16830WAT     H150732   4.407   9.329   6.802
16830WAT     H250733   4.515   9.225   6.867
16831WAT      O50734   0.238   1.836   2.887
16831WAT     H150735   0.255   1.887   2.971
16831WAT     H250736   0.300   1.868   2.815
16832WAT      O50737   4.212   5.234   6.958
16832WAT     H150738   4.234   5.276   6.870
16832WAT     H250739   4.295   5.231   7.014
16833WAT      O50740   6.584   4.121   2.750
16833WAT     H150741   6.560   4.025   2.732
16833WAT     H250742   6.567   4.141   2.847
16834WAT      O50743   7.318   0.885   8.271
16834WAT     H150744   7.417   0.876   8.268
16834WAT     H250745   7.289   0.900   8.366
16835WAT      O50746   2.795   7.054   0.546
16835WAT     H150747   2.812   7.119   0.472
16835WAT     H250748   2.786   7.103   0.633
16836WAT      O50749   2.389   4.163   8.994
16836WAT     H150750   2.456   4.093   9.020
16836WAT     H250751   2.302   4.143   9.039
16837WAT      O50752   1.634   0.472   1.281
16837WAT     H150753   1.687   0.520   1.351
16837WAT     H250754   1.556   0.529   1.253
16838WAT      O50755   5.393   0.637   4.305
16838WAT     H150756   5.392   0.553   4.251
16838WAT     H250757   5.304   0.682   4.298
16839WAT      O50758   1.907   2.412   9.202
16839WAT     H150759   1.904   2.476   9.279
16839WAT     H250760   1.989   2.430   9.147
16840WAT      O50761   0.285   4.281   0.389
16840WAT     H150762   0.277   4.193   0.437
16840WAT     H250763   0.311   4.352   0.454
16841WAT      O50764   3.976   2.806   7.894
16841WAT     H150765   3.920   2.724   7.886
16841WAT     H250766   3.952   2.871   7.822
16842WAT      O50767   7.081   5.030   1.010
16842WAT     H150768   7.048   5.027   1.105
16842WAT     H250769   7.139   5.111   0.998
16843WAT      O50770   4.969   4.747   2.835
16843WAT     H150771   5.000   4.796   2.754
16843WAT     H250772   4.918   4.809   2.894
16844WAT      O50773   0.681   7.873   2.754
16844WAT     H150774   0.611   7.924   2.704
16844WAT     H250775   0.752   7.937   2.785
16845WAT      O50776   1.989   8.389   0.574
16845WAT     H150777   1.983   8.332   0.492
16845WAT     H250778   1.971   8.484   0.549
16846WAT      O50779   4.075   7.290   9.175
16846WAT     H150780   4.030   7.279   9.087
16846WAT     H250781   4.008   7.273   9.248
16847WAT      O50782   2.786   1.462   1.893
16847WAT     H150783   2.694   1.464   1.853
16847WAT     H250784   2.783   1.504   1.983
16848WAT      O50785   3.288   4.637   5.702
16848WAT     H150786   3.378   4.660   5.666
16848WAT     H250787   3.253   4.713   5.756
16849WAT      O50788   8.038   3.902   4.292
16849WAT     H150789   7.978   3.958   4.235
16849WAT     H250790   8.103   3.960   4.339
16850WAT      O50791   6.234   7.687   7.226
16850WAT     H150792   6.191   7.613   7.173
16850WAT     H250793   6.236   7.662   7.323
16851WAT      O50794   7.440   9.550   7.530
16851WAT     H150795   7.352   9.580   7.493
16851WAT     H250796   7.437   9.451   7.544
16852WAT      O50797   2.445   7.182   5.437
16852WAT     H150798   2.476   7.202   5.345
16852WAT     H250799   2.445   7.083   5.453
16853WAT      O50800   0.618   7.227   4.070
16853WAT     H150801   0.527   7.244   4.033
16853WAT     H250802   0.687   7.252   4.002
16854WAT      O50803   3.762   9.292   1.812
16854WAT     H150804   3.847   9.340   1.793
16854WAT     H250805   3.714   9.273   1.727
16855WAT      O50806   3.074   5.143   2.058
16855WAT     H150807   3.049   5.222   2.002
16855WAT     H250808   3.100   5.067   1.998
16856WAT      O50809   1.812   6.360   1.133
16856WAT     H150810   1.749   6.347   1.057
16856WAT     H250811   1.821   6.458   1.152
16857WAT      O50812   3.250   5.095   0.923
16857WAT     H150813   3.183   5.110   0.850
16857WAT     H250814   3.338   5.134   0.895
16858WAT      O50815   2.131   4.809   0.618
16858WAT     H150816   2.142   4.899   0.576
16858WAT     H250817   2.038   4.802   0.656
16859WAT      O50818   5.507   6.744   7.434
16859WAT     H150819   5.538   6.827   7.480
16859WAT     H250820   5.430   6.705   7.484
16860WAT      O50821   8.267   9.232   2.910
16860WAT     H150822   8.286   9.329   2.895
16860WAT     H250823   8.326   9.177   2.850
16861WAT      O50824   5.519  -0.002   1.182
16861WAT     H150825   5.533   0.095   1.202
16861WAT     H250826   5.422  -0.020   1.168
16862WAT      O50827   8.010   9.144   0.586
16862WAT     H150828   8.027   9.097   0.672
16862WAT     H250829   8.092   9.194   0.558
16863WAT      O50830   9.488   5.595   6.984
16863WAT     H150831   9.543   5.514   6.962
16863WAT     H250832   9.490   5.611   7.083
16864WAT      O50833   0.339   6.775   9.745
16864WAT     H150834   0.413   6.807   9.686
16864WAT     H250835   0.305   6.851   9.801
16865WAT      O50836   4.939   0.387   2.600
16865WAT     H150837   4.839   0.385   2.587
16865WAT     H250838   4.980   0.443   2.528
16866WAT      O50839   1.986   2.242   0.169
16866WAT     H150840   2.075   2.203   0.147
16866WAT     H250841   1.972   2.241   0.268
16867WAT      O50842   3.402   8.743   8.505
16867WAT     H150843   3.334   8.807   8.470
16867WAT     H250844   3.390   8.731   8.603
16868WAT      O50845   4.779   6.810   4.029
16868WAT     H150846   4.766   6.858   4.116
16868WAT     H250847   4.824   6.872   3.964
16869WAT      O50848   5.453   7.053   9.495
16869WAT     H150849   5.463   7.149   9.467
16869WAT     H250850   5.508   6.995   9.435
16870WAT      O50851   2.174   1.615   7.230
16870WAT     H150852   2.188   1.711   7.205
16870WAT     H250853   2.089   1.583   7.188
16871WAT      O50854   9.562   3.091   5.610
16871WAT     H150855   9.528   3.156   5.678
16871WAT     H250856   9.541   3.125   5.518
16872WAT      O50857   0.008   2.460   7.476
16872WAT     H150858  -0.027   2.426   7.389
16872WAT     H250859   0.064   2.390   7.520
16873WAT      O50860   3.488   5.728   5.308
16873WAT     H150861   3.546   5.719   5.388
16873WAT     H250862   3.467   5.824   5.291
16874WAT      O50863   7.774   3.450   4.980
16874WAT     H150864   7.681   3.477   4.954
16874WAT     H250865   7.811   3.387   4.911
16875WAT      O50866   5.005   7.189   7.113
16875WAT     H150867   5.017   7.140   7.027
16875WAT     H250868   4.907   7.202   7.131
16876WAT      O50869   0.280   0.356   3.575
16876WAT     H150870   0.258   0.381   3.670
16876WAT     H250871   0.379   0.353   3.563
16877WAT      O50872   2.785   2.620   4.192
16877WAT     H150873   2.722   2.646   4.119
16877WAT     H250874   2.869   2.674   4.185
16878WAT      O50875   4.621   3.923   2.514
16878WAT     H150876   4.570   3.935   2.429
16878WAT     H250877   4.710   3.881   2.495
16879WAT      O50878   7.139   1.705   3.081
16879WAT     H150879   7.110   1.801   3.083
16879WAT     H250880   7.104   1.659   3.163
16880WAT      O50881   6.001   8.703   0.714
16880WAT     H150882   6.029   8.788   0.669
16880WAT     H250883   5.984   8.633   0.645
16881WAT      O50884   5.203   3.058   3.274
16881WAT     H150885   5.132   3.110   3.226
16881WAT     H250886   5.225   2.975   3.222
16882WAT      O50887   9.729   3.674   8.115
16882WAT     H150888   9.689   3.608   8.179
16882WAT     H250889   9.746   3.761   8.163
16883WAT      O50890   8.935   0.890   2.142
16883WAT     H150891   8.970   0.796   2.147
16883WAT     H250892   8.959   0.930   2.054
16884WAT      O50893   2.494   7.558   8.587
16884WAT     H150894   2.459   7.652   8.590
16884WAT     H250895   2.466   7.515   8.501
16885WAT      O50896   6.258   4.058   1.758
16885WAT     H150897   6.344   4.064   1.707
16885WAT     H250898   6.267   3.991   1.831
16886WAT      O50899   7.239   0.605   3.037
16886WAT     H150900   7.145   0.584   3.062
16886WAT     H250901   7.273   0.536   2.974
16887WAT      O50902   3.889   2.400   5.365
16887WAT     H150903   3.915   2.483   5.413
16887WAT     H250904   3.969   2.340   5.358
16888WAT      O50905   8.229   4.111   6.616
16888WAT     H150906   8.316   4.155   6.595
16888WAT     H250907   8.242   4.013   6.624
16889WAT      O50908   7.063   8.945   0.832
16889WAT     H150909   6.966   8.959   0.811
16889WAT     H250910   7.119   9.007   0.777
16890WAT      O50911   7.500   7.922   4.705
16890WAT     H150912   7.563   7.846   4.690
16890WAT     H250913   7.552   8.003   4.732
16891WAT      O50914   9.739   7.524   4.316
16891WAT     H150915   9.837   7.521   4.300
16891WAT     H250916   9.715   7.612   4.358
16892WAT      O50917   5.931   7.508   8.356
16892WAT     H150918   5.906   7.602   8.335
16892WAT     H250919   6.030   7.499   8.354
16893WAT      O50920   6.474   4.162   7.700
16893WAT     H150921   6.492   4.208   7.787
16893WAT     H250922   6.415   4.220   7.644
16894WAT      O50923   7.002   8.027   0.788
16894WAT     H150924   7.090   8.027   0.741
16894WAT     H250925   6.996   8.108   0.847
16895WAT      O50926   5.612   0.898   2.938
16895WAT     H150927   5.608   0.906   3.037
16895WAT     H250928   5.696   0.851   2.912
16896WAT      O50929   3.547   9.165   3.992
16896WAT     H150930   3.633   9.122   3.964
16896WAT     H250931   3.563   9.262   4.009
16897WAT      O50932   0.955   4.041   8.476
16897WAT     H150933   0.875   4.047   8.535
16897WAT     H250934   1.011   3.963   8.505
16898WAT      O50935   7.374   0.415   2.887
16898WAT     H150936   7.344   0.403   2.792
16898WAT     H250937   7.473   0.404   2.892
16899WAT      O50938   0.504   2.699   7.225
16899WAT     H150939   0.452   2.635   7.168
16899WAT     H250940   0.596   2.663   7.241
16900WAT      O50941   5.128   4.146   6.890
16900WAT     H150942   5.108   4.215   6.821
16900WAT     H250943   5.042   4.108   6.925
16901WAT      O50944   7.208   9.281   3.185
16901WAT     H150945   7.151   9.317   3.259
16901WAT     H250946   7.186   9.327   3.099
16902WAT      O50947   2.225   7.018   6.436
16902WAT     H150948   2.132   7.056   6.443
16902WAT     H250949   2.290   7.084   6.473
16903WAT      O50950   4.006   5.001   1.533
16903WAT     H150951   4.047   4.910   1.537
16903WAT     H250952   4.077   5.069   1.511
16904WAT      O50953   1.956   6.955   6.792
16904WAT     H150954   1.893   6.924   6.721
16904WAT     H250955   2.050   6.943   6.761
16905WAT      O50956   8.270   0.751   1.045
16905WAT     H150957   8.174   0.776   1.063
16905WAT     H250958   8.282   0.739   0.946
16906WAT      O50959   0.915   9.289   7.937
16906WAT     H150960   0.959   9.336   7.861
16906WAT     H250961   0.858   9.215   7.902
16907WAT      O50962   4.005   3.938   8.036
16907WAT     H150963   4.011   3.890   7.949
16907WAT     H250964   3.990   3.872   8.110
16908WAT      O50965   7.605   5.869   3.624
16908WAT     H150966   7.576   5.792   3.568
16908WAT     H250967   7.600   5.844   3.721
16909WAT      O50968   6.571   0.038   3.470
16909WAT     H150969   6.496   0.020   3.533
16909WAT     H250970   6.638   0.098   3.513
16910WAT      O50971   0.386   8.670   6.309
16910WAT     H150972   0.443   8.746   6.279
16910WAT     H250973   0.410   8.588   6.256
16911WAT      O50974   6.234   6.899   8.322
16911WAT     H150975   6.252   6.892   8.420
16911WAT     H250976   6.237   6.807   8.281
16912WAT      O50977   0.510   0.437   9.561
16912WAT     H150978   0.599   0.469   9.527
16912WAT     H250979   0.472   0.370   9.497
16913WAT      O50980   4.368   4.987   0.583
16913WAT     H150981   4.296   5.036   0.632
16913WAT     H250982   4.416   4.926   0.647
16914WAT      O50983   6.359   3.220   0.952
16914WAT     H150984   6.327   3.272   0.873
16914WAT     H250985   6.281   3.175   0.996
16915WAT      O50986   5.784   3.093   8.626
16915WAT     H150987   5.772   3.129   8.533
16915WAT     H250988   5.703   3.040   8.651
16916WAT      O50989   1.302   7.552   7.640
16916WAT     H150990   1.225   7.616   7.644
16916WAT     H250991   1.268   7.461   7.616
16917WAT      O50992   6.396   3.171   1.510
16917WAT     H150993   6.484   3.138   1.546
16917WAT     H250994   6.339   3.202   1.586
16918WAT      O50995   0.960   6.521   2.476
16918WAT     H150996   0.895   6.467   2.423
16918WAT     H250997   0.918   6.550   2.562
16919WAT      O50998   0.979   0.649   2.125
16919WAT     H150999   1.032   0.725   2.090
16919WAT     H251000   0.918   0.615   2.053
16920WAT      O51001   2.756   8.750   7.212
16920WAT     H151002   2.697   8.828   7.231
16920WAT     H251003   2.700   8.668   7.199
16921WAT      O51004   2.809   5.865   8.526
16921WAT     H151005   2.887   5.928   8.535
16921WAT     H251006   2.736   5.910   8.474
16922WAT      O51007   2.547   4.104   6.789
16922WAT     H151008   2.565   4.006   6.804
16922WAT     H251009   2.615   4.158   6.838
16923WAT      O51010   1.151   4.286   6.979
16923WAT     H151011   1.147   4.370   7.033
16923WAT     H251012   1.194   4.305   6.891
16924WAT      O51013   4.666   4.408   9.532
16924WAT     H151014   4.754   4.450   9.509
16924WAT     H251015   4.594   4.446   9.474
16925WAT      O51016   4.242   2.133   1.676
16925WAT     H151017   4.214   2.111   1.582
16925WAT     H251018   4.341   2.146   1.679
16926WAT      O51019   3.505   4.508   6.117
16926WAT     H151020   3.571   4.544   6.183
16926WAT     H251021   3.554   4.473   6.037
16927WAT      O51022   4.466   7.833   3.609
16927WAT     H151023   4.467   7.917   3.555
16927WAT     H251024   4.552   7.822   3.657
16928WAT      O51025   3.601   7.355   8.629
16928WAT     H151026   3.610   7.413   8.548
16928WAT     H251027   3.510   7.312   8.628
16929WAT      O51028   3.255   5.409   9.146
16929WAT     H151029   3.326   5.452   9.090
16929WAT     H251030   3.184   5.476   9.168
16930WAT      O51031   5.052   8.228   0.814
16930WAT     H151032   5.069   8.216   0.716
16930WAT     H251033   5.070   8.323   0.840
16931WAT      O51034   2.517   2.348   3.645
16931WAT     H151035   2.463   2.289   3.586
16931WAT     H251036   2.485   2.442   3.637
16932WAT      O51037   0.119   8.831   8.169
16932WAT     H151038   0.079   8.801   8.256
16932WAT     H251039   0.217   8.808   8.168
16933WAT      O51040   3.172   7.283   2.753
16933WAT     H151041   3.195   7.379   2.733
16933WAT     H251042   3.090   7.280   2.811
16934WAT      O51043   4.423   0.759   9.772
16934WAT     H151044   4.492   0.726   9.708
16934WAT     H251045   4.453   0.741   9.866
16935WAT      O51046   9.081   2.305   5.779
16935WAT     H151047   9.058   2.278   5.873
16935WAT     H251048   9.008   2.362   5.742
16936WAT      O51049   1.952   9.228   8.901
16936WAT     H151050   2.007   9.148   8.878
16936WAT     H251051   1.934   9.229   9.000
16937WAT      O51052   4.646   1.464   5.765
16937WAT     H151053   4.620   1.387   5.706
16937WAT     H251054   4.733   1.503   5.733
16938WAT      O51055   5.002   9.701   9.687
16938WAT     H151056   5.087   9.752   9.696
16938WAT     H251057   5.022   9.603   9.677
16939WAT      O51058   9.261   7.740   4.019
16939WAT     H151059   9.165   7.721   4.038
16939WAT     H251060   9.272   7.836   3.995
16940WAT      O51061   7.936   6.438   1.522
16940WAT     H151062   8.031   6.420   1.548
16940WAT     H251063   7.931   6.457   1.424
16941WAT      O51064   3.934   4.236   9.394
16941WAT     H151065   3.907   4.305   9.461
16941WAT     H251066   4.026   4.202   9.416
16942WAT      O51067   6.128   1.094   8.008
16942WAT     H151068   6.152   1.007   8.051
16942WAT     H251069   6.162   1.095   7.914
16943WAT      O51070   4.000   9.673   6.565
16943WAT     H151071   4.004   9.751   6.503
16943WAT     H251072   4.088   9.626   6.566
16944WAT      O51073   0.444   7.362   7.395
16944WAT     H151074   0.423   7.458   7.411
16944WAT     H251075   0.418   7.337   7.301
16945WAT      O51076   0.697   6.376   3.234
16945WAT     H151077   0.680   6.380   3.332
16945WAT     H251078   0.671   6.464   3.192
16946WAT      O51079   2.702   4.112   3.750
16946WAT     H151080   2.721   4.143   3.657
16946WAT     H251081   2.686   4.191   3.809
16947WAT      O51082   9.354   9.726   6.237
16947WAT     H151083   9.389   9.647   6.188
16947WAT     H251084   9.264   9.751   6.202
16948WAT      O51085   6.503   3.433   9.673
16948WAT     H151086   6.450   3.367   9.726
16948WAT     H251087   6.451   3.519   9.666
16949WAT      O51088   5.020   3.919   4.556
16949WAT     H151089   5.062   3.870   4.632
16949WAT     H251090   4.923   3.933   4.576
16950WAT      O51091   3.487   4.975   6.040
16950WAT     H151092   3.496   4.951   5.943
16950WAT     H251093   3.431   5.057   6.049
16951WAT      O51094   1.400   3.463   0.531
16951WAT     H151095   1.365   3.381   0.577
16951WAT     H251096   1.385   3.543   0.588
16952WAT      O51097   5.875   8.713   1.685
16952WAT     H151098   5.934   8.692   1.607
16952WAT     H251099   5.820   8.795   1.664
16953WAT      O51100   5.240   0.415   3.938
16953WAT     H151101   5.318   0.434   3.998
16953WAT     H251102   5.234   0.486   3.868
16954WAT      O51103   4.186   2.417   1.774
16954WAT     H151104   4.274   2.431   1.818
16954WAT     H251105   4.174   2.319   1.755
16955WAT      O51106   0.050   6.357   2.897
16955WAT     H151107  -0.001   6.397   2.973
16955WAT     H251108   0.103   6.429   2.851
16956WAT      O51109   3.797   7.703   8.018
16956WAT     H151110   3.795   7.760   8.100
16956WAT     H251111   3.859   7.744   7.951
16957WAT      O51112   7.262   6.936   1.584
16957WAT     H151113   7.305   7.026   1.575
16957WAT     H251114   7.331   6.869   1.610
16958WAT      O51115   2.401   4.693   9.340
16958WAT     H151116   2.344   4.634   9.397
16958WAT     H251117   2.456   4.753   9.398
16959WAT      O51118   9.868   9.451   0.910
16959WAT     H151119   9.818   9.371   0.944
16959WAT     H251120   9.959   9.452   0.951
16960WAT      O51121   8.852   9.784   9.256
16960WAT     H151122   8.785   9.850   9.289
16960WAT     H251123   8.804   9.704   9.218
16961WAT      O51124   3.104   8.825   4.084
16961WAT     H151125   3.027   8.873   4.042
16961WAT     H251126   3.187   8.879   4.074
16962WAT      O51127   0.039   2.846   4.987
16962WAT     H151128   0.100   2.788   5.041
16962WAT     H251129   0.085   2.872   4.902
16963WAT      O51130   2.800   1.255   7.063
16963WAT     H151131   2.837   1.269   6.972
16963WAT     H251132   2.753   1.167   7.067
16964WAT      O51133   4.678   1.244   3.813
16964WAT     H151134   4.759   1.301   3.796
16964WAT     H251135   4.671   1.174   3.742
16965WAT      O51136   1.813   1.439   8.351
16965WAT     H151137   1.856   1.431   8.261
16965WAT     H251138   1.722   1.480   8.341
16966WAT      O51139   8.826   9.611   6.968
16966WAT     H151140   8.728   9.628   6.962
16966WAT     H251141   8.876   9.698   6.964
16967WAT      O51142   7.891   5.480   9.240
16967WAT     H151143   7.916   5.444   9.330
16967WAT     H251144   7.800   5.447   9.214
16968WAT      O51145   9.117   0.763   0.245
16968WAT     H151146   9.085   0.700   0.175
16968WAT     H251147   9.050   0.767   0.319
16969WAT      O51148   4.395   4.540   1.748
16969WAT     H151149   4.459   4.469   1.776
16969WAT     H251150   4.419   4.627   1.791
16970WAT      O51151   0.486   2.911   9.352
16970WAT     H151152   0.494   2.825   9.402
16970WAT     H251153   0.563   2.920   9.289
16971WAT      O51154   8.085   5.764   8.005
16971WAT     H151155   8.066   5.669   7.982
16971WAT     H251156   8.169   5.794   7.958
16972WAT      O51157   7.969   0.940   1.605
16972WAT     H151158   7.923   0.887   1.677
16972WAT     H251159   8.036   1.002   1.647
16973WAT      O51160   1.140   3.618   7.002
16973WAT     H151161   1.042   3.635   6.993
16973WAT     H251162   1.190   3.672   6.935
16974WAT      O51163   8.041   9.520   9.414
16974WAT     H151164   7.946   9.491   9.407
16974WAT     H251165   8.063   9.584   9.340
16975WAT      O51166   1.244   6.624   7.312
16975WAT     H151167   1.242   6.703   7.374
16975WAT     H251168   1.155   6.615   7.267
16976WAT      O51169   2.283   8.819   9.521
16976WAT     H151170   2.185   8.838   9.531
16976WAT     H251171   2.309   8.742   9.579
16977WAT      O51172   9.314   2.359   1.539
16977WAT     H151173   9.410   2.360   1.513
16977WAT     H251174   9.289   2.270   1.575
16978WAT      O51175   0.496   5.300   6.553
16978WAT     H151176   0.511   5.360   6.475
16978WAT     H251177   0.570   5.233   6.559
16979WAT      O51178   7.681   4.194   8.948
16979WAT     H151179   7.658   4.290   8.934
16979WAT     H251180   7.600   4.144   8.979
16980WAT      O51181   5.431   9.653   0.768
16980WAT     H151182   5.389   9.564   0.785
16980WAT     H251183   5.381   9.723   0.817
16981WAT      O51184   6.455   7.231   6.944
16981WAT     H151185   6.487   7.143   6.980
16981WAT     H251186   6.533   7.283   6.908
16982WAT      O51187   7.309   0.083   1.941
16982WAT     H151188   7.297   0.172   1.898
16982WAT     H251189   7.230   0.025   1.920
16983WAT      O51190   7.298   0.118   8.591
16983WAT     H151191   7.377   0.155   8.641
16983WAT     H251192   7.301   0.149   8.496
16984WAT      O51193   0.648   0.237   9.022
16984WAT     H151194   0.576   0.289   8.975
16984WAT     H251195   0.689   0.294   9.094
16985WAT      O51196   9.833   9.586   9.481
16985WAT     H151197   9.837   9.568   9.579
16985WAT     H251198   9.920   9.625   9.450
16986WAT      O51199   8.915   6.654   5.345
16986WAT     H151200   8.816   6.649   5.361
16986WAT     H251201   8.961   6.586   5.401
16987WAT      O51202   5.588   6.190   8.327
16987WAT     H151203   5.626   6.106   8.289
16987WAT     H251204   5.584   6.260   8.256
16988WAT      O51205   0.566   9.287   5.689
16988WAT     H151206   0.491   9.240   5.642
16988WAT     H251207   0.584   9.242   5.777
16989WAT      O51208   9.795   5.401   8.007
16989WAT     H151209   9.752   5.311   8.015
16989WAT     H251210   9.893   5.390   7.991
16990WAT      O51211   6.608   4.557   4.737
16990WAT     H151212   6.629   4.655   4.735
16990WAT     H251213   6.614   4.524   4.831
16991WAT      O51214   7.433   4.212   3.313
16991WAT     H151215   7.424   4.188   3.216
16991WAT     H251216   7.529   4.215   3.338
16992WAT      O51217   8.670   5.932   5.142
16992WAT     H151218   8.662   6.028   5.119
16992WAT     H251219   8.582   5.886   5.130
16993WAT      O51220   1.964   0.589   1.400
16993WAT     H151221   1.874   0.614   1.437
16993WAT     H251222   2.026   0.569   1.476
16994WAT      O51223   7.026   5.979   9.749
16994WAT     H151224   6.980   6.066   9.733
16994WAT     H251225   7.098   5.966   9.680
16995WAT      O51226   7.813   3.900   0.114
16995WAT     H151227   7.797   3.850   0.199
16995WAT     H251228   7.876   3.976   0.132
16996WAT      O51229   7.604   5.650   6.764
16996WAT     H151230   7.683   5.711   6.757
16996WAT     H251231   7.636   5.556   6.781
16997WAT      O51232   9.804   4.039   8.959
16997WAT     H151233   9.709   4.018   8.985
16997WAT     H251234   9.805   4.091   8.874
16998WAT      O51235   4.269   6.441   0.287
16998WAT     H151236   4.190   6.383   0.266
16998WAT     H251237   4.298   6.426   0.381
16999WAT      O51238   6.047   2.515   9.791
16999WAT     H151239   6.130   2.549   9.747
16999WAT     H251240   5.969   2.571   9.762
17000WAT      O51241   5.849   7.413   0.948
17000WAT     H151242   5.900   7.423   1.034
17000WAT     H251243   5.752   7.397   0.969
17001WAT      O51244   3.847   5.646   8.876
17001WAT     H151245   3.764   5.678   8.921
17001WAT     H251246   3.889   5.721   8.825
17002WAT      O51247   2.190   1.589   4.112
17002WAT     H151248   2.244   1.656   4.164
17002WAT     H251249   2.252   1.521   4.073
17003WAT      O51250   2.474   6.672   3.782
17003WAT     H151251   2.377   6.669   3.808
17003WAT     H251252   2.484   6.719   3.695
17004WAT      O51253   5.450   2.489   1.865
17004WAT     H151254   5.372   2.545   1.894
17004WAT     H251255   5.530   2.514   1.920
17005WAT      O51256   6.124   3.932   3.983
17005WAT     H151257   6.212   3.964   4.018
17005WAT     H251258   6.052   3.997   4.008
17006WAT      O51259   5.935   4.153   7.971
17006WAT     H151260   5.964   4.069   8.016
17006WAT     H251261   5.933   4.139   7.872
17007WAT      O51262   2.478   1.225   6.704
17007WAT     H151263   2.448   1.131   6.714
17007WAT     H251264   2.463   1.275   6.790
17008WAT      O51265   6.972   6.464   1.151
17008WAT     H151266   6.901   6.400   1.124
17008WAT     H251267   7.000   6.518   1.072
17009WAT      O51268   6.061   3.681   2.152
17009WAT     H151269   6.051   3.764   2.097
17009WAT     H251270   5.998   3.685   2.230
17010WAT      O51271   5.774   4.483   0.469
17010WAT     H151272   5.734   4.469   0.379
17010WAT     H251273   5.722   4.553   0.518
17011WAT      O51274   1.525   7.741   8.681
17011WAT     H151275   1.550   7.656   8.728
17011WAT     H251276   1.606   7.797   8.667
17012WAT      O51277   0.521   7.134   6.838
17012WAT     H151278   0.616   7.129   6.866
17012WAT     H251279   0.483   7.041   6.833
17013WAT      O51280   3.264   8.633   9.861
17013WAT     H151281   3.233   8.671   9.774
17013WAT     H251282   3.207   8.555   9.885
17014WAT      O51283   1.356   1.606   8.956
17014WAT     H151284   1.260   1.579   8.947
17014WAT     H251285   1.366   1.662   9.038
17015WAT      O51286   8.393   5.166   5.302
17015WAT     H151287   8.474   5.149   5.357
17015WAT     H251288   8.406   5.248   5.247
17016WAT      O51289   4.875   8.708   8.680
17016WAT     H151290   4.840   8.732   8.589
17016WAT     H251291   4.971   8.683   8.673
17017WAT      O51292   8.480   9.258   5.653
17017WAT     H151293   8.473   9.299   5.562
17017WAT     H251294   8.397   9.206   5.673
17018WAT      O51295   9.077   5.282   3.711
17018WAT     H151296   9.140   5.326   3.647
17018WAT     H251297   9.122   5.270   3.800
17019WAT      O51298   5.846   3.226   9.078
17019WAT     H151299   5.846   3.309   9.022
17019WAT     H251300   5.795   3.154   9.032
17020WAT      O51301   8.808   3.758   4.034
17020WAT     H151302   8.728   3.727   3.984
17020WAT     H251303   8.795   3.744   4.132
17021WAT      O51304   6.118   7.901   2.955
17021WAT     H151305   6.083   7.811   2.978
17021WAT     H251306   6.100   7.921   2.859
17022WAT      O51307   6.764   1.800   8.275
17022WAT     H151308   6.830   1.781   8.202
17022WAT     H251309   6.707   1.878   8.248
17023WAT      O51310   7.291   2.538   5.151
17023WAT     H151311   7.358   2.604   5.118
17023WAT     H251312   7.206   2.585   5.174
17024WAT      O51313   7.351   8.685   5.894
17024WAT     H151314   7.279   8.686   5.963
17024WAT     H251315   7.437   8.715   5.935
17025WAT      O51316   5.184   6.637   1.484
17025WAT     H151317   5.266   6.622   1.540
17025WAT     H251318   5.135   6.718   1.517
17026WAT      O51319   5.236   6.047   1.694
17026WAT     H151320   5.171   6.008   1.627
17026WAT     H251321   5.323   6.064   1.648
17027WAT      O51322   2.335   7.437   4.573
17027WAT     H151323   2.375   7.504   4.635
17027WAT     H251324   2.361   7.458   4.479
17028WAT      O51325   6.795   1.117   3.470
17028WAT     H151326   6.788   1.057   3.390
17028WAT     H251327   6.890   1.141   3.486
17029WAT      O51328   5.438   1.251   6.745
17029WAT     H151329   5.357   1.290   6.701
17029WAT     H251330   5.450   1.156   6.716
17030WAT      O51331   9.286   9.736   7.230
17030WAT     H151332   9.274   9.799   7.307
17030WAT     H251333   9.378   9.696   7.234
17031WAT      O51334   9.030   1.626   7.480
17031WAT     H151335   9.126   1.647   7.461
17031WAT     H251336   9.007   1.657   7.572
17032WAT      O51337   2.392   4.278   7.680
17032WAT     H151338   2.471   4.274   7.742
17032WAT     H251339   2.314   4.318   7.728
17033WAT      O51340   1.578   7.659   9.383
17033WAT     H151341   1.634   7.656   9.301
17033WAT     H251342   1.481   7.647   9.359
17034WAT      O51343   0.209   6.544   9.668
17034WAT     H151344   0.222   6.489   9.750
17034WAT     H251345   0.270   6.623   9.670
17035WAT      O51346   1.879   8.844   1.154
17035WAT     H151347   1.841   8.871   1.242
17035WAT     H251348   1.899   8.747   1.154
17036WAT      O51349   3.685   5.388   4.387
17036WAT     H151350   3.651   5.358   4.297
17036WAT     H251351   3.772   5.435   4.376
17037WAT      O51352   1.223   6.635   9.636
17037WAT     H151353   1.124   6.648   9.631
17037WAT     H251354   1.268   6.719   9.604
17038WAT      O51355   3.987   6.826   9.863
17038WAT     H151356   4.012   6.910   9.911
17038WAT     H251357   3.890   6.831   9.836
17039WAT      O51358   1.718   6.047   6.454
17039WAT     H151359   1.632   5.999   6.469
17039WAT     H251360   1.725   6.124   6.518
17040WAT      O51361   7.726   9.489   4.355
17040WAT     H151362   7.805   9.499   4.414
17040WAT     H251363   7.656   9.557   4.380
17041WAT      O51364   5.733   4.064   6.238
17041WAT     H151365   5.833   4.058   6.240
17041WAT     H251366   5.696   3.972   6.222
17042WAT      O51367   7.767   3.955   5.186
17042WAT     H151368   7.752   3.862   5.154
17042WAT     H251369   7.841   3.997   5.135
17043WAT      O51370   7.542   5.973   6.558
17043WAT     H151371   7.449   5.996   6.587
17043WAT     H251372   7.542   5.881   6.518
17044WAT      O51373   3.266   4.324   4.124
17044WAT     H151374   3.199   4.279   4.182
17044WAT     H251375   3.230   4.332   4.031
17045WAT      O51376   1.046   2.472   9.824
17045WAT     H151377   1.000   2.548   9.778
17045WAT     H251378   1.086   2.503   9.910
17046WAT      O51379   5.104   0.735   6.503
17046WAT     H151380   5.057   0.669   6.443
17046WAT     H251381   5.118   0.820   6.453
17047WAT      O51382   2.669   7.226   1.650
17047WAT     H151383   2.627   7.143   1.688
17047WAT     H251384   2.627   7.247   1.561
17048WAT      O51385   7.441   7.169   6.908
17048WAT     H151386   7.515   7.235   6.925
17048WAT     H251387   7.409   7.132   6.996
17049WAT      O51388   0.598   5.542   6.006
17049WAT     H151389   0.548   5.535   5.919
17049WAT     H251390   0.582   5.632   6.046
17050WAT      O51391   7.303   4.403   9.617
17050WAT     H151392   7.246   4.454   9.682
17050WAT     H251393   7.397   4.438   9.621
17051WAT      O51394   2.847   4.513   4.208
17051WAT     H151395   2.847   4.429   4.154
17051WAT     H251396   2.765   4.517   4.265
17052WAT      O51397   1.450   7.442   4.912
17052WAT     H151398   1.502   7.513   4.865
17052WAT     H251399   1.352   7.461   4.903
17053WAT      O51400   0.352   0.575   4.136
17053WAT     H151401   0.373   0.608   4.229
17053WAT     H251402   0.363   0.651   4.072
17054WAT      O51403   5.343   6.580   6.852
17054WAT     H151404   5.396   6.526   6.787
17054WAT     H251405   5.395   6.592   6.937
17055WAT      O51406   4.378   8.927   4.239
17055WAT     H151407   4.462   8.979   4.222
17055WAT     H251408   4.376   8.847   4.179
17056WAT      O51409   3.804   4.503   0.060
17056WAT     H151410   3.716   4.548   0.046
17056WAT     H251411   3.795   4.405   0.039
17057WAT      O51412   8.107   2.436   3.797
17057WAT     H151413   8.165   2.475   3.724
17057WAT     H251414   8.157   2.438   3.883
17058WAT      O51415   4.276   8.479   7.414
17058WAT     H151416   4.309   8.545   7.482
17058WAT     H251417   4.336   8.399   7.414
17059WAT      O51418   9.146   6.779   5.274
17059WAT     H151419   9.047   6.768   5.268
17059WAT     H251420   9.175   6.776   5.370
17060WAT      O51421   5.580   6.785   8.913
17060WAT     H151422   5.664   6.825   8.950
17060WAT     H251423   5.602   6.701   8.863
17061WAT      O51424   7.724   3.634   0.258
17061WAT     H151425   7.695   3.555   0.204
17061WAT     H251426   7.644   3.690   0.281
17062WAT      O51427   9.068   0.681   9.839
17062WAT     H151428   9.148   0.630   9.808
17062WAT     H251429   9.075   0.776   9.809
17063WAT      O51430   1.050   8.312   2.311
17063WAT     H151431   0.985   8.236   2.318
17063WAT     H251432   1.036   8.358   2.223
17064WAT      O51433   8.571   6.155   6.048
17064WAT     H151434   8.557   6.167   6.146
17064WAT     H251435   8.532   6.234   5.999
17065WAT      O51436   4.595   9.426   9.613
17065WAT     H151437   4.651   9.486   9.556
17065WAT     H251438   4.513   9.399   9.563
17066WAT      O51439   0.110   5.816   1.732
17066WAT     H151440   0.033   5.767   1.773
17066WAT     H251441   0.084   5.912   1.718
17067WAT      O51442   6.313   3.055   1.937
17067WAT     H151443   6.391   3.010   1.894
17067WAT     H251444   6.244   2.987   1.960
17068WAT      O51445   4.635   6.237   7.870
17068WAT     H151446   4.611   6.224   7.966
17068WAT     H251447   4.725   6.280   7.864
17069WAT      O51448   1.214   5.630   8.070
17069WAT     H151449   1.189   5.726   8.054
17069WAT     H251450   1.201   5.578   7.986
17070WAT      O51451   6.621   8.254   9.189
17070WAT     H151452   6.639   8.343   9.147
17070WAT     H251453   6.541   8.260   9.248
17071WAT      O51454   7.256   3.070   3.466
17071WAT     H151455   7.298   3.081   3.376
17071WAT     H251456   7.205   2.984   3.469
17072WAT      O51457   7.086   1.753   4.140
17072WAT     H151458   7.078   1.851   4.159
17072WAT     H251459   7.156   1.739   4.070
17073WAT      O51460   7.513   0.157   0.154
17073WAT     H151461   7.472   0.091   0.091
17073WAT     H251462   7.612   0.158   0.140
17074WAT      O51463   5.852   2.620   1.770
17074WAT     H151464   5.772   2.572   1.733
17074WAT     H251465   5.900   2.560   1.834
17075WAT      O51466   9.136   1.154   3.903
17075WAT     H151467   9.190   1.210   3.840
17075WAT     H251468   9.064   1.107   3.852
17076WAT      O51469   6.449   3.550   8.625
17076WAT     H151470   6.431   3.541   8.723
17076WAT     H251471   6.381   3.610   8.584
17077WAT      O51472   8.147   4.592   4.552
17077WAT     H151473   8.197   4.540   4.622
17077WAT     H251474   8.126   4.531   4.475
17078WAT      O51475   8.193   4.847   4.334
17078WAT     H151476   8.140   4.769   4.368
17078WAT     H251477   8.132   4.924   4.315
17079WAT      O51478   0.534   8.685   7.103
17079WAT     H151479   0.571   8.731   7.022
17079WAT     H251480   0.436   8.669   7.091
17080WAT      O51481   3.485   0.641   1.692
17080WAT     H151482   3.548   0.564   1.694
17080WAT     H251483   3.413   0.624   1.625
17081WAT      O51484   0.846   5.083   4.137
17081WAT     H151485   0.822   5.007   4.197
17081WAT     H251486   0.763   5.132   4.110
17082WAT      O51487   6.174   9.246   9.048
17082WAT     H151488   6.118   9.329   9.042
17082WAT     H251489   6.215   9.227   8.958
17083WAT      O51490   4.120   9.534   4.571
17083WAT     H151491   4.149   9.566   4.661
17083WAT     H251492   4.137   9.606   4.503
17084WAT      O51493   9.683   1.926   3.094
17084WAT     H151494   9.589   1.958   3.109
17084WAT     H251495   9.729   1.987   3.030
17085WAT      O51496   5.345   5.238   2.544
17085WAT     H151497   5.438   5.264   2.571
17085WAT     H251498   5.324   5.147   2.582
17086WAT      O51499   7.607   9.658   3.818
17086WAT     H151500   7.524   9.702   3.852
17086WAT     H251501   7.586   9.565   3.788
17087WAT      O51502   7.501   1.860   9.682
17087WAT     H151503   7.409   1.863   9.722
17087WAT     H251504   7.497   1.811   9.595
17088WAT      O51505   4.663   8.640   6.637
17088WAT     H151506   4.680   8.649   6.539
17088WAT     H251507   4.587   8.699   6.663
17089WAT      O51508   1.881   1.880   4.225
17089WAT     H151509   1.945   1.953   4.203
17089WAT     H251510   1.886   1.808   4.156
17090WAT      O51511   9.525   9.513   4.785
17090WAT     H151512   9.476   9.571   4.850
17090WAT     H251513   9.623   9.535   4.789
17091WAT      O51514   1.265   0.520   8.209
17091WAT     H151515   1.278   0.617   8.227
17091WAT     H251516   1.275   0.502   8.111
17092WAT      O51517   6.000   9.713   5.413
17092WAT     H151518   5.995   9.619   5.449
17092WAT     H251519   5.981   9.777   5.487
17093WAT      O51520   9.596   8.278   3.690
17093WAT     H151521   9.521   8.212   3.694
17093WAT     H251522   9.618   8.309   3.783
17094WAT      O51523   3.575   1.080   0.634
17094WAT     H151524   3.671   1.096   0.654
17094WAT     H251525   3.547   0.992   0.674
17095WAT      O51526   5.296   3.459   2.827
17095WAT     H151527   5.225   3.449   2.758
17095WAT     H251528   5.374   3.509   2.789
17096WAT      O51529   5.880   7.543   0.718
17096WAT     H151530   5.890   7.537   0.818
17096WAT     H251531   5.938   7.474   0.675
17097WAT      O51532   1.637   3.193   3.905
17097WAT     H151533   1.727   3.221   3.939
17097WAT     H251534   1.575   3.179   3.982
17098WAT      O51535   0.247   9.378   2.978
17098WAT     H151536   0.232   9.476   2.992
17098WAT     H251537   0.281   9.337   3.063
17099WAT      O51538   1.197   7.006   4.559
17099WAT     H151539   1.176   7.096   4.597
17099WAT     H251540   1.270   6.964   4.613
17100WAT      O51541   2.630   7.730   0.182
17100WAT     H151542   2.556   7.732   0.249
17100WAT     H251543   2.701   7.795   0.209
17101WAT      O51544   0.915   5.447   4.216
17101WAT     H151545   0.866   5.481   4.296
17101WAT     H251546   0.914   5.347   4.217
17102WAT      O51547   9.870   8.050   6.870
17102WAT     H151548   9.846   8.018   6.962
17102WAT     H251549   9.819   8.134   6.850
17103WAT      O51550   0.481   8.180   8.037
17103WAT     H151551   0.392   8.157   7.997
17103WAT     H251552   0.554   8.138   7.983
17104WAT      O51553   9.779   4.518   5.436
17104WAT     H151554   9.841   4.594   5.456
17104WAT     H251555   9.685   4.547   5.447
17105WAT      O51556   3.832   9.422   3.828
17105WAT     H151557   3.750   9.379   3.791
17105WAT     H251558   3.875   9.477   3.756
17106WAT      O51559   1.473   6.214   5.495
17106WAT     H151560   1.434   6.125   5.517
17106WAT     H251561   1.533   6.206   5.415
17107WAT      O51562   1.408   6.253   8.369
17107WAT     H151563   1.338   6.313   8.331
17107WAT     H251564   1.445   6.194   8.297
17108WAT      O51565   1.103   2.316   0.377
17108WAT     H151566   1.087   2.411   0.351
17108WAT     H251567   1.029   2.258   0.342
17109WAT      O51568   4.886   1.551   7.283
17109WAT     H151569   4.880   1.576   7.380
17109WAT     H251570   4.968   1.592   7.243
17110WAT      O51571   1.495   7.270   7.747
17110WAT     H151572   1.503   7.358   7.699
17110WAT     H251573   1.398   7.245   7.754
17111WAT      O51574   3.384   7.073   7.319
17111WAT     H151575   3.466   7.024   7.350
17111WAT     H251576   3.324   7.090   7.397
17112WAT      O51577   8.944   8.307   3.751
17112WAT     H151578   8.873   8.317   3.820
17112WAT     H251579   8.910   8.253   3.675
17113WAT      O51580   1.353   8.483   5.510
17113WAT     H151581   1.278   8.512   5.570
17113WAT     H251582   1.426   8.443   5.565
17114WAT      O51583   5.684   6.873   8.447
17114WAT     H151584   5.778   6.892   8.476
17114WAT     H251585   5.635   6.959   8.437
17115WAT      O51586   7.133   8.868   3.757
17115WAT     H151587   7.222   8.870   3.712
17115WAT     H251588   7.061   8.877   3.688
17116WAT      O51589   1.908   5.315   8.478
17116WAT     H151590   1.938   5.410   8.482
17116WAT     H251591   1.981   5.258   8.440
17117WAT      O51592   8.427   9.779   3.023
17117WAT     H151593   8.405   9.721   2.945
17117WAT     H251594   8.442   9.721   3.104
17118WAT      O51595   0.809   3.504   5.479
17118WAT     H151596   0.809   3.564   5.399
17118WAT     H251597   0.895   3.516   5.529
17119WAT      O51598   4.612   8.001   7.721
17119WAT     H151599   4.696   7.957   7.754
17119WAT     H251600   4.636   8.076   7.660
17120WAT      O51601   1.014   9.157   8.336
17120WAT     H151602   1.053   9.166   8.245
17120WAT     H251603   1.088   9.140   8.402
17121WAT      O51604   6.626   2.813   9.558
17121WAT     H151605   6.652   2.863   9.475
17121WAT     H251606   6.618   2.877   9.634
17122WAT      O51607   6.560   6.321   9.772
17122WAT     H151608   6.523   6.270   9.850
17122WAT     H251609   6.518   6.411   9.768
17123WAT      O51610   7.096   7.678   2.373
17123WAT     H151611   7.135   7.664   2.282
17123WAT     H251612   7.147   7.751   2.420
17124WAT      O51613   0.639   1.468   5.221
17124WAT     H151614   0.695   1.428   5.148
17124WAT     H251615   0.544   1.470   5.192
17125WAT      O51616   4.071   3.394   7.450
17125WAT     H151617   3.995   3.411   7.513
17125WAT     H251618   4.035   3.387   7.356
17126WAT      O51619   8.709   5.391   3.905
17126WAT     H151620   8.777   5.358   3.839
17126WAT     H251621   8.725   5.348   3.994
17127WAT      O51622   1.256   3.024   2.034
17127WAT     H151623   1.181   3.026   2.100
17127WAT     H251624   1.341   3.052   2.079
17128WAT      O51625   0.182   8.072   2.286
17128WAT     H151626   0.185   8.170   2.269
17128WAT     H251627   0.120   8.028   2.221
17129WAT      O51628   5.006   3.476   0.530
17129WAT     H151629   4.925   3.528   0.558
17129WAT     H251630   4.982   3.416   0.454
17130WAT      O51631   9.884   9.587   6.916
17130WAT     H151632   9.830   9.653   6.864
17130WAT     H251633   9.888   9.500   6.867
17131WAT      O51634   3.603   0.719   4.055
17131WAT     H151635   3.674   0.788   4.069
17131WAT     H251636   3.641   0.642   4.004
17132WAT      O51637   0.816   0.150   5.294
17132WAT     H151638   0.873   0.069   5.288
17132WAT     H251639   0.868   0.230   5.265
17133WAT      O51640   5.888   1.065   7.851
17133WAT     H151641   5.865   0.971   7.875
17133WAT     H251642   5.961   1.098   7.911
17134WAT      O51643   6.674   3.297   1.486
17134WAT     H151644   6.582   3.326   1.460
17134WAT     H251645   6.671   3.205   1.524
17135WAT      O51646   0.332   9.185   2.138
17135WAT     H151647   0.371   9.151   2.223
17135WAT     H251648   0.254   9.128   2.112
17136WAT      O51649   5.901   5.804   9.553
17136WAT     H151650   5.841   5.764   9.484
17136WAT     H251651   5.996   5.784   9.529
17137WAT      O51652   1.161   5.682   5.697
17137WAT     H151653   1.238   5.643   5.748
17137WAT     H251654   1.171   5.659   5.600
17138WAT      O51655   6.740   9.289   5.420
17138WAT     H151656   6.678   9.217   5.451
17138WAT     H251657   6.780   9.263   5.332
17139WAT      O51658   7.872   4.790   7.791
17139WAT     H151659   7.883   4.711   7.852
17139WAT     H251660   7.949   4.851   7.801
17140WAT      O51661   4.106   5.320   1.754
17140WAT     H151662   4.019   5.280   1.783
17140WAT     H251663   4.181   5.273   1.801
17141WAT      O51664   3.300   2.252   7.910
17141WAT     H151665   3.386   2.304   7.907
17141WAT     H251666   3.318   2.160   7.944
17142WAT      O51667   5.172   9.723   7.840
17142WAT     H151668   5.181   9.766   7.930
17142WAT     H251669   5.075   9.713   7.817
17143WAT      O51670   6.479   3.617   5.166
17143WAT     H151671   6.506   3.544   5.103
17143WAT     H251672   6.543   3.694   5.158
17144WAT      O51673   6.871   4.850   1.939
17144WAT     H151674   6.833   4.828   1.849
17144WAT     H251675   6.805   4.825   2.010
17145WAT      O51676   1.700   1.526   3.300
17145WAT     H151677   1.719   1.433   3.329
17145WAT     H251678   1.775   1.586   3.329
17146WAT      O51679   9.486   3.428   1.266
17146WAT     H151680   9.459   3.489   1.191
17146WAT     H251681   9.407   3.413   1.325
17147WAT      O51682   3.607   3.579   6.498
17147WAT     H151683   3.665   3.503   6.468
17147WAT     H251684   3.664   3.660   6.515
17148WAT      O51685  -0.001   9.155   5.938
17148WAT     H151686   0.087   9.119   5.967
17148WAT     H251687  -0.055   9.081   5.896
17149WAT      O51688   6.026   6.344   0.217
17149WAT     H151689   6.026   6.437   0.180
17149WAT     H251690   5.938   6.300   0.197
17150WAT      O51691   5.874   8.297   9.791
17150WAT     H151692   5.854   8.224   9.856
17150WAT     H251693   5.789   8.343   9.766
17151WAT      O51694   6.464   7.597   4.472
17151WAT     H151695   6.373   7.560   4.490
17151WAT     H251696   6.457   7.696   4.459
17152WAT      O51697   2.504   7.699   0.666
17152WAT     H151698   2.571   7.745   0.607
17152WAT     H251699   2.540   7.610   0.693
17153WAT      O51700   0.598   8.618   2.084
17153WAT     H151701   0.662   8.671   2.140
17153WAT     H251702   0.508   8.620   2.127
17154WAT      O51703   6.398   2.297   3.568
17154WAT     H151704   6.409   2.372   3.634
17154WAT     H251705   6.302   2.291   3.540
17155WAT      O51706   1.147   2.524   9.479
17155WAT     H151707   1.114   2.506   9.386
17155WAT     H251708   1.233   2.575   9.474
17156WAT      O51709   8.437   1.900   6.157
17156WAT     H151710   8.473   1.993   6.159
17156WAT     H251711   8.487   1.843   6.222
17157WAT      O51712   4.915   2.892   2.599
17157WAT     H151713   4.890   2.803   2.561
17157WAT     H251714   5.011   2.890   2.630
17158WAT      O51715   4.782   2.214   5.808
17158WAT     H151716   4.845   2.141   5.780
17158WAT     H251717   4.829   2.275   5.871
17159WAT      O51718   2.582   2.439   9.686
17159WAT     H151719   2.485   2.419   9.680
17159WAT     H251720   2.598   2.535   9.662
17160WAT      O51721   2.268   0.053   8.571
17160WAT     H151722   2.285  -0.029   8.627
17160WAT     H251723   2.200   0.111   8.617
17161WAT      O51724   3.813   7.865   4.797
17161WAT     H151725   3.824   7.912   4.710
17161WAT     H251726   3.786   7.770   4.780
17162WAT      O51727   2.592   5.080   8.691
17162WAT     H151728   2.655   5.027   8.635
17162WAT     H251729   2.504   5.089   8.643
17163WAT      O51730   3.527   2.700   7.373
17163WAT     H151731   3.450   2.637   7.375
17163WAT     H251732   3.503   2.783   7.424
17164WAT      O51733   8.265   8.494   6.691
17164WAT     H151734   8.208   8.437   6.750
17164WAT     H251735   8.328   8.436   6.640
17165WAT      O51736   7.364   6.091   6.196
17165WAT     H151737   7.311   6.170   6.229
17165WAT     H251738   7.360   6.088   6.096
17166WAT      O51739   2.325   8.596   3.555
17166WAT     H151740   2.349   8.512   3.604
17166WAT     H251741   2.300   8.667   3.621
17167WAT      O51742   9.816   4.548   3.360
17167WAT     H151743   9.815   4.588   3.452
17167WAT     H251744   9.743   4.589   3.305
17168WAT      O51745   9.592   6.573   2.388
17168WAT     H151746   9.510   6.517   2.400
17168WAT     H251747   9.663   6.520   2.342
17169WAT      O51748   6.806   1.907   8.548
17169WAT     H151749   6.730   1.879   8.607
17169WAT     H251750   6.786   1.881   8.453
17170WAT      O51751   8.051   6.545   1.941
17170WAT     H151752   8.109   6.532   2.022
17170WAT     H251753   7.956   6.530   1.966
17171WAT      O51754   8.910   1.897   4.852
17171WAT     H151755   8.873   1.814   4.893
17171WAT     H251756   8.838   1.946   4.803
17172WAT      O51757   6.252   8.077   9.159
17172WAT     H151758   6.202   8.034   9.233
17172WAT     H251759   6.325   8.134   9.196
17173WAT      O51760   9.799   7.495   0.525
17173WAT     H151761   9.725   7.560   0.509
17173WAT     H251762   9.777   7.437   0.604
17174WAT      O51763   8.123   5.473   3.227
17174WAT     H151764   8.148   5.511   3.316
17174WAT     H251765   8.038   5.422   3.236
17175WAT      O51766   5.640   4.750   3.637
17175WAT     H151767   5.738   4.731   3.624
17175WAT     H251768   5.624   4.773   3.733
17176WAT      O51769   4.967   6.337   1.995
17176WAT     H151770   4.870   6.362   1.998
17176WAT     H251771   4.979   6.259   1.934
17177WAT      O51772   3.533   7.196   9.293
17177WAT     H151773   3.626   7.197   9.255
17177WAT     H251774   3.538   7.184   9.392
17178WAT      O51775   6.654   0.694   1.050
17178WAT     H151776   6.561   0.690   1.014
17178WAT     H251777   6.654   0.666   1.146
17179WAT      O51778   2.066   1.824   0.467
17179WAT     H151779   2.139   1.887   0.492
17179WAT     H251780   2.053   1.824   0.367
17180WAT      O51781   6.277   5.989   8.888
17180WAT     H151782   6.313   6.045   8.813
17180WAT     H251783   6.280   6.041   8.973
17181WAT      O51784   6.048   3.485   3.731
17181WAT     H151785   6.083   3.578   3.738
17181WAT     H251786   6.103   3.433   3.666
17182WAT      O51787   0.921   9.065   8.973
17182WAT     H151788   0.835   9.065   8.922
17182WAT     H251789   0.917   9.133   9.046
17183WAT      O51790   9.408   3.302   4.629
17183WAT     H151791   9.400   3.400   4.612
17183WAT     H251792   9.423   3.287   4.727
17184WAT      O51793   0.656   5.503   9.857
17184WAT     H151794   0.670   5.473   9.951
17184WAT     H251795   0.603   5.434   9.808
17185WAT      O51796   1.197   4.441   2.916
17185WAT     H151797   1.155   4.529   2.935
17185WAT     H251798   1.173   4.412   2.823
17186WAT      O51799   1.698   5.815   9.001
17186WAT     H151800   1.764   5.856   8.937
17186WAT     H251801   1.609   5.860   8.990
17187WAT      O51802   7.565   7.959   4.328
17187WAT     H151803   7.554   7.885   4.261
17187WAT     H251804   7.638   7.935   4.392
17188WAT      O51805   9.873   0.743   1.767
17188WAT     H151806   9.817   0.715   1.689
17188WAT     H251807   9.967   0.758   1.736
17189WAT      O51808   0.380   6.553   8.914
17189WAT     H151809   0.448   6.596   8.972
17189WAT     H251810   0.400   6.572   8.818
17190WAT      O51811   0.429   5.174   2.346
17190WAT     H151812   0.468   5.156   2.436
17190WAT     H251813   0.402   5.270   2.340
17191WAT      O51814   9.738   1.950   0.843
17191WAT     H151815   9.700   1.871   0.795
17191WAT     H251816   9.685   2.032   0.819
17192WAT      O51817   2.078   6.533   2.233
17192WAT     H151818   2.140   6.454   2.238
17192WAT     H251819   2.055   6.563   2.325
17193WAT      O51820   7.935   4.693   5.791
17193WAT     H151821   7.971   4.774   5.837
17193WAT     H251822   7.842   4.675   5.823
17194WAT      O51823   2.641   2.342   1.398
17194WAT     H151824   2.692   2.266   1.438
17194WAT     H251825   2.673   2.428   1.439
17195WAT      O51826   6.641   3.154   2.318
17195WAT     H151827   6.736   3.178   2.297
17195WAT     H251828   6.619   3.182   2.411
17196WAT      O51829   6.357   9.482   6.904
17196WAT     H151830   6.305   9.493   6.989
17196WAT     H251831   6.296   9.453   6.831
17197WAT      O51832   6.881   1.306   9.383
17197WAT     H151833   6.850   1.257   9.465
17197WAT     H251834   6.973   1.276   9.358
17198WAT      O51835   1.136   2.571   1.240
17198WAT     H151836   1.203   2.624   1.292
17198WAT     H251837   1.135   2.602   1.145
17199WAT      O51838   5.045   0.402   9.129
17199WAT     H151839   4.982   0.471   9.092
17199WAT     H251840   5.025   0.388   9.226
17200WAT      O51841   2.476   3.138   1.407
17200WAT     H151842   2.527   3.056   1.435
17200WAT     H251843   2.539   3.215   1.399
17201WAT      O51844   5.240   5.720   6.248
17201WAT     H151845   5.149   5.760   6.261
17201WAT     H251846   5.241   5.626   6.283
17202WAT      O51847   1.465   1.591   3.444
17202WAT     H151848   1.543   1.554   3.393
17202WAT     H251849   1.495   1.668   3.500
17203WAT      O51850   8.353   2.756   0.947
17203WAT     H151851   8.299   2.679   0.981
17203WAT     H251852   8.351   2.757   0.847
17204WAT      O51853   8.180   8.060   1.951
17204WAT     H151854   8.081   8.054   1.959
17204WAT     H251855   8.222   7.997   2.017
17205WAT      O51856   0.801   1.501   5.976
17205WAT     H151857   0.778   1.574   5.911
17205WAT     H251858   0.800   1.413   5.928
17206WAT      O51859   1.496   1.482   1.490
17206WAT     H151860   1.429   1.555   1.479
17206WAT     H251861   1.583   1.521   1.521
17207WAT      O51862   5.211   4.625   9.695
17207WAT     H151863   5.171   4.657   9.609
17207WAT     H251864   5.255   4.537   9.680
17208WAT      O51865   6.220   2.504   4.269
17208WAT     H151866   6.253   2.411   4.288
17208WAT     H251867   6.139   2.499   4.211
17209WAT      O51868   4.096   4.763   1.626
17209WAT     H151869   4.193   4.782   1.619
17209WAT     H251870   4.058   4.812   1.705
17210WAT      O51871   5.927   3.826   3.001
17210WAT     H151872   6.017   3.799   3.035
17210WAT     H251873   5.881   3.881   3.071
17211WAT      O51874   6.459   2.510   4.674
17211WAT     H151875   6.541   2.470   4.714
17211WAT     H251876   6.380   2.453   4.697
17212WAT      O51877   5.362   1.566   6.209
17212WAT     H151878   5.332   1.533   6.120
17212WAT     H251879   5.455   1.603   6.201
17213WAT      O51880   4.601   9.083   4.200
17213WAT     H151881   4.589   9.133   4.115
17213WAT     H251882   4.626   9.146   4.273
17214WAT      O51883   8.071   3.548   7.603
17214WAT     H151884   8.104   3.632   7.560
17214WAT     H251885   8.077   3.473   7.537
17215WAT      O51886   3.397   2.598   6.621
17215WAT     H151887   3.343   2.581   6.703
17215WAT     H251888   3.486   2.636   6.646
17216WAT      O51889   9.706   7.461   4.864
17216WAT     H151890   9.611   7.453   4.894
17216WAT     H251891   9.721   7.405   4.783
17217WAT      O51892   5.688   0.176   1.577
17217WAT     H151893   5.768   0.124   1.607
17217WAT     H251894   5.645   0.219   1.657
17218WAT      O51895   2.646   2.694   4.727
17218WAT     H151896   2.689   2.782   4.744
17218WAT     H251897   2.588   2.700   4.645
17219WAT      O51898   1.384   5.523   3.903
17219WAT     H151899   1.289   5.524   3.872
17219WAT     H251900   1.389   5.558   3.996
17220WAT      O51901   5.869   3.672   9.357
17220WAT     H151902   5.894   3.657   9.453
17220WAT     H251903   5.825   3.762   9.348
17221WAT      O51904   2.886   4.789   2.368
17221WAT     H151905   2.887   4.831   2.459
17221WAT     H251906   2.853   4.855   2.301
17222WAT      O51907   1.976   1.452   2.702
17222WAT     H151908   1.950   1.546   2.724
17222WAT     H251909   1.917   1.388   2.753
17223WAT      O51910   3.104   1.555   7.313
17223WAT     H151911   3.163   1.484   7.352
17223WAT     H251912   3.041   1.587   7.383
17224WAT      O51913   5.314   6.908   6.681
17224WAT     H151914   5.311   6.876   6.586
17224WAT     H251915   5.250   6.855   6.737
17225WAT      O51916   6.331   1.248   5.537
17225WAT     H151917   6.284   1.209   5.457
17225WAT     H251918   6.322   1.186   5.615
17226WAT      O51919   3.072   3.495   5.651
17226WAT     H151920   3.156   3.501   5.704
17226WAT     H251921   3.088   3.529   5.559
17227WAT      O51922   1.313   5.711   0.564
17227WAT     H151923   1.332   5.684   0.470
17227WAT     H251924   1.331   5.635   0.626
17228WAT      O51925   5.364   3.312   2.303
17228WAT     H151926   5.336   3.261   2.385
17228WAT     H251927   5.345   3.409   2.317
17229WAT      O51928   9.197   6.654   3.699
17229WAT     H151929   9.260   6.582   3.727
17229WAT     H251930   9.217   6.683   3.606
17230WAT      O51931   5.459   6.740   6.181
17230WAT     H151932   5.538   6.784   6.137
17230WAT     H251933   5.381   6.743   6.119
17231WAT      O51934   0.832   0.104   1.769
17231WAT     H151935   0.762   0.176   1.767
17231WAT     H251936   0.789   0.015   1.752
17232WAT      O51937   0.286   8.552   8.936
17232WAT     H151938   0.257   8.576   9.028
17232WAT     H251939   0.267   8.456   8.919
17233WAT      O51940   3.827   5.127   2.670
17233WAT     H151941   3.782   5.058   2.613
17233WAT     H251942   3.878   5.190   2.611
17234WAT      O51943   8.800   2.346   9.306
17234WAT     H151944   8.857   2.291   9.244
17234WAT     H251945   8.819   2.320   9.401
17235WAT      O51946   5.479   7.671   6.897
17235WAT     H151947   5.574   7.642   6.908
17235WAT     H251948   5.476   7.770   6.880
17236WAT      O51949   7.431   6.630   1.426
17236WAT     H151950   7.420   6.667   1.334
17236WAT     H251951   7.519   6.582   1.432
17237WAT      O51952   8.437   7.597   2.214
17237WAT     H151953   8.467   7.521   2.155
17237WAT     H251954   8.488   7.593   2.300
17238WAT      O51955   0.867   5.531   6.003
17238WAT     H151956   0.911   5.475   6.074
17238WAT     H251957   0.768   5.531   6.017
17239WAT      O51958   7.746   8.107   2.966
17239WAT     H151959   7.839   8.118   3.002
17239WAT     H251960   7.685   8.171   3.012
17240WAT      O51961   9.075   4.646   6.911
17240WAT     H151962   9.058   4.720   6.976
17240WAT     H251963   9.013   4.655   6.833
17241WAT      O51964   8.796   7.880   7.418
17241WAT     H151965   8.783   7.815   7.493
17241WAT     H251966   8.718   7.942   7.414
17242WAT      O51967   5.863   5.562   7.417
17242WAT     H151968   5.961   5.580   7.407
17242WAT     H251969   5.845   5.525   7.509
17243WAT      O51970   8.862   9.030   0.917
17243WAT     H151971   8.916   9.081   0.984
17243WAT     H251972   8.783   8.989   0.963
17244WAT      O51973   5.860   2.541   2.645
17244WAT     H151974   5.872   2.477   2.721
17244WAT     H251975   5.832   2.490   2.563
17245WAT      O51976   1.491   6.954   8.436
17245WAT     H151977   1.464   7.039   8.481
17245WAT     H251978   1.530   6.891   8.503
17246WAT      O51979   8.894   4.614   2.978
17246WAT     H151980   8.946   4.590   3.060
17246WAT     H251981   8.862   4.531   2.934
17247WAT      O51982   6.711   7.635   0.708
17247WAT     H151983   6.633   7.682   0.749
17247WAT     H251984   6.741   7.561   0.768
17248WAT      O51985   2.392   1.039   1.712
17248WAT     H151986   2.489   1.012   1.717
17248WAT     H251987   2.345   1.008   1.795
17249WAT      O51988   7.103   6.626   8.766
17249WAT     H151989   7.087   6.529   8.786
17249WAT     H251990   7.022   6.666   8.724
17250WAT      O51991   3.480   5.741   1.500
17250WAT     H151992   3.424   5.821   1.480
17250WAT     H251993   3.423   5.669   1.538
17251WAT      O51994   0.333   4.743   4.732
17251WAT     H151995   0.258   4.703   4.785
17251WAT     H251996   0.379   4.813   4.787
17252WAT      O51997   0.824   6.207   5.112
17252WAT     H151998   0.816   6.294   5.161
17252WAT     H251999   0.822   6.132   5.177
17253WAT      O52000   8.558   5.860   3.425
17253WAT     H152001   8.507   5.923   3.482
17253WAT     H252002   8.496   5.812   3.363
17254WAT      O52003   5.845   7.936   2.557
17254WAT     H152004   5.777   8.006   2.534
17254WAT     H252005   5.924   7.979   2.601
17255WAT      O52006   7.637   0.382   1.537
17255WAT     H152007   7.589   0.385   1.450
17255WAT     H252008   7.711   0.450   1.538
17256WAT      O52009   8.129   2.266   0.089
17256WAT     H152010   8.173   2.194   0.035
17256WAT     H252011   8.173   2.354   0.071
17257WAT      O52012   4.704   3.997   9.587
17257WAT     H152013   4.625   3.938   9.570
17257WAT     H252014   4.706   4.026   9.682
17258WAT      O52015   4.881   8.756   8.188
17258WAT     H152016   4.873   8.656   8.180
17258WAT     H252017   4.942   8.791   8.117
17259WAT      O52018   7.628   2.449   2.729
17259WAT     H152019   7.708   2.469   2.786
17259WAT     H252020   7.553   2.512   2.753
17260WAT      O52021   8.038   0.735   2.413
17260WAT     H152022   8.006   0.669   2.482
17260WAT     H252023   8.106   0.691   2.355
17261WAT      O52024   1.857   5.008   7.421
17261WAT     H152025   1.878   4.961   7.507
17261WAT     H252026   1.773   4.971   7.383
17262WAT      O52027   9.741   6.631   5.280
17262WAT     H152028   9.784   6.655   5.193
17262WAT     H252029   9.759   6.535   5.301
17263WAT      O52030   6.835   5.517   3.151
17263WAT     H152031   6.924   5.473   3.160
17263WAT     H252032   6.827   5.590   3.219
17264WAT      O52033   2.751   3.582   4.424
17264WAT     H152034   2.783   3.664   4.376
17264WAT     H252035   2.716   3.608   4.514
17265WAT      O52036   0.202   7.054   2.473
17265WAT     H152037   0.114   7.102   2.468
17265WAT     H252038   0.269   7.111   2.520
17266WAT      O52039   4.016   1.646   1.276
17266WAT     H152040   4.002   1.710   1.351
17266WAT     H252041   3.955   1.669   1.200
17267WAT      O52042   7.653   2.654   6.401
17267WAT     H152043   7.738   2.668   6.452
17267WAT     H252044   7.619   2.561   6.417
17268WAT      O52045   9.178   4.772   6.357
17268WAT     H152046   9.269   4.771   6.398
17268WAT     H252047   9.136   4.861   6.370
17269WAT      O52048   4.746   0.619   4.258
17269WAT     H152049   4.737   0.718   4.269
17269WAT     H252050   4.721   0.594   4.164
17270WAT      O52051   4.506   8.048   1.198
17270WAT     H152052   4.579   8.027   1.134
17270WAT     H252053   4.542   8.046   1.292
17271WAT      O52054   0.788   0.953   3.545
17271WAT     H152055   0.703   0.926   3.498
17271WAT     H252056   0.767   0.983   3.637
17272WAT      O52057   2.410   2.230   2.570
17272WAT     H152058   2.440   2.166   2.641
17272WAT     H252059   2.407   2.182   2.482
17273WAT      O52060   8.642   5.573   3.706
17273WAT     H152061   8.720   5.635   3.700
17273WAT     H252062   8.660   5.503   3.775
17274WAT      O52063   0.193   1.517   9.668
17274WAT     H152064   0.250   1.585   9.714
17274WAT     H252065   0.187   1.435   9.725
17275WAT      O52066   9.195   7.613   7.250
17275WAT     H152067   9.185   7.553   7.330
17275WAT     H252068   9.126   7.685   7.254
17276WAT      O52069   9.675   6.767   9.669
17276WAT     H152070   9.595   6.823   9.648
17276WAT     H252071   9.656   6.671   9.646
17277WAT      O52072   6.254   5.536   4.735
17277WAT     H152073   6.256   5.451   4.683
17277WAT     H252074   6.276   5.613   4.674
17278WAT      O52075   0.356   9.025   4.297
17278WAT     H152076   0.355   8.981   4.388
17278WAT     H252077   0.450   9.051   4.274
17279WAT      O52078   6.248   2.332   5.576
17279WAT     H152079   6.338   2.318   5.534
17279WAT     H252080   6.231   2.262   5.645
17280WAT      O52081   5.336   6.109   8.169
17280WAT     H152082   5.379   6.034   8.219
17280WAT     H252083   5.349   6.195   8.219
17281WAT      O52084   0.187   4.115   1.933
17281WAT     H152085   0.283   4.144   1.932
17281WAT     H252086   0.148   4.127   1.842
17282WAT      O52087   2.552   4.406   9.634
17282WAT     H152088   2.581   4.487   9.583
17282WAT     H252089   2.621   4.383   9.702
17283WAT      O52090   1.501   3.447   5.568
17283WAT     H152091   1.503   3.398   5.481
17283WAT     H252092   1.582   3.506   5.575
17284WAT      O52093   7.224   4.367   4.476
17284WAT     H152094   7.156   4.438   4.492
17284WAT     H252095   7.178   4.281   4.456
17285WAT      O52096   2.115   4.460   0.266
17285WAT     H152097   2.154   4.549   0.289
17285WAT     H252098   2.165   4.388   0.314
17286WAT      O52099   0.845   0.570   4.507
17286WAT     H152100   0.807   0.610   4.424
17286WAT     H252101   0.832   0.633   4.584
17287WAT      O52102   6.622   0.525   6.327
17287WAT     H152103   6.654   0.482   6.243
17287WAT     H252104   6.663   0.616   6.337
17288WAT      O52105   2.620   4.778   3.566
17288WAT     H152106   2.663   4.829   3.641
17288WAT     H252107   2.588   4.690   3.600
17289WAT      O52108   9.700   2.275   0.967
17289WAT     H152109   9.676   2.252   0.873
17289WAT     H252110   9.794   2.309   0.970
17290WAT      O52111   6.969   7.308   1.305
17290WAT     H152112   7.065   7.311   1.335
17290WAT     H252113   6.938   7.401   1.286
17291WAT      O52114   3.312   3.806   0.503
17291WAT     H152115   3.272   3.805   0.595
17291WAT     H252116   3.353   3.895   0.485
17292WAT      O52117   6.855   6.854   4.585
17292WAT     H152118   6.951   6.881   4.571
17292WAT     H252119   6.852   6.772   4.643
17293WAT      O52120   6.131   5.432   8.492
17293WAT     H152121   6.101   5.527   8.498
17293WAT     H252122   6.195   5.422   8.417
17294WAT      O52123   0.826   7.751   1.090
17294WAT     H152124   0.866   7.689   1.022
17294WAT     H252125   0.733   7.722   1.110
17295WAT      O52126   3.207   1.998   0.129
17295WAT     H152127   3.130   2.061   0.141
17295WAT     H252128   3.270   2.008   0.206
17296WAT      O52129   6.787   1.982   4.896
17296WAT     H152130   6.886   1.973   4.907
17296WAT     H252131   6.755   1.917   4.827
17297WAT      O52132   3.446   3.095   1.883
17297WAT     H152133   3.439   2.995   1.883
17297WAT     H252134   3.363   3.134   1.924
17298WAT      O52135   9.475   6.751   1.103
17298WAT     H152136   9.511   6.694   1.029
17298WAT     H252137   9.449   6.694   1.180
17299WAT      O52138   8.655   4.055   0.897
17299WAT     H152139   8.695   4.106   0.973
17299WAT     H252140   8.630   4.118   0.823
17300WAT      O52141   6.430   9.793   8.648
17300WAT     H152142   6.482   9.878   8.638
17300WAT     H252143   6.477   9.720   8.597
17301WAT      O52144   2.521   1.732   6.196
17301WAT     H152145   2.479   1.817   6.163
17301WAT     H252146   2.463   1.691   6.266
17302WAT      O52147   9.017   4.794   0.680
17302WAT     H152148   9.012   4.798   0.779
17302WAT     H252149   9.113   4.792   0.652
17303WAT      O52150   4.356   2.778   6.530
17303WAT     H152151   4.385   2.872   6.549
17303WAT     H252152   4.409   2.740   6.455
17304WAT      O52153   8.815   5.845   7.789
17304WAT     H152154   8.770   5.880   7.707
17304WAT     H252155   8.909   5.878   7.792
17305WAT      O52156   5.109   1.702   4.340
17305WAT     H152157   5.102   1.603   4.347
17305WAT     H252158   5.153   1.726   4.253
17306WAT      O52159   2.638   1.755   7.467
17306WAT     H152160   2.641   1.854   7.477
17306WAT     H252161   2.550   1.720   7.499
17307WAT      O52162   5.526   1.725   4.154
17307WAT     H152163   5.543   1.823   4.154
17307WAT     H252164   5.499   1.696   4.246
17308WAT      O52165   7.842   9.615   2.134
17308WAT     H152166   7.789   9.619   2.219
17308WAT     H252167   7.836   9.702   2.086
17309WAT      O52168   0.864   8.802   7.659
17309WAT     H152169   0.917   8.718   7.650
17309WAT     H252170   0.781   8.783   7.712
17310WAT      O52171   9.546   3.118   1.533
17310WAT     H152172   9.613   3.043   1.538
17310WAT     H252173   9.454   3.080   1.530
17311WAT      O52174   7.614   9.459   0.785
17311WAT     H152175   7.653   9.398   0.853
17311WAT     H252176   7.685   9.486   0.720
17312WAT      O52177   8.837   2.438   2.524
17312WAT     H152178   8.848   2.434   2.623
17312WAT     H252179   8.741   2.456   2.502
17313WAT      O52180   3.073   4.452   4.775
17313WAT     H152181   3.041   4.531   4.724
17313WAT     H252182   3.145   4.406   4.722
17314WAT      O52183   5.122   6.937   0.869
17314WAT     H152184   5.097   7.033   0.881
17314WAT     H252185   5.052   6.879   0.910
17315WAT      O52186   4.587   8.196   1.734
17315WAT     H152187   4.592   8.186   1.834
17315WAT     H252188   4.557   8.288   1.712
17316WAT      O52189   8.480   9.403   2.186
17316WAT     H152190   8.515   9.495   2.165
17316WAT     H252191   8.513   9.338   2.118
17317WAT      O52192   4.506   2.191   5.147
17317WAT     H152193   4.468   2.155   5.062
17317WAT     H252194   4.483   2.129   5.223
17318WAT      O52195   3.357   1.239   0.626
17318WAT     H152196   3.344   1.284   0.715
17318WAT     H252197   3.426   1.167   0.635
17319WAT      O52198   7.930   5.455   2.631
17319WAT     H152199   7.904   5.520   2.702
17319WAT     H252200   7.896   5.486   2.542
17320WAT      O52201   8.916   1.776   1.255
17320WAT     H152202   9.006   1.806   1.289
17320WAT     H252203   8.917   1.777   1.155
17321WAT      O52204   6.816   4.017   6.527
17321WAT     H152205   6.765   3.932   6.530
17321WAT     H252206   6.883   4.018   6.602
17322WAT      O52207   4.924   1.245   3.423
17322WAT     H152208   5.000   1.309   3.440
17322WAT     H252209   4.844   1.273   3.476
17323WAT      O52210   6.819   8.868   1.402
17323WAT     H152211   6.917   8.852   1.417
17323WAT     H252212   6.766   8.814   1.467
17324WAT      O52213   1.213   6.427   8.316
17324WAT     H152214   1.134   6.382   8.276
17324WAT     H252215   1.188   6.468   8.404
17325WAT      O52216   5.006   6.284   0.409
17325WAT     H152217   4.912   6.319   0.412
17325WAT     H252218   5.020   6.236   0.323
17326WAT      O52219   7.056   1.741   7.025
17326WAT     H152220   7.061   1.817   6.961
17326WAT     H252221   7.148   1.717   7.056
17327WAT      O52222   6.523   2.949   5.445
17327WAT     H152223   6.504   2.891   5.366
17327WAT     H252224   6.447   3.012   5.459
17328WAT      O52225   8.452   7.310   7.538
17328WAT     H152226   8.494   7.246   7.603
17328WAT     H252227   8.378   7.360   7.583
17329WAT      O52228   0.854   4.184   4.404
17329WAT     H152229   0.832   4.086   4.398
17329WAT     H252230   0.832   4.217   4.495
17330WAT      O52231   7.402   4.785   6.142
17330WAT     H152232   7.461   4.865   6.151
17330WAT     H252233   7.409   4.749   6.049
17331WAT      O52234   9.185   4.255   9.218
17331WAT     H152235   9.246   4.266   9.139
17331WAT     H252236   9.101   4.210   9.189
17332WAT      O52237   1.604   9.454   7.818
17332WAT     H152238   1.515   9.409   7.814
17332WAT     H252239   1.607   9.528   7.751
17333WAT      O52240   4.318   8.691   8.230
17333WAT     H152241   4.299   8.788   8.246
17333WAT     H252242   4.261   8.635   8.290
17334WAT      O52243   0.848   2.481   7.672
17334WAT     H152244   0.838   2.430   7.758
17334WAT     H252245   0.767   2.537   7.657
17335WAT      O52246   6.506   4.208   9.126
17335WAT     H152247   6.587   4.194   9.069
17335WAT     H252248   6.424   4.208   9.067
17336WAT      O52249   5.154   7.845   4.990
17336WAT     H152250   5.224   7.873   4.925
17336WAT     H252251   5.069   7.895   4.972
17337WAT      O52252   4.662   2.299   4.861
17337WAT     H152253   4.685   2.348   4.945
17337WAT     H252254   4.685   2.202   4.872
17338WAT      O52255   8.672   4.751   5.723
17338WAT     H152256   8.578   4.769   5.755
17338WAT     H252257   8.678   4.657   5.690
17339WAT      O52258   4.469   5.827   7.425
17339WAT     H152259   4.435   5.821   7.331
17339WAT     H252260   4.492   5.736   7.459
17340WAT      O52261   3.471   6.517   9.805
17340WAT     H152262   3.391   6.497   9.861
17340WAT     H252263   3.467   6.613   9.775
17341WAT      O52264   3.439   3.662   9.483
17341WAT     H152265   3.504   3.703   9.419
17341WAT     H252266   3.455   3.563   9.487
17342WAT      O52267   9.122   5.627   7.453
17342WAT     H152268   9.191   5.555   7.454
17342WAT     H252269   9.124   5.675   7.365
17343WAT      O52270   4.363   8.605   7.965
17343WAT     H152271   4.389   8.651   8.050
17343WAT     H252272   4.318   8.671   7.904
17344WAT      O52273   2.468   2.771   8.479
17344WAT     H152274   2.492   2.692   8.535
17344WAT     H252275   2.531   2.846   8.499
17345WAT      O52276   0.390   0.256   5.828
17345WAT     H152277   0.426   0.176   5.878
17345WAT     H252278   0.312   0.294   5.878
17346WAT      O52279   8.358   5.877   9.613
17346WAT     H152280   8.267   5.918   9.613
17346WAT     H252281   8.409   5.908   9.532
17347WAT      O52282   6.243   8.558   4.678
17347WAT     H152283   6.249   8.458   4.668
17347WAT     H252284   6.172   8.581   4.743
17348WAT      O52285   1.815   2.074   3.747
17348WAT     H152286   1.796   2.033   3.658
17348WAT     H252287   1.867   2.011   3.803
17349WAT      O52288   6.896   2.721   5.461
17349WAT     H152289   6.869   2.721   5.558
17349WAT     H252290   6.890   2.813   5.425
17350WAT      O52291   8.902   7.152   8.706
17350WAT     H152292   8.884   7.100   8.622
17350WAT     H252293   9.000   7.149   8.726
17351WAT      O52294   4.471   3.522   0.326
17351WAT     H152295   4.407   3.597   0.343
17351WAT     H252296   4.461   3.491   0.231
17352WAT      O52297   8.348   8.031   1.737
17352WAT     H152298   8.374   7.934   1.737
17352WAT     H252299   8.317   8.057   1.829
17353WAT      O52300   2.875   1.656   2.813
17353WAT     H152301   2.875   1.568   2.765
17353WAT     H252302   2.861   1.730   2.747
17354WAT      O52303   1.939   5.062   9.812
17354WAT     H152304   1.958   4.965   9.799
17354WAT     H252305   1.853   5.074   9.861
17355WAT      O52306   9.555   1.782   7.356
17355WAT     H152307   9.465   1.751   7.324
17355WAT     H252308   9.572   1.745   7.448
17356WAT      O52309   0.830   3.829   1.695
17356WAT     H152310   0.791   3.921   1.698
17356WAT     H252311   0.791   3.778   1.619
17357WAT      O52312   0.359   2.242   1.222
17357WAT     H152313   0.366   2.147   1.251
17357WAT     H252314   0.278   2.284   1.263
17358WAT      O52315   3.703   0.635   8.603
17358WAT     H152316   3.694   0.661   8.507
17358WAT     H252317   3.648   0.697   8.660
17359WAT      O52318   5.577   9.178   4.196
17359WAT     H152319   5.633   9.114   4.144
17359WAT     H252320   5.579   9.154   4.293
17360WAT      O52321   1.594   4.975   1.083
17360WAT     H152322   1.517   5.021   1.040
17360WAT     H252323   1.570   4.949   1.177
17361WAT      O52324   4.357   2.142   3.534
17361WAT     H152325   4.363   2.179   3.441
17361WAT     H252326   4.267   2.161   3.572
17362WAT      O52327   3.905   1.901   6.586
17362WAT     H152328   3.885   1.991   6.548
17362WAT     H252329   3.903   1.905   6.685
17363WAT      O52330   8.962   4.320   7.168
17363WAT     H152331   8.913   4.306   7.082
17363WAT     H252332   9.059   4.333   7.150
17364WAT      O52333   2.876   9.200   3.524
17364WAT     H152334   2.892   9.156   3.436
17364WAT     H252335   2.783   9.181   3.555
17365WAT      O52336   3.821   8.596   1.304
17365WAT     H152337   3.724   8.611   1.289
17365WAT     H252338   3.842   8.606   1.401
17366WAT      O52339   8.155   2.781   7.449
17366WAT     H152340   8.155   2.705   7.383
17366WAT     H252341   8.061   2.796   7.482
17367WAT      O52342   4.033   3.948   9.673
17367WAT     H152343   3.938   3.938   9.644
17367WAT     H252344   4.079   4.014   9.614
17368WAT      O52345   1.621   5.368   4.740
17368WAT     H152346   1.534   5.389   4.785
17368WAT     H252347   1.679   5.316   4.803
17369WAT      O52348   1.650   9.237   8.481
17369WAT     H152349   1.572   9.255   8.421
17369WAT     H252350   1.716   9.311   8.474
17370WAT      O52351   7.596   4.709   9.450
17370WAT     H152352   7.622   4.613   9.435
17370WAT     H252353   7.561   4.720   9.543
17371WAT      O52354   8.090   0.296   7.215
17371WAT     H152355   8.033   0.227   7.260
17371WAT     H252356   8.047   0.386   7.225
17372WAT      O52357   5.733   8.026   3.076
17372WAT     H152358   5.822   8.044   3.118
17372WAT     H252359   5.663   8.016   3.146
17373WAT      O52360   3.311   5.809   7.182
17373WAT     H152361   3.300   5.710   7.180
17373WAT     H252362   3.247   5.848   7.248
17374WAT      O52363   8.907   9.020   9.136
17374WAT     H152364   8.948   9.101   9.094
17374WAT     H252365   8.858   9.046   9.219
17375WAT      O52366   0.876   5.229   0.732
17375WAT     H152367   0.886   5.147   0.675
17375WAT     H252368   0.927   5.305   0.691
17376WAT      O52369   0.323   8.525   1.641
17376WAT     H152370   0.314   8.622   1.620
17376WAT     H252371   0.419   8.502   1.652
17377WAT      O52372   7.858   7.331   4.045
17377WAT     H152373   7.762   7.359   4.037
17377WAT     H252374   7.914   7.412   4.064
17378WAT      O52375   8.769   2.906   8.365
17378WAT     H152376   8.842   2.931   8.302
17378WAT     H252377   8.680   2.925   8.324
17379WAT      O52378   4.618   0.693   9.554
17379WAT     H152379   4.712   0.712   9.582
17379WAT     H252380   4.581   0.772   9.506
17380WAT      O52381   0.792   5.280   8.389
17380WAT     H152382   0.788   5.380   8.400
17380WAT     H252383   0.864   5.244   8.448
17381WAT      O52384   8.381   6.287   8.648
17381WAT     H152385   8.424   6.283   8.557
17381WAT     H252386   8.452   6.283   8.718
17382WAT      O52387   7.639   3.946   1.444
17382WAT     H152388   7.607   4.026   1.393
17382WAT     H252389   7.647   3.968   1.541
17383WAT      O52390   4.331   1.754   5.028
17383WAT     H152391   4.404   1.714   5.083
17383WAT     H252392   4.243   1.745   5.076
17384WAT      O52393   8.624   6.470   1.284
17384WAT     H152394   8.547   6.464   1.221
17384WAT     H252395   8.592   6.504   1.372
17385WAT      O52396   8.872   1.861   4.199
17385WAT     H152397   8.948   1.924   4.216
17385WAT     H252398   8.851   1.860   4.101
17386WAT      O52399   1.549   7.468   1.434
17386WAT     H152400   1.525   7.439   1.526
17386WAT     H252401   1.522   7.563   1.421
17387WAT      O52402   9.114   1.082   7.182
17387WAT     H152403   9.083   1.004   7.236
17387WAT     H252404   9.213   1.094   7.193
17388WAT      O52405   1.794   6.400   1.671
17388WAT     H152406   1.894   6.411   1.666
17388WAT     H252407   1.764   6.417   1.765
17389WAT      O52408   3.993   4.078   5.996
17389WAT     H152409   3.914   4.037   6.041
17389WAT     H252410   4.059   4.108   6.065
17390WAT      O52411   7.203   6.527   7.346
17390WAT     H152412   7.134   6.594   7.373
17390WAT     H252413   7.186   6.441   7.395
17391WAT      O52414   2.191   4.381   6.224
17391WAT     H152415   2.253   4.339   6.158
17391WAT     H252416   2.123   4.435   6.175
17392WAT      O52417   4.656   1.561   9.364
17392WAT     H152418   4.708   1.608   9.294
17392WAT     H252419   4.632   1.625   9.437
17393WAT      O52420   6.008   8.432   8.668
17393WAT     H152421   6.015   8.333   8.661
17393WAT     H252422   5.963   8.457   8.754
17394WAT      O52423   1.939   8.179   6.288
17394WAT     H152424   2.002   8.167   6.211
17394WAT     H252425   1.953   8.269   6.330
17395WAT      O52426   4.651   8.351   1.410
17395WAT     H152427   4.630   8.264   1.455
17395WAT     H252428   4.567   8.400   1.391
17396WAT      O52429   3.956   8.113   9.119
17396WAT     H152430   3.962   8.027   9.068
17396WAT     H252431   4.016   8.108   9.199
17397WAT      O52432   7.944   1.809   0.307
17397WAT     H152433   8.030   1.774   0.345
17397WAT     H252434   7.959   1.838   0.213
17398WAT      O52435   7.374   1.182   1.218
17398WAT     H152436   7.389   1.089   1.251
17398WAT     H252437   7.462   1.230   1.213
17399WAT      O52438   0.974   4.624   9.597
17399WAT     H152439   0.878   4.646   9.584
17399WAT     H252440   0.997   4.541   9.546
17400WAT      O52441   8.318   2.163   7.250
17400WAT     H152442   8.344   2.260   7.257
17400WAT     H252443   8.394   2.106   7.281
17401WAT      O52444   0.710   9.084   4.025
17401WAT     H152445   0.619   9.043   4.022
17401WAT     H252446   0.705   9.174   4.068
17402WAT      O52447   2.485   2.910   5.044
17402WAT     H152448   2.477   2.942   5.139
17402WAT     H252449   2.452   2.981   4.982
17403WAT      O52450   2.461   0.334   0.356
17403WAT     H152451   2.402   0.351   0.277
17403WAT     H252452   2.483   0.237   0.361
17404WAT      O52453   8.595   7.922   5.848
17404WAT     H152454   8.679   7.934   5.796
17404WAT     H252455   8.618   7.886   5.939
17405WAT      O52456   2.898   0.506   5.849
17405WAT     H152457   2.883   0.497   5.751
17405WAT     H252458   2.822   0.464   5.899
17406WAT      O52459   4.262   6.243   4.952
17406WAT     H152460   4.292   6.267   5.045
17406WAT     H252461   4.323   6.287   4.886
17407WAT      O52462   6.005   8.371   0.835
17407WAT     H152463   6.065   8.292   0.841
17407WAT     H252464   5.923   8.355   0.891
17408WAT      O52465   1.111   5.657   5.301
17408WAT     H152466   1.150   5.734   5.251
17408WAT     H252467   1.044   5.691   5.368
17409WAT      O52468   2.037   1.152   0.707
17409WAT     H152469   2.074   1.093   0.635
17409WAT     H252470   1.971   1.099   0.762
17410WAT      O52471   7.905   8.893   2.244
17410WAT     H152472   7.840   8.964   2.215
17410WAT     H252473   7.987   8.937   2.280
17411WAT      O52474   5.719   6.874   2.155
17411WAT     H152475   5.791   6.935   2.122
17411WAT     H252476   5.761   6.800   2.208
17412WAT      O52477   5.697   8.216   6.610
17412WAT     H152478   5.785   8.263   6.604
17412WAT     H252479   5.707   8.133   6.664
17413WAT      O52480   4.301   0.129   7.781
17413WAT     H152481   4.358   0.121   7.700
17413WAT     H252482   4.342   0.195   7.844
17414WAT      O52483   5.926   5.850   9.022
17414WAT     H152484   5.966   5.900   8.946
17414WAT     H252485   5.840   5.808   8.993
17415WAT      O52486   4.935   0.229   7.711
17415WAT     H152487   4.879   0.241   7.793
17415WAT     H252488   5.032   0.242   7.734
17416WAT      O52489   0.892   9.669   9.835
17416WAT     H152490   0.822   9.681   9.764
17416WAT     H252491   0.860   9.710   9.920
17417WAT      O52492   5.443   9.417   9.240
17417WAT     H152493   5.397   9.381   9.159
17417WAT     H252494   5.419   9.513   9.252
17418WAT      O52495   2.448   7.768   7.796
17418WAT     H152496   2.497   7.818   7.868
17418WAT     H252497   2.436   7.828   7.716
17419WAT      O52498   3.303   7.753   8.939
17419WAT     H152499   3.307   7.685   9.012
17419WAT     H252500   3.328   7.843   8.975
17420WAT      O52501   5.833   3.326   4.724
17420WAT     H152502   5.878   3.405   4.766
17420WAT     H252503   5.861   3.243   4.773
17421WAT      O52504   4.187   4.920   3.052
17421WAT     H152505   4.099   4.917   3.100
17421WAT     H252506   4.197   4.838   2.997
17422WAT      O52507   6.647   6.225   0.655
17422WAT     H152508   6.741   6.194   0.669
17422WAT     H252509   6.589   6.146   0.635
17423WAT      O52510   8.673   2.850   7.748
17423WAT     H152511   8.726   2.914   7.803
17423WAT     H252512   8.610   2.901   7.689
17424WAT      O52513   8.066   3.389   0.902
17424WAT     H152514   7.998   3.453   0.939
17424WAT     H252515   8.037   3.358   0.812
17425WAT      O52516   5.782   0.882   4.450
17425WAT     H152517   5.747   0.934   4.528
17425WAT     H252518   5.747   0.788   4.454
17426WAT      O52519   5.098   9.480   6.715
17426WAT     H152520   5.145   9.539   6.650
17426WAT     H252521   5.118   9.511   6.808
17427WAT      O52522   1.096   3.689   2.644
17427WAT     H152523   1.047   3.697   2.731
17427WAT     H252524   1.153   3.607   2.645
17428WAT      O52525   4.305   1.091   7.936
17428WAT     H152526   4.233   1.035   7.895
17428WAT     H252527   4.338   1.157   7.868
17429WAT      O52528   4.198   1.468   3.769
17429WAT     H152529   4.136   1.424   3.834
17429WAT     H252530   4.274   1.510   3.818
17430WAT      O52531   9.769   9.590   4.239
17430WAT     H152532   9.753   9.504   4.287
17430WAT     H252533   9.729   9.665   4.290
17431WAT      O52534   3.509   5.594   3.347
17431WAT     H152535   3.531   5.629   3.438
17431WAT     H252536   3.410   5.586   3.336
17432WAT      O52537   9.796   9.699   2.453
17432WAT     H152538   9.738   9.652   2.520
17432WAT     H252539   9.810   9.794   2.481
17433WAT      O52540   7.087   6.319   0.904
17433WAT     H152541   7.069   6.397   0.845
17433WAT     H252542   7.184   6.298   0.905
17434WAT      O52543   5.919   6.333   9.089
17434WAT     H152544   5.881   6.418   9.126
17434WAT     H252545   5.977   6.289   9.158
17435WAT      O52546   0.218   4.808   1.879
17435WAT     H152547   0.211   4.751   1.961
17435WAT     H252548   0.230   4.750   1.799
17436WAT      O52549   2.491   4.803   1.989
17436WAT     H152550   2.574   4.859   1.983
17436WAT     H252551   2.507   4.726   2.051
17437WAT      O52552   7.403   3.598   8.138
17437WAT     H152553   7.405   3.697   8.124
17437WAT     H252554   7.496   3.565   8.155
17438WAT      O52555   6.471   1.566   6.334
17438WAT     H152556   6.473   1.633   6.408
17438WAT     H252557   6.404   1.595   6.265
17439WAT      O52558   5.794   3.636   0.434
17439WAT     H152559   5.811   3.539   0.451
17439WAT     H252560   5.715   3.666   0.488
17440WAT      O52561   4.742   7.049   1.441
17440WAT     H152562   4.790   7.078   1.524
17440WAT     H252563   4.735   6.949   1.441
17441WAT      O52564   6.755   3.324   6.231
17441WAT     H152565   6.804   3.391   6.175
17441WAT     H252566   6.728   3.367   6.317
17442WAT      O52567   7.363   2.768   3.835
17442WAT     H152568   7.374   2.694   3.901
17442WAT     H252569   7.424   2.844   3.860
17443WAT      O52570   9.130   6.148   2.910
17443WAT     H152571   9.148   6.173   2.815
17443WAT     H252572   9.039   6.180   2.936
17444WAT      O52573   8.538   7.786   4.989
17444WAT     H152574   8.572   7.704   5.034
17444WAT     H252575   8.438   7.790   4.997
17445WAT      O52576   1.922   8.671   2.266
17445WAT     H152577   1.944   8.585   2.220
17445WAT     H252578   2.007   8.713   2.300
17446WAT      O52579   2.555   1.333   0.080
17446WAT     H152580   2.514   1.399   0.017
17446WAT     H252581   2.637   1.294   0.038
17447WAT      O52582   0.500   0.790   9.159
17447WAT     H152583   0.575   0.851   9.184
17447WAT     H252584   0.452   0.760   9.241
17448WAT      O52585   5.471   0.697   9.861
17448WAT     H152586   5.470   0.730   9.955
17448WAT     H252587   5.557   0.649   9.843
17449WAT      O52588   2.358   8.116   7.401
17449WAT     H152589   2.340   8.064   7.318
17449WAT     H252590   2.395   8.056   7.472
17450WAT      O52591   0.084   5.172   1.061
17450WAT     H152592   0.013   5.198   1.125
17450WAT     H252593   0.174   5.187   1.102
17451WAT      O52594   1.201   3.335   1.835
17451WAT     H152595   1.283   3.350   1.890
17451WAT     H252596   1.120   3.340   1.893
17452WAT      O52597   4.376   7.757   0.791
17452WAT     H152598   4.459   7.778   0.739
17452WAT     H252599   4.401   7.706   0.873
17453WAT      O52600   2.053   5.985   7.885
17453WAT     H152601   2.001   6.063   7.850
17453WAT     H252602   2.137   5.975   7.832
17454WAT      O52603   3.835   1.539   2.779
17454WAT     H152604   3.924   1.494   2.778
17454WAT     H252605   3.830   1.602   2.857
17455WAT      O52606   8.236   5.893   8.772
17455WAT     H152607   8.281   5.982   8.768
17455WAT     H252608   8.209   5.872   8.866
17456WAT      O52609   7.259   1.321   3.128
17456WAT     H152610   7.281   1.224   3.143
17456WAT     H252611   7.339   1.367   3.090
17457WAT      O52612   7.672   9.099   8.636
17457WAT     H152613   7.718   9.135   8.555
17457WAT     H252614   7.697   9.153   8.716
17458WAT      O52615   6.967   3.488   6.989
17458WAT     H152616   6.973   3.526   6.897
17458WAT     H252617   7.055   3.447   7.014
17459WAT      O52618   5.242   2.966   4.220
17459WAT     H152619   5.318   2.912   4.184
17459WAT     H252620   5.224   2.939   4.315
17460WAT      O52621   6.520   0.700   2.948
17460WAT     H152622   6.533   0.612   2.993
17460WAT     H252623   6.505   0.771   3.017
17461WAT      O52624   2.571   1.341   5.117
17461WAT     H152625   2.646   1.406   5.134
17461WAT     H252626   2.566   1.277   5.193
17462WAT      O52627   7.359   0.622   5.456
17462WAT     H152628   7.339   0.656   5.547
17462WAT     H252629   7.323   0.686   5.388
17463WAT      O52630   7.779   3.279   8.657
17463WAT     H152631   7.762   3.302   8.752
17463WAT     H252632   7.869   3.311   8.629
17464WAT      O52633   0.823   4.686   5.237
17464WAT     H152634   0.915   4.654   5.212
17464WAT     H252635   0.786   4.743   5.164
17465WAT      O52636   8.900   2.931   7.052
17465WAT     H152637   8.935   2.953   7.143
17465WAT     H252638   8.958   2.974   6.983
17466WAT      O52639   1.770   3.049   4.368
17466WAT     H152640   1.769   2.966   4.424
17466WAT     H252641   1.859   3.094   4.376
17467WAT      O52642   7.736   9.259   6.677
17467WAT     H152643   7.643   9.283   6.648
17467WAT     H252644   7.732   9.212   6.765
17468WAT      O52645   1.509   3.697   2.658
17468WAT     H152646   1.439   3.767   2.673
17468WAT     H252647   1.497   3.657   2.568
17469WAT      O52648   3.584   9.583   0.843
17469WAT     H152649   3.571   9.485   0.828
17469WAT     H252650   3.546   9.634   0.766
17470WAT      O52651   8.102   7.609   8.051
17470WAT     H152652   8.198   7.601   8.078
17470WAT     H252653   8.095   7.611   7.952
17471WAT      O52654   9.067   0.959   7.552
17471WAT     H152655   9.016   0.914   7.478
17471WAT     H252656   9.012   1.033   7.590
17472WAT      O52657   4.293   5.866   5.690
17472WAT     H152658   4.226   5.798   5.662
17472WAT     H252659   4.319   5.922   5.611
17473WAT      O52660   4.484   4.856   2.749
17473WAT     H152661   4.452   4.916   2.822
17473WAT     H252662   4.584   4.851   2.751
17474WAT      O52663   7.187   0.792   2.813
17474WAT     H152664   7.127   0.871   2.828
17474WAT     H252665   7.186   0.734   2.894
17475WAT      O52666   2.758   9.072   1.206
17475WAT     H152667   2.734   9.168   1.221
17475WAT     H252668   2.682   9.013   1.233
17476WAT      O52669   0.970   0.476   6.622
17476WAT     H152670   0.875   0.455   6.598
17476WAT     H252671   1.024   0.485   6.538
17477WAT      O52672   9.592   8.428   3.468
17477WAT     H152673   9.591   8.389   3.376
17477WAT     H252674   9.580   8.356   3.536
17478WAT      O52675   8.843   6.816   7.361
17478WAT     H152676   8.897   6.872   7.423
17478WAT     H252677   8.749   6.850   7.358
17479WAT      O52678   0.105   9.204   3.349
17479WAT     H152679   0.188   9.247   3.314
17479WAT     H252680   0.030   9.270   3.346
17480WAT      O52681   0.118   3.106   6.691
17480WAT     H152682   0.082   3.168   6.621
17480WAT     H252683   0.042   3.063   6.739
17481WAT      O52684   3.141   9.522   0.827
17481WAT     H152685   3.138   9.583   0.747
17481WAT     H252686   3.187   9.437   0.801
17482WAT      O52687   1.611   3.404   3.213
17482WAT     H152688   1.591   3.316   3.169
17482WAT     H252689   1.664   3.389   3.296
17483WAT      O52690   9.769   4.080   3.239
17483WAT     H152691   9.814   4.156   3.287
17483WAT     H252692   9.829   4.047   3.166
17484WAT      O52693   3.344   8.248   1.005
17484WAT     H152694   3.411   8.198   1.060
17484WAT     H252695   3.335   8.342   1.039
17485WAT      O52696   7.818   5.802   6.101
17485WAT     H152697   7.896   5.745   6.074
17485WAT     H252698   7.850   5.894   6.123
17486WAT      O52699   8.812   3.938   7.527
17486WAT     H152700   8.906   3.950   7.559
17486WAT     H252701   8.785   4.018   7.473
17487WAT      O52702   6.636   2.078   6.240
17487WAT     H152703   6.633   2.061   6.142
17487WAT     H252704   6.591   2.165   6.261
17488WAT      O52705   5.861   7.749   3.386
17488WAT     H152706   5.779   7.794   3.423
17488WAT     H252707   5.942   7.792   3.424
17489WAT      O52708   4.941   2.996   4.333
17489WAT     H152709   4.846   3.022   4.316
17489WAT     H252710   4.959   2.906   4.295
17490WAT      O52711   0.651   1.167   0.356
17490WAT     H152712   0.664   1.103   0.280
17490WAT     H252713   0.740   1.189   0.397
17491WAT      O52714   7.599   3.870   3.487
17491WAT     H152715   7.507   3.875   3.525
17491WAT     H252716   7.643   3.959   3.493
17492WAT      O52717   9.573   4.804   9.667
17492WAT     H152718   9.532   4.779   9.579
17492WAT     H252719   9.628   4.886   9.655
17493WAT      O52720   8.813   6.325   3.680
17493WAT     H152721   8.893   6.319   3.738
17493WAT     H252722   8.771   6.415   3.688
17494WAT      O52723   3.500   8.810   7.194
17494WAT     H152724   3.492   8.908   7.210
17494WAT     H252725   3.596   8.787   7.177
17495WAT      O52726   0.974   8.517   4.655
17495WAT     H152727   0.899   8.584   4.658
17495WAT     H252728   1.045   8.549   4.592
17496WAT      O52729   7.071   1.947   1.082
17496WAT     H152730   6.989   1.914   1.036
17496WAT     H252731   7.133   1.988   1.014
17497WAT      O52732   0.654   3.945   8.078
17497WAT     H152733   0.737   3.979   8.122
17497WAT     H252734   0.665   3.848   8.057
17498WAT      O52735   9.832   7.074   0.966
17498WAT     H152736   9.847   7.171   0.948
17498WAT     H252737   9.920   7.029   0.984
17499WAT      O52738   9.209   5.862   0.076
17499WAT     H152739   9.250   5.905  -0.004
17499WAT     H252740   9.278   5.854   0.148
17500WAT      O52741   6.663   4.837   8.165
17500WAT     H152742   6.610   4.895   8.227
17500WAT     H252743   6.760   4.861   8.172
17501WAT      O52744   3.554   0.357   5.941
17501WAT     H152745   3.589   0.428   5.879
17501WAT     H252746   3.472   0.391   5.987
17502WAT      O52747   4.987   0.396   4.669
17502WAT     H152748   4.945   0.320   4.620
17502WAT     H252749   4.957   0.394   4.765
17503WAT      O52750   8.792   8.865   3.480
17503WAT     H152751   8.705   8.912   3.490
17503WAT     H252752   8.793   8.814   3.394
17504WAT      O52753   2.934   5.268   0.529
17504WAT     H152754   2.992   5.187   0.526
17504WAT     H252755   2.838   5.240   0.531
17505WAT      O52756   5.950   0.982   6.354
17505WAT     H152757   5.994   1.021   6.273
17505WAT     H252758   6.000   0.900   6.383
17506WAT      O52759   9.100   2.608   5.517
17506WAT     H152760   9.198   2.612   5.538
17506WAT     H252761   9.087   2.565   5.428
17507WAT      O52762   3.698   2.759   5.104
17507WAT     H152763   3.671   2.767   5.008
17507WAT     H252764   3.657   2.677   5.144
17508WAT      O52765   4.818   4.802   2.305
17508WAT     H152766   4.908   4.772   2.274
17508WAT     H252767   4.807   4.899   2.287
17509WAT      O52768   8.341   7.088   3.439
17509WAT     H152769   8.428   7.133   3.462
17509WAT     H252770   8.267   7.155   3.446
17510WAT      O52771   9.257   4.966   1.717
17510WAT     H152772   9.354   4.955   1.737
17510WAT     H252773   9.235   5.064   1.712
17511WAT      O52774   8.640   1.831   7.202
17511WAT     H152775   8.614   1.917   7.159
17511WAT     H252776   8.734   1.837   7.236
17512WAT      O52777   6.469   1.756   1.143
17512WAT     H152778   6.431   1.819   1.210
17512WAT     H252779   6.398   1.732   1.076
17513WAT      O52780   3.508   4.849   0.543
17513WAT     H152781   3.572   4.796   0.489
17513WAT     H252782   3.558   4.901   0.613
17514WAT      O52783   9.027   8.051   6.343
17514WAT     H152784   8.947   8.110   6.356
17514WAT     H252785   9.080   8.050   6.428
17515WAT      O52786   3.472   6.468   6.831
17515WAT     H152787   3.423   6.388   6.866
17515WAT     H252788   3.570   6.452   6.836
17516WAT      O52789   6.783   0.531   4.245
17516WAT     H152790   6.792   0.613   4.188
17516WAT     H252791   6.696   0.486   4.224
17517WAT      O52792   6.380   9.279   4.586
17517WAT     H152793   6.364   9.371   4.624
17517WAT     H252794   6.474   9.274   4.552
17518WAT      O52795   1.563   7.249   8.179
17518WAT     H152796   1.575   7.281   8.273
17518WAT     H252797   1.634   7.182   8.157
17519WAT      O52798   3.265   1.572   7.761
17519WAT     H152799   3.252   1.667   7.787
17519WAT     H252800   3.179   1.534   7.728
17520WAT      O52801   9.157   5.313   5.381
17520WAT     H152802   9.097   5.390   5.405
17520WAT     H252803   9.241   5.318   5.434
17521WAT      O52804   7.785   1.836   9.398
17521WAT     H152805   7.738   1.821   9.311
17521WAT     H252806   7.832   1.924   9.395
17522WAT      O52807   5.107   5.689   2.621
17522WAT     H152808   5.025   5.717   2.671
17522WAT     H252809   5.176   5.656   2.685
17523WAT      O52810   1.132   2.811   5.283
17523WAT     H152811   1.093   2.903   5.290
17523WAT     H252812   1.212   2.814   5.223
17524WAT      O52813   2.153   5.070   0.530
17524WAT     H152814   2.089   5.099   0.459
17524WAT     H252815   2.246   5.084   0.499
17525WAT      O52816   8.517   4.002   8.413
17525WAT     H152817   8.521   3.959   8.503
17525WAT     H252818   8.505   3.932   8.343
17526WAT      O52819   0.263   6.593   4.401
17526WAT     H152820   0.191   6.524   4.407
17526WAT     H252821   0.230   6.672   4.351
17527WAT      O52822   6.516   5.018   2.069
17527WAT     H152823   6.432   5.011   2.122
17527WAT     H252824   6.574   4.939   2.088
17528WAT      O52825   2.697   8.344   5.576
17528WAT     H152826   2.736   8.267   5.525
17528WAT     H252827   2.631   8.392   5.518
17529WAT      O52828   3.117   6.067   9.117
17529WAT     H152829   3.129   6.079   9.018
17529WAT     H252830   3.113   6.156   9.162
17530WAT      O52831   8.230   9.323   0.959
17530WAT     H152832   8.239   9.322   1.059
17530WAT     H252833   8.295   9.259   0.919
17531WAT      O52834   0.161   1.002   8.397
17531WAT     H152835   0.131   1.002   8.301
17531WAT     H252836   0.093   0.956   8.453
17532WAT      O52837   5.311   4.090   7.527
17532WAT     H152838   5.361   4.004   7.539
17532WAT     H252839   5.369   4.166   7.556
17533WAT      O52840   8.036   8.347   4.278
17533WAT     H152841   7.973   8.315   4.348
17533WAT     H252842   7.992   8.418   4.223
17534WAT      O52843   5.411   5.678   8.525
17534WAT     H152844   5.316   5.708   8.524
17534WAT     H252845   5.423   5.603   8.459
17535WAT      O52846   9.735   5.970   0.047
17535WAT     H152847   9.670   6.013   0.110
17535WAT     H252848   9.756   5.877   0.078
17536WAT      O52849   3.300   3.269   2.551
17536WAT     H152850   3.328   3.330   2.476
17536WAT     H252851   3.214   3.224   2.527
17537WAT      O52852   9.391   4.117   4.886
17537WAT     H152853   9.385   4.149   4.792
17537WAT     H252854   9.480   4.143   4.925
17538WAT      O52855   4.637   2.587   1.085
17538WAT     H152856   4.687   2.536   1.156
17538WAT     H252857   4.548   2.544   1.071
17539WAT      O52858   5.105   7.506   8.779
17539WAT     H152859   5.085   7.573   8.708
17539WAT     H252860   5.092   7.414   8.742
17540WAT      O52861   5.190   3.688   3.316
17540WAT     H152862   5.148   3.749   3.248
17540WAT     H252863   5.259   3.631   3.272
17541WAT      O52864   7.988   1.254   9.761
17541WAT     H152865   7.993   1.206   9.848
17541WAT     H252866   7.948   1.195   9.692
17542WAT      O52867   1.106   5.379   7.315
17542WAT     H152868   1.138   5.311   7.248
17542WAT     H252869   1.006   5.379   7.317
17543WAT      O52870   9.292   3.989   6.784
17543WAT     H152871   9.204   4.030   6.763
17543WAT     H252872   9.322   3.933   6.706
17544WAT      O52873   2.922   6.661   1.010
17544WAT     H152874   2.854   6.642   0.939
17544WAT     H252875   3.014   6.655   0.970
17545WAT      O52876   4.075   6.459   9.415
17545WAT     H152877   4.146   6.404   9.458
17545WAT     H252878   3.996   6.465   9.476
17546WAT      O52879   6.945   2.416   0.119
17546WAT     H152880   6.845   2.415   0.126
17546WAT     H252881   6.986   2.413   0.210
17547WAT      O52882   6.388   5.564   6.514
17547WAT     H152883   6.394   5.638   6.580
17547WAT     H252884   6.398   5.601   6.421
17548WAT      O52885   9.326   7.622   7.889
17548WAT     H152886   9.387   7.694   7.925
17548WAT     H252887   9.277   7.580   7.965
17549WAT      O52888   3.697   1.520   3.809
17549WAT     H152889   3.650   1.437   3.778
17549WAT     H252890   3.637   1.599   3.797
17550WAT      O52891   1.816   4.081   4.456
17550WAT     H152892   1.790   4.011   4.389
17550WAT     H252893   1.837   4.037   4.543
17551WAT      O52894   2.953   7.409   3.772
17551WAT     H152895   2.935   7.502   3.739
17551WAT     H252896   2.923   7.401   3.868
17552WAT      O52897   1.795   6.600   8.873
17552WAT     H152898   1.794   6.519   8.931
17552WAT     H252899   1.752   6.578   8.785
17553WAT      O52900   5.347   5.384   2.302
17553WAT     H152901   5.362   5.362   2.399
17553WAT     H252902   5.435   5.383   2.254
17554WAT      O52903   1.973   2.161   7.643
17554WAT     H152904   1.915   2.192   7.718
17554WAT     H252905   2.070   2.171   7.669
17555WAT      O52906   0.212   6.474   6.615
17555WAT     H152907   0.185   6.410   6.543
17555WAT     H252908   0.161   6.559   6.605
17556WAT      O52909   7.774   0.877   0.896
17556WAT     H152910   7.720   0.961   0.902
17556WAT     H252911   7.724   0.808   0.845
17557WAT      O52912   8.420   9.276   7.050
17557WAT     H152913   8.360   9.242   7.122
17557WAT     H252914   8.400   9.228   6.965
17558WAT      O52915   0.836   2.109   1.758
17558WAT     H152916   0.905   2.151   1.818
17558WAT     H252917   0.802   2.177   1.693
17559WAT      O52918   9.451   5.832   2.075
17559WAT     H152919   9.430   5.809   1.980
17559WAT     H252920   9.461   5.931   2.084
17560WAT      O52921   7.828   9.410   6.011
17560WAT     H152922   7.809   9.377   5.919
17560WAT     H252923   7.834   9.510   6.010
17561WAT      O52924   1.276   5.916   9.391
17561WAT     H152925   1.195   5.973   9.376
17561WAT     H252926   1.288   5.855   9.313
17562WAT      O52927   5.751   8.676   6.628
17562WAT     H152928   5.842   8.651   6.594
17562WAT     H252929   5.695   8.707   6.552
17563WAT      O52930   6.345   8.153   6.266
17563WAT     H152931   6.272   8.127   6.329
17563WAT     H252932   6.431   8.111   6.296
17564WAT      O52933   3.390   1.892   3.585
17564WAT     H152934   3.334   1.849   3.514
17564WAT     H252935   3.369   1.851   3.674
17565WAT      O52936   7.088   6.165   5.991
17565WAT     H152937   7.184   6.138   5.981
17565WAT     H252938   7.072   6.197   6.084
17566WAT      O52939   4.810   6.719   1.855
17566WAT     H152940   4.789   6.624   1.877
17566WAT     H252941   4.804   6.775   1.937
17567WAT      O52942   5.721   6.410   4.465
17567WAT     H152943   5.637   6.403   4.520
17567WAT     H252944   5.762   6.500   4.480
17568WAT      O52945   4.865   3.975   7.022
17568WAT     H152946   4.823   3.901   7.074
17568WAT     H252947   4.796   4.044   6.999
17569WAT      O52948   5.833   1.774   1.613
17569WAT     H152949   5.764   1.734   1.674
17569WAT     H252950   5.867   1.859   1.653
17570WAT      O52951   6.592   4.856   2.416
17570WAT     H152952   6.648   4.936   2.393
17570WAT     H252953   6.499   4.886   2.436
17571WAT      O52954   1.369   7.951   6.754
17571WAT     H152955   1.464   7.940   6.725
17571WAT     H252956   1.365   7.951   6.854
17572WAT      O52957   5.205   2.085   7.610
17572WAT     H152958   5.118   2.123   7.577
17572WAT     H252959   5.244   2.026   7.539
17573WAT      O52960   1.974   4.296   8.961
17573WAT     H152961   1.988   4.275   9.057
17573WAT     H252962   1.930   4.218   8.916
17574WAT      O52963   1.157   8.621   9.067
17574WAT     H152964   1.200   8.682   9.134
17574WAT     H252965   1.227   8.583   9.007
17575WAT      O52966   9.753   8.496   2.670
17575WAT     H152967   9.827   8.485   2.604
17575WAT     H252968   9.716   8.589   2.665
17576WAT      O52969   6.949   7.849   1.199
17576WAT     H152970   7.023   7.859   1.133
17576WAT     H252971   6.978   7.887   1.288
17577WAT      O52972   0.459   3.398   5.763
17577WAT     H152973   0.394   3.404   5.839
17577WAT     H252974   0.551   3.383   5.800
17578WAT      O52975   6.264   6.504   8.881
17578WAT     H152976   6.268   6.506   8.981
17578WAT     H252977   6.218   6.421   8.852
17579WAT      O52978   7.969   5.598   7.566
17579WAT     H152979   8.012   5.604   7.476
17579WAT     H252980   7.870   5.593   7.555
17580WAT      O52981   4.902   9.688   7.745
17580WAT     H152982   4.893   9.787   7.733
17580WAT     H252983   4.917   9.645   7.656
17581WAT      O52984   0.016   4.495   9.481
17581WAT     H152985   0.042   4.429   9.411
17581WAT     H252986  -0.051   4.560   9.443
17582WAT      O52987   1.935   6.598   6.570
17582WAT     H152988   1.947   6.617   6.473
17582WAT     H252989   1.955   6.502   6.588
17583WAT      O52990   9.893   0.475   5.411
17583WAT     H152991   9.864   0.556   5.360
17583WAT     H252992   9.819   0.446   5.472
17584WAT      O52993   0.242   5.561   1.884
17584WAT     H152994   0.280   5.576   1.792
17584WAT     H252995   0.242   5.647   1.934
17585WAT      O52996   3.624   6.478   2.939
17585WAT     H152997   3.636   6.448   2.845
17585WAT     H252998   3.683   6.426   3.000
17586WAT      O52999   6.067   3.904   4.973
17586WAT     H153000   6.127   3.839   5.019
17586WAT     H253001   5.976   3.902   5.016
17587WAT      O53002   2.767   4.696   3.956
17587WAT     H153003   2.676   4.715   3.918
17587WAT     H253004   2.768   4.722   4.053
17588WAT      O53005   7.402   7.397   2.330
17588WAT     H153006   7.333   7.407   2.402
17588WAT     H253007   7.480   7.456   2.351
17589WAT      O53008   3.470   0.430   8.006
17589WAT     H153009   3.388   0.475   8.042
17589WAT     H253010   3.482   0.455   7.910
17590WAT      O53011   4.414   3.055   8.881
17590WAT     H153012   4.377   2.974   8.928
17590WAT     H253013   4.364   3.136   8.909
17591WAT      O53014   5.102   0.559   3.073
17591WAT     H153015   5.115   0.534   3.169
17591WAT     H253016   5.075   0.478   3.021
17592WAT      O53017   8.491   2.035   7.864
17592WAT     H153018   8.524   1.985   7.943
17592WAT     H253019   8.418   2.097   7.891
17593WAT      O53020   6.481   3.729   3.725
17593WAT     H153021   6.479   3.654   3.660
17593WAT     H253022   6.430   3.703   3.807
17594WAT      O53023   9.020   2.259   6.048
17594WAT     H153024   9.057   2.340   6.094
17594WAT     H253025   9.052   2.176   6.095
17595WAT      O53026   4.057   9.109   3.755
17595WAT     H153027   4.100   9.181   3.701
17595WAT     H253028   4.016   9.148   3.837
17596WAT      O53029   3.162   5.038   4.286
17596WAT     H153030   3.170   5.094   4.204
17596WAT     H253031   3.212   5.081   4.361
17597WAT      O53032   3.166   6.128   6.808
17597WAT     H153033   3.135   6.150   6.715
17597WAT     H253034   3.177   6.029   6.816
17598WAT      O53035   9.345   8.308   9.265
17598WAT     H153036   9.349   8.216   9.226
17598WAT     H253037   9.300   8.370   9.200
17599WAT      O53038   1.474   2.157   0.531
17599WAT     H153039   1.561   2.205   0.545
17599WAT     H253040   1.435   2.132   0.620
17600WAT      O53041   5.516   2.225   9.402
17600WAT     H153042   5.466   2.292   9.347
17600WAT     H253043   5.451   2.163   9.446
17601WAT      O53044   9.636   0.411   4.290
17601WAT     H153045   9.656   0.317   4.263
17601WAT     H253046   9.718   0.453   4.329
17602WAT      O53047   4.096   2.721   5.441
17602WAT     H153048   4.140   2.644   5.396
17602WAT     H253049   4.148   2.805   5.422
17603WAT      O53050   9.671   8.873   5.326
17603WAT     H153051   9.638   8.843   5.237
17603WAT     H253052   9.640   8.967   5.343
17604WAT      O53053   1.780   9.046   0.005
17604WAT     H153054   1.769   8.947   0.013
17604WAT     H253055   1.737   9.077  -0.079
17605WAT      O53056   4.937   6.794   9.011
17605WAT     H153057   4.838   6.793   9.000
17605WAT     H253058   4.981   6.773   8.923
17606WAT      O53059   0.331   2.017   9.128
17606WAT     H153060   0.426   2.043   9.108
17606WAT     H253061   0.298   2.068   9.207
17607WAT      O53062   1.651   4.725   8.559
17607WAT     H153063   1.566   4.713   8.507
17607WAT     H253064   1.710   4.791   8.511
17608WAT      O53065   8.455   1.422   1.847
17608WAT     H153066   8.449   1.373   1.760
17608WAT     H253067   8.397   1.504   1.843
17609WAT      O53068   9.808   6.700   4.994
17609WAT     H153069   9.711   6.709   4.974
17609WAT     H253070   9.861   6.714   4.911
17610WAT      O53071   5.191   5.450   6.333
17610WAT     H153072   5.290   5.439   6.330
17610WAT     H253073   5.149   5.363   6.358
17611WAT      O53074   6.307   0.339   5.175
17611WAT     H153075   6.289   0.243   5.157
17611WAT     H253076   6.301   0.357   5.273
17612WAT      O53077   9.594   0.382   8.974
17612WAT     H153078   9.524   0.341   9.033
17612WAT     H253079   9.570   0.477   8.955
17613WAT      O53080   0.793   4.881   7.080
17613WAT     H153081   0.700   4.852   7.056
17613WAT     H253082   0.806   4.875   7.179
17614WAT      O53083   5.052   9.441   9.620
17614WAT     H153084   5.117   9.374   9.656
17614WAT     H253085   5.046   9.431   9.521
17615WAT      O53086   6.022   5.503   9.884
17615WAT     H153087   6.046   5.515   9.788
17615WAT     H253088   6.005   5.406   9.903
17616WAT      O53089   4.925   0.567   7.195
17616WAT     H153090   4.882   0.625   7.264
17616WAT     H253091   4.942   0.476   7.234
17617WAT      O53092   1.199   2.667   5.047
17617WAT     H153093   1.139   2.735   5.005
17617WAT     H253094   1.181   2.663   5.145
17618WAT      O53095   1.718   9.568   1.249
17618WAT     H153096   1.656   9.597   1.322
17618WAT     H253097   1.666   9.544   1.168
17619WAT      O53098   0.731   8.686   9.056
17619WAT     H153099   0.654   8.643   9.010
17619WAT     H253100   0.802   8.709   8.989
17620WAT      O53101   8.145   2.811   6.626
17620WAT     H153102   8.151   2.908   6.647
17620WAT     H253103   8.218   2.786   6.562
17621WAT      O53104   8.903   3.017   9.881
17621WAT     H153105   8.922   3.042   9.786
17621WAT     H253106   8.846   2.935   9.883
17622WAT      O53107   5.480   7.677   4.006
17622WAT     H153108   5.447   7.763   3.970
17622WAT     H253109   5.475   7.678   4.106
17623WAT      O53110   5.080   5.356   8.810
17623WAT     H153111   5.044   5.295   8.740
17623WAT     H253112   5.161   5.404   8.775
17624WAT      O53113   7.048   5.600   8.310
17624WAT     H153114   7.147   5.606   8.318
17624WAT     H253115   7.024   5.579   8.215
17625WAT      O53116   8.523   5.569   8.472
17625WAT     H153117   8.580   5.503   8.423
17625WAT     H253118   8.456   5.608   8.410
17626WAT      O53119   4.976   5.409   7.445
17626WAT     H153120   4.902   5.360   7.399
17626WAT     H253121   5.060   5.355   7.440
17627WAT      O53122   7.708   8.687   4.832
17627WAT     H153123   7.629   8.746   4.848
17627WAT     H253124   7.714   8.618   4.905
17628WAT      O53125   2.314   0.153   9.424
17628WAT     H153126   2.226   0.108   9.411
17628WAT     H253127   2.380   0.118   9.358
17629WAT      O53128   1.343   6.360   0.570
17629WAT     H153129   1.304   6.331   0.483
17629WAT     H253130   1.376   6.455   0.562
17630WAT      O53131   4.884   3.668   9.679
17630WAT     H153132   4.860   3.630   9.590
17630WAT     H253133   4.803   3.667   9.738
17631WAT      O53134   7.945   8.376   3.537
17631WAT     H153135   7.896   8.442   3.479
17631WAT     H253136   7.941   8.406   3.632
17632WAT      O53137   7.002   2.453   8.779
17632WAT     H153138   7.034   2.431   8.687
17632WAT     H253139   6.964   2.546   8.779
17633WAT      O53140   5.544   3.527   5.378
17633WAT     H153141   5.602   3.453   5.413
17633WAT     H253142   5.449   3.495   5.375
17634WAT      O53143   4.786   6.094   5.418
17634WAT     H153144   4.711   6.081   5.483
17634WAT     H253145   4.783   6.188   5.384
17635WAT      O53146   3.929   7.195   4.086
17635WAT     H153147   4.028   7.180   4.092
17635WAT     H253148   3.911   7.261   4.013
17636WAT      O53149   4.346   3.181   5.578
17636WAT     H153150   4.263   3.199   5.632
17636WAT     H253151   4.323   3.181   5.481
17637WAT      O53152   5.571   0.584   1.634
17637WAT     H153153   5.502   0.513   1.623
17637WAT     H253154   5.571   0.644   1.555
17638WAT      O53155   8.229   6.358   7.521
17638WAT     H153156   8.139   6.401   7.524
17638WAT     H253157   8.237   6.290   7.594
17639WAT      O53158   2.421   4.005   2.159
17639WAT     H153159   2.515   4.039   2.160
17639WAT     H253160   2.421   3.910   2.191
17640WAT      O53161   0.473   9.110   5.294
17640WAT     H153162   0.396   9.057   5.257
17640WAT     H253163   0.454   9.134   5.389
17641WAT      O53164   7.310   4.682   0.007
17641WAT     H153165   7.397   4.707   0.050
17641WAT     H253166   7.234   4.711   0.065
17642WAT      O53167   4.219   5.834   9.145
17642WAT     H153168   4.318   5.834   9.156
17642WAT     H253169   4.177   5.779   9.218
17643WAT      O53170   2.921   7.728   3.162
17643WAT     H153171   2.847   7.770   3.108
17643WAT     H253172   2.914   7.757   3.257
17644WAT      O53173   8.415   1.721   4.816
17644WAT     H153174   8.409   1.809   4.767
17644WAT     H253175   8.491   1.668   4.779
17645WAT      O53176   7.187   7.825   4.969
17645WAT     H153177   7.287   7.819   4.972
17645WAT     H253178   7.150   7.799   5.058
17646WAT      O53179   8.149   5.877   6.313
17646WAT     H153180   8.177   5.949   6.250
17646WAT     H253181   8.167   5.788   6.273
17647WAT      O53182   1.822   8.173   0.210
17647WAT     H153183   1.818   8.251   0.148
17647WAT     H253184   1.729   8.148   0.238
17648WAT      O53185   4.678   7.434   7.647
17648WAT     H153186   4.715   7.439   7.739
17648WAT     H253187   4.727   7.498   7.588
17649WAT      O53188   1.679   3.263   8.703
17649WAT     H153189   1.771   3.228   8.723
17649WAT     H253190   1.638   3.208   8.630
17650WAT      O53191   8.868   2.007   8.403
17650WAT     H153192   8.861   2.089   8.459
17650WAT     H253193   8.964   1.984   8.389
17651WAT      O53194   7.206   6.503   1.916
17651WAT     H153195   7.131   6.469   1.859
17651WAT     H253196   7.171   6.529   2.006
17652WAT      O53197   8.318   6.129   4.782
17652WAT     H153198   8.382   6.064   4.823
17652WAT     H253199   8.235   6.081   4.753
17653WAT      O53200   2.972   3.712   0.884
17653WAT     H153201   2.875   3.688   0.885
17653WAT     H253202   3.010   3.701   0.976
17654WAT      O53203   2.977   4.136   2.267
17654WAT     H153204   3.013   4.094   2.184
17654WAT     H253205   3.027   4.220   2.287
17655WAT      O53206   8.389   6.433   0.047
17655WAT     H153207   8.449   6.381  -0.013
17655WAT     H253208   8.411   6.530   0.041
17656WAT      O53209   3.240   4.951   6.825
17656WAT     H153210   3.319   5.009   6.844
17656WAT     H253211   3.170   5.005   6.778
17657WAT      O53212   6.658   6.773   2.383
17657WAT     H153213   6.666   6.752   2.286
17657WAT     H253214   6.579   6.724   2.421
17658WAT      O53215   3.921   1.123   4.468
17658WAT     H153216   3.918   1.172   4.555
17658WAT     H253217   3.984   1.169   4.406
17659WAT      O53218   1.901   2.455   6.212
17659WAT     H153219   1.977   2.519   6.213
17659WAT     H253220   1.815   2.505   6.203
17660WAT      O53221   1.540   7.788   3.420
17660WAT     H153222   1.492   7.708   3.382
17660WAT     H253223   1.496   7.816   3.505
17661WAT      O53224   0.231   8.247   7.434
17661WAT     H153225   0.219   8.346   7.430
17661WAT     H253226   0.150   8.205   7.474
17662WAT      O53227   2.141   3.994   3.525
17662WAT     H153228   2.060   3.991   3.466
17662WAT     H253229   2.114   4.025   3.616
17663WAT      O53230   6.532   0.352   2.498
17663WAT     H153231   6.441   0.376   2.466
17663WAT     H253232   6.589   0.326   2.420
17664WAT      O53233   7.398   8.307   1.315
17664WAT     H153234   7.480   8.332   1.264
17664WAT     H253235   7.375   8.380   1.379
17665WAT      O53236   4.493   4.732   0.990
17665WAT     H153237   4.586   4.703   1.014
17665WAT     H253238   4.437   4.651   0.972
17666WAT      O53239   0.058   1.090   0.885
17666WAT     H153240   0.119   1.059   0.958
17666WAT     H253241   0.105   1.159   0.830
17667WAT      O53242   0.411   1.080   4.064
17667WAT     H153243   0.347   1.156   4.079
17667WAT     H253244   0.481   1.108   3.998
17668WAT      O53245   2.250   7.746   8.136
17668WAT     H153246   2.242   7.761   8.235
17668WAT     H253247   2.266   7.834   8.091
17669WAT      O53248   7.906   0.955   9.187
17669WAT     H153249   7.907   1.050   9.217
17669WAT     H253250   7.832   0.942   9.120
17670WAT      O53251   2.440   5.470   0.889
17670WAT     H153252   2.416   5.536   0.818
17670WAT     H253253   2.502   5.512   0.955
17671WAT      O53254   4.875   1.922   6.702
17671WAT     H153255   4.858   1.909   6.800
17671WAT     H253256   4.838   1.845   6.651
17672WAT      O53257   5.182   8.886   4.199
17672WAT     H153258   5.217   8.875   4.292
17672WAT     H253259   5.098   8.833   4.188
17673WAT      O53260   1.865   1.511   2.433
17673WAT     H153261   1.771   1.497   2.466
17673WAT     H253262   1.929   1.470   2.497
17674WAT      O53263   6.360   8.735   0.913
17674WAT     H153264   6.431   8.737   0.983
17674WAT     H253265   6.298   8.812   0.927
17675WAT      O53266   1.449   1.313   7.771
17675WAT     H153267   1.509   1.273   7.702
17675WAT     H253268   1.501   1.379   7.826
17676WAT      O53269   7.183   2.284   9.622
17676WAT     H153270   7.109   2.217   9.627
17676WAT     H253271   7.155   2.367   9.670
17677WAT      O53272   1.659   8.760   5.631
17677WAT     H153273   1.575   8.815   5.637
17677WAT     H253274   1.679   8.721   5.721
17678WAT      O53275   6.132   5.577   3.354
17678WAT     H153276   6.060   5.637   3.388
17678WAT     H253277   6.216   5.630   3.340
17679WAT      O53278   6.587   6.789   0.685
17679WAT     H153279   6.534   6.874   0.684
17679WAT     H253280   6.657   6.793   0.613
17680WAT      O53281   5.285   8.284   0.132
17680WAT     H153282   5.247   8.250   0.046
17680WAT     H253283   5.358   8.351   0.112
17681WAT      O53284   2.060   5.955   8.665
17681WAT     H153285   2.111   5.898   8.730
17681WAT     H253286   2.089   5.932   8.572
17682WAT      O53287   7.340   1.436   3.987
17682WAT     H153288   7.435   1.404   3.987
17682WAT     H253289   7.329   1.505   4.059
17683WAT      O53290   0.443   0.703   8.085
17683WAT     H153291   0.420   0.634   8.016
17683WAT     H253292   0.538   0.732   8.073
17684WAT      O53293   8.849   4.312   3.594
17684WAT     H153294   8.873   4.236   3.534
17684WAT     H253295   8.885   4.295   3.686
17685WAT      O53296   3.649   8.940   9.040
17685WAT     H153297   3.710   8.925   8.962
17685WAT     H253298   3.607   8.854   9.067
17686WAT      O53299   6.802   3.629   9.363
17686WAT     H153300   6.846   3.633   9.453
17686WAT     H253301   6.712   3.588   9.371
17687WAT      O53302   1.053   5.992   1.024
17687WAT     H153303   1.144   5.967   1.057
17687WAT     H253304   1.035   6.088   1.045
17688WAT      O53305   1.858   4.210   2.959
17688WAT     H153306   1.809   4.296   2.947
17688WAT     H253307   1.924   4.198   2.886
17689WAT      O53308   5.377   4.396   0.183
17689WAT     H153309   5.320   4.330   0.233
17689WAT     H253310   5.459   4.416   0.236
17690WAT      O53311   1.322   5.595   8.986
17690WAT     H153312   1.301   5.560   9.077
17690WAT     H253313   1.420   5.615   8.980
17691WAT      O53314   8.261   0.905   3.374
17691WAT     H153315   8.292   0.913   3.469
17691WAT     H253316   8.339   0.907   3.313
17692WAT      O53317   2.038   3.351   6.594
17692WAT     H153318   2.062   3.262   6.633
17692WAT     H253319   2.119   3.410   6.594
17693WAT      O53320   6.425   4.231   7.171
17693WAT     H153321   6.491   4.157   7.163
17693WAT     H253322   6.333   4.193   7.177
17694WAT      O53323   8.652   6.199   5.085
17694WAT     H153324   8.687   6.272   5.143
17694WAT     H253325   8.554   6.211   5.072
17695WAT      O53326   8.517   7.978   7.603
17695WAT     H153327   8.548   8.046   7.669
17695WAT     H253328   8.520   8.017   7.511
17696WAT      O53329   8.494   3.355   8.437
17696WAT     H153330   8.530   3.435   8.389
17696WAT     H253331   8.468   3.381   8.530
17697WAT      O53332   5.732   9.060   3.956
17697WAT     H153333   5.781   9.143   3.930
17697WAT     H253334   5.792   9.002   4.011
17698WAT      O53335   7.627   5.910   8.555
17698WAT     H153336   7.612   5.941   8.649
17698WAT     H253337   7.719   5.937   8.526
17699WAT      O53338   3.909   6.304   8.239
17699WAT     H153339   3.906   6.329   8.142
17699WAT     H253340   3.824   6.257   8.264
17700WAT      O53341   8.178   3.058   6.007
17700WAT     H153342   8.222   2.990   6.065
17700WAT     H253343   8.079   3.045   6.010
17701WAT      O53344   2.723   7.826   0.538
17701WAT     H153345   2.725   7.863   0.446
17701WAT     H253346   2.746   7.898   0.604
17702WAT      O53347   2.237   9.510   6.877
17702WAT     H153348   2.329   9.531   6.844
17702WAT     H253349   2.201   9.432   6.825
17703WAT      O53350   7.632   0.396   2.972
17703WAT     H153351   7.661   0.485   2.937
17703WAT     H253352   7.584   0.409   3.059
17704WAT      O53353   3.795   9.501   7.860
17704WAT     H153354   3.699   9.500   7.832
17704WAT     H253355   3.830   9.594   7.858
17705WAT      O53356   2.773   0.143   1.606
17705WAT     H153357   2.842   0.125   1.536
17705WAT     H253358   2.771   0.067   1.671
17706WAT      O53359   7.274   5.567   3.516
17706WAT     H153360   7.193   5.582   3.572
17706WAT     H253361   7.287   5.469   3.500
17707WAT      O53362   9.844   3.625   9.247
17707WAT     H153363   9.781   3.604   9.173
17707WAT     H253364   9.833   3.720   9.275
17708WAT      O53365   5.152   2.441   5.303
17708WAT     H153366   5.083   2.389   5.254
17708WAT     H253367   5.161   2.405   5.396
17709WAT      O53368   3.549   3.222   9.700
17709WAT     H153369   3.622   3.161   9.729
17709WAT     H253370   3.523   3.282   9.776
17710WAT      O53371   8.920   1.848   2.506
17710WAT     H153372   8.948   1.943   2.493
17710WAT     H253373   9.000   1.789   2.504
17711WAT      O53374   3.664   1.594   8.692
17711WAT     H153375   3.604   1.660   8.738
17711WAT     H253376   3.758   1.607   8.723
17712WAT      O53377   2.156   0.677   4.572
17712WAT     H153378   2.158   0.747   4.501
17712WAT     H253379   2.214   0.600   4.546
17713WAT      O53380   4.769   2.779   8.908
17713WAT     H153381   4.817   2.716   8.968
17713WAT     H253382   4.835   2.829   8.851
17714WAT      O53383   6.530   5.991   2.752
17714WAT     H153384   6.439   5.967   2.719
17714WAT     H253385   6.574   6.053   2.686
17715WAT      O53386   7.321   1.182   5.565
17715WAT     H153387   7.365   1.123   5.498
17715WAT     H253388   7.357   1.275   5.557
17716WAT      O53389   7.316   7.099   9.469
17716WAT     H153390   7.309   7.143   9.559
17716WAT     H253391   7.265   7.013   9.470
17717WAT      O53392   8.319   0.411   7.316
17717WAT     H153393   8.338   0.486   7.253
17717WAT     H253394   8.236   0.363   7.288
17718WAT      O53395   4.314   0.099   9.247
17718WAT     H153396   4.283   0.066   9.158
17718WAT     H253397   4.253   0.172   9.279
17719WAT      O53398   3.977   8.129   1.770
17719WAT     H153399   3.917   8.189   1.717
17719WAT     H253400   4.060   8.110   1.719
17720WAT      O53401   0.007   4.050   2.622
17720WAT     H153402   0.039   4.022   2.532
17720WAT     H253403  -0.005   3.969   2.680
17721WAT      O53404   3.890   0.297   3.389
17721WAT     H153405   3.913   0.337   3.300
17721WAT     H253406   3.791   0.300   3.402
17722WAT      O53407   4.667   8.796   5.848
17722WAT     H153408   4.615   8.860   5.792
17722WAT     H253409   4.684   8.712   5.797
17723WAT      O53410   5.065   7.879   2.816
17723WAT     H153411   5.034   7.853   2.725
17723WAT     H253412   5.156   7.921   2.809
17724WAT      O53413   4.686   1.451   0.945
17724WAT     H153414   4.728   1.380   0.887
17724WAT     H253415   4.618   1.410   1.005
17725WAT      O53416   0.975   0.386   5.254
17725WAT     H153417   1.066   0.349   5.275
17725WAT     H253418   0.964   0.476   5.297
17726WAT      O53419   6.264   1.364   9.762
17726WAT     H153420   6.315   1.283   9.730
17726WAT     H253421   6.328   1.438   9.780
17727WAT      O53422   0.479   0.253   8.174
17727WAT     H153423   0.427   0.300   8.102
17727WAT     H253424   0.496   0.159   8.147
17728WAT      O53425   6.453   7.507   6.464
17728WAT     H153426   6.357   7.536   6.456
17728WAT     H253427   6.512   7.588   6.465
17729WAT      O53428   4.060   2.834   0.592
17729WAT     H153429   4.000   2.778   0.649
17729WAT     H253430   4.005   2.886   0.527
17730WAT      O53431   7.577   4.677   2.922
17730WAT     H153432   7.675   4.694   2.914
17730WAT     H253433   7.562   4.580   2.939
17731WAT      O53434   2.695   7.777   9.741
17731WAT     H153435   2.612   7.729   9.771
17731WAT     H253436   2.763   7.774   9.814
17732WAT      O53437   3.815   2.429   6.203
17732WAT     H153438   3.907   2.390   6.213
17732WAT     H253439   3.812   2.483   6.119
17733WAT      O53440   1.692   6.772   5.069
17733WAT     H153441   1.608   6.827   5.062
17733WAT     H253442   1.701   6.736   5.162
17734WAT      O53443   7.730   4.601   7.230
17734WAT     H153444   7.782   4.686   7.235
17734WAT     H253445   7.782   4.533   7.179
17735WAT      O53446   2.005   8.909   5.480
17735WAT     H153447   1.916   8.882   5.444
17735WAT     H253448   2.019   8.867   5.569
17736WAT      O53449   4.398   2.562   2.910
17736WAT     H153450   4.485   2.525   2.880
17736WAT     H253451   4.348   2.598   2.832
17737WAT      O53452   0.605   8.480   0.934
17737WAT     H153453   0.597   8.389   0.974
17737WAT     H253454   0.675   8.532   0.982
17738WAT      O53455   9.702   7.553   1.783
17738WAT     H153456   9.794   7.573   1.816
17738WAT     H253457   9.685   7.602   1.698
17739WAT      O53458   1.120   3.226   7.336
17739WAT     H153459   1.159   3.137   7.315
17739WAT     H253460   1.192   3.295   7.335
17740WAT      O53461   6.737   0.692   8.581
17740WAT     H153462   6.766   0.729   8.493
17740WAT     H253463   6.649   0.732   8.606
17741WAT      O53464   8.867   6.549   1.204
17741WAT     H153465   8.781   6.526   1.249
17741WAT     H253466   8.868   6.646   1.180
17742WAT      O53467   2.279   8.612   4.789
17742WAT     H153468   2.234   8.590   4.875
17742WAT     H253469   2.213   8.610   4.715
17743WAT      O53470   9.374   2.314   8.996
17743WAT     H153471   9.463   2.355   8.979
17743WAT     H253472   9.303   2.384   8.993
17744WAT      O53473   4.470   7.834   0.010
17744WAT     H153474   4.565   7.810  -0.012
17744WAT     H253475   4.426   7.755   0.053
17745WAT      O53476   2.677   3.692   8.078
17745WAT     H153477   2.745   3.619   8.088
17745WAT     H253478   2.725   3.780   8.072
17746WAT      O53479   0.989   7.792   2.094
17746WAT     H153480   1.076   7.749   2.120
17746WAT     H253481   1.003   7.890   2.085
17747WAT      O53482   0.914   8.698   3.252
17747WAT     H153483   0.855   8.778   3.247
17747WAT     H253484   0.986   8.705   3.182
17748WAT      O53485   5.854   0.726   7.139
17748WAT     H153486   5.877   0.669   7.218
17748WAT     H253487   5.842   0.669   7.058
17749WAT      O53488   7.384   6.888   0.731
17749WAT     H153489   7.381   6.985   0.708
17749WAT     H253490   7.352   6.834   0.653
17750WAT      O53491   6.848   7.584   8.440
17750WAT     H153492   6.935   7.596   8.392
17750WAT     H253493   6.859   7.519   8.514
17751WAT      O53494   6.553   3.357   4.664
17751WAT     H153495   6.554   3.383   4.760
17751WAT     H253496   6.643   3.375   4.624
17752WAT      O53497   8.553   3.759   6.767
17752WAT     H153498   8.602   3.673   6.782
17752WAT     H253499   8.618   3.835   6.771
17753WAT      O53500   7.786   0.009   2.036
17753WAT     H153501   7.715   0.076   2.058
17753WAT     H253502   7.827   0.031   1.947
17754WAT      O53503   7.612   5.009   7.817
17754WAT     H153504   7.608   4.945   7.740
17754WAT     H253505   7.658   5.093   7.788
17755WAT      O53506   2.281   0.466   6.319
17755WAT     H153507   2.317   0.375   6.340
17755WAT     H253508   2.305   0.490   6.225
17756WAT      O53509   3.829   9.642   1.225
17756WAT     H153510   3.735   9.614   1.206
17756WAT     H253511   3.865   9.589   1.301
17757WAT      O53512   1.512   7.225   5.953
17757WAT     H153513   1.543   7.282   5.876
17757WAT     H253514   1.417   7.198   5.938
17758WAT      O53515   8.228   6.054   5.070
17758WAT     H153516   8.227   6.014   5.162
17758WAT     H253517   8.315   6.100   5.054
17759WAT      O53518   4.660   4.126   9.218
17759WAT     H153519   4.759   4.128   9.230
17759WAT     H253520   4.632   4.036   9.186
17760WAT      O53521   7.800   3.745   7.396
17760WAT     H153522   7.807   3.751   7.496
17760WAT     H253523   7.703   3.747   7.370
17761WAT      O53524   5.602   2.677   4.964
17761WAT     H153525   5.688   2.726   4.953
17761WAT     H253526   5.607   2.620   5.047
17762WAT      O53527   6.754   0.690   0.099
17762WAT     H153528   6.721   0.690   0.004
17762WAT     H253529   6.841   0.641   0.103
17763WAT      O53530   5.955   5.742   0.349
17763WAT     H153531   5.923   5.699   0.265
17763WAT     H253532   5.887   5.730   0.421
17764WAT      O53533   2.640   5.080   3.376
17764WAT     H153534   2.694   5.091   3.460
17764WAT     H253535   2.669   4.996   3.330
17765WAT      O53536   1.434   6.002   3.463
17765WAT     H153537   1.528   5.970   3.453
17765WAT     H253538   1.422   6.085   3.409
17766WAT      O53539   0.457   7.991   4.993
17766WAT     H153540   0.385   8.058   4.974
17766WAT     H253541   0.545   8.028   4.964
17767WAT      O53542   0.240   6.024   3.859
17767WAT     H153543   0.298   5.998   3.783
17767WAT     H253544   0.223   6.122   3.857
17768WAT      O53545   3.316   7.267   4.548
17768WAT     H153546   3.382   7.233   4.615
17768WAT     H253547   3.308   7.366   4.556
17769WAT      O53548   2.128   5.240   4.450
17769WAT     H153549   2.047   5.198   4.490
17769WAT     H253550   2.153   5.322   4.501
17770WAT      O53551   7.113   3.368   2.780
17770WAT     H153552   7.034   3.327   2.733
17770WAT     H253553   7.134   3.315   2.862
17771WAT      O53554   4.785   7.330   5.539
17771WAT     H153555   4.777   7.428   5.523
17771WAT     H253556   4.868   7.311   5.593
17772WAT      O53557   8.604   5.943   0.853
17772WAT     H153558   8.595   5.843   0.845
17772WAT     H253559   8.527   5.979   0.904
17773WAT      O53560   3.038   7.186   4.461
17773WAT     H153561   3.133   7.193   4.491
17773WAT     H253562   2.986   7.128   4.524
17774WAT      O53563   6.569   8.373   9.752
17774WAT     H153564   6.498   8.303   9.745
17774WAT     H253565   6.548   8.449   9.691
17775WAT      O53566   3.507   5.080   6.851
17775WAT     H153567   3.473   5.160   6.801
17775WAT     H253568   3.586   5.042   6.803
17776WAT      O53569   9.591   6.641   9.199
17776WAT     H153570   9.503   6.597   9.180
17776WAT     H253571   9.577   6.737   9.222
17777WAT      O53572   1.090   2.649   6.643
17777WAT     H153573   1.085   2.742   6.606
17777WAT     H253574   1.176   2.607   6.616
17778WAT      O53575   1.678   6.405   6.637
17778WAT     H153576   1.588   6.422   6.599
17778WAT     H253577   1.745   6.399   6.563
17779WAT      O53578   4.283   7.192   7.924
17779WAT     H153579   4.279   7.109   7.869
17779WAT     H253580   4.266   7.272   7.865
17780WAT      O53581   7.770   8.395   6.011
17780WAT     H153582   7.807   8.308   6.046
17780WAT     H253583   7.729   8.380   5.921
17781WAT      O53584   7.561   7.526   1.816
17781WAT     H153585   7.482   7.466   1.827
17781WAT     H253586   7.617   7.495   1.739
17782WAT      O53587   8.848   3.662   8.753
17782WAT     H153588   8.914   3.722   8.707
17782WAT     H253589   8.828   3.698   8.844
17783WAT      O53590   9.039   8.846   3.590
17783WAT     H153591   9.012   8.761   3.636
17783WAT     H253592   8.965   8.875   3.529
17784WAT      O53593   5.153   7.033   4.832
17784WAT     H153594   5.212   6.954   4.845
17784WAT     H253595   5.058   7.004   4.834
17785WAT      O53596   8.479   4.887   2.645
17785WAT     H153597   8.576   4.878   2.667
17785WAT     H253598   8.438   4.959   2.701
17786WAT      O53599   3.378   7.976   4.223
17786WAT     H153600   3.309   8.021   4.166
17786WAT     H253601   3.441   7.925   4.164
17787WAT      O53602   5.786   0.613   5.868
17787WAT     H153603   5.864   0.672   5.850
17787WAT     H253604   5.702   0.668   5.867
17788WAT      O53605   6.385   1.894   1.850
17788WAT     H153606   6.411   1.886   1.753
17788WAT     H253607   6.399   1.806   1.895
17789WAT      O53608   5.443   8.447   7.718
17789WAT     H153609   5.370   8.473   7.654
17789WAT     H253610   5.408   8.451   7.812
17790WAT      O53611   7.500   2.589   8.017
17790WAT     H153612   7.525   2.494   8.035
17790WAT     H253613   7.400   2.597   8.015
17791WAT      O53614   0.684   0.681   3.173
17791WAT     H153615   0.659   0.586   3.154
17791WAT     H253616   0.774   0.700   3.134
17792WAT      O53617   3.898   1.751   4.702
17792WAT     H153618   3.801   1.736   4.680
17792WAT     H253619   3.926   1.840   4.667
17793WAT      O53620   6.832   8.489   6.814
17793WAT     H153621   6.743   8.500   6.858
17793WAT     H253622   6.820   8.452   6.723
17794WAT      O53623   7.838   6.071   8.668
17794WAT     H153624   7.776   6.139   8.627
17794WAT     H253625   7.861   6.099   8.761
17795WAT      O53626   3.211   9.654   1.051
17795WAT     H153627   3.255   9.730   1.004
17795WAT     H253628   3.181   9.586   0.985
17796WAT      O53629   3.249   0.315   7.706
17796WAT     H153630   3.234   0.414   7.702
17796WAT     H253631   3.342   0.294   7.676
17797WAT      O53632   6.252   1.448   0.368
17797WAT     H153633   6.298   1.410   0.288
17797WAT     H253634   6.214   1.373   0.423
17798WAT      O53635   0.915   5.500   3.940
17798WAT     H153636   0.931   5.458   4.029
17798WAT     H253637   0.818   5.491   3.915
17799WAT      O53638   0.091   7.012   7.562
17799WAT     H153639   0.015   7.062   7.602
17799WAT     H253640   0.176   7.064   7.575
17800WAT      O53641   2.213   6.638   4.245
17800WAT     H153642   2.176   6.545   4.245
17800WAT     H253643   2.278   6.648   4.320
17801WAT      O53644   2.606   7.844   6.323
17801WAT     H153645   2.596   7.770   6.257
17801WAT     H253646   2.568   7.816   6.411
17802WAT      O53647   4.715   5.928   5.211
17802WAT     H153648   4.796   5.908   5.155
17802WAT     H253649   4.742   5.985   5.289
17803WAT      O53650   7.067   9.235   1.425
17803WAT     H153651   7.039   9.331   1.424
17803WAT     H253652   7.008   9.183   1.486
17804WAT      O53653   3.246   8.843   3.625
17804WAT     H153654   3.310   8.892   3.565
17804WAT     H253655   3.163   8.897   3.637
17805WAT      O53656   5.077   8.872   2.907
17805WAT     H153657   4.981   8.859   2.882
17805WAT     H253658   5.082   8.942   2.979
17806WAT      O53659   9.156   8.973   1.699
17806WAT     H153660   9.239   8.963   1.643
17806WAT     H253661   9.162   8.912   1.778
17807WAT      O53662   0.676   6.326   6.186
17807WAT     H153663   0.709   6.416   6.156
17807WAT     H253664   0.723   6.254   6.134
17808WAT      O53665   0.246   5.399   5.697
17808WAT     H153666   0.180   5.469   5.727
17808WAT     H253667   0.210   5.353   5.615
17809WAT      O53668   5.289   4.706   3.940
17809WAT     H153669   5.260   4.611   3.953
17809WAT     H253670   5.243   4.745   3.860
17810WAT      O53671   5.411   9.447   4.207
17810WAT     H153672   5.395   9.375   4.275
17810WAT     H253673   5.432   9.404   4.119
17811WAT      O53674   5.292   5.550   9.196
17811WAT     H153675   5.319   5.633   9.245
17811WAT     H253676   5.206   5.566   9.147
17812WAT      O53677   2.053   7.329   1.262
17812WAT     H153678   1.956   7.305   1.267
17812WAT     H253679   2.102   7.287   1.338
17813WAT      O53680   3.986   3.122   8.394
17813WAT     H153681   3.951   3.068   8.318
17813WAT     H253682   4.000   3.063   8.473
17814WAT      O53683   2.861   7.624   1.726
17814WAT     H153684   2.857   7.638   1.627
17814WAT     H253685   2.865   7.526   1.746
17815WAT      O53686   0.343   3.676   7.936
17815WAT     H153687   0.252   3.655   7.972
17815WAT     H253688   0.333   3.721   7.847
17816WAT      O53689   0.192   4.652   2.113
17816WAT     H153690   0.154   4.559   2.111
17816WAT     H253691   0.153   4.702   2.191
17817WAT      O53692   9.163   6.084   2.225
17817WAT     H153693   9.094   6.155   2.213
17817WAT     H253694   9.249   6.126   2.253
17818WAT      O53695   8.304   6.461   5.183
17818WAT     H153696   8.384   6.501   5.227
17818WAT     H253697   8.243   6.534   5.153
17819WAT      O53698   4.591   1.706   0.883
17819WAT     H153699   4.616   1.778   0.948
17819WAT     H253700   4.647   1.625   0.901
17820WAT      O53701   4.048   8.873   1.008
17820WAT     H153702   4.098   8.787   0.999
17820WAT     H253703   4.024   8.907   0.917
17821WAT      O53704   8.155   8.344   2.546
17821WAT     H153705   8.121   8.433   2.576
17821WAT     H253706   8.127   8.273   2.611
17822WAT      O53707   5.461   8.545   2.906
17822WAT     H153708   5.454   8.471   2.973
17822WAT     H253709   5.444   8.633   2.952
17823WAT      O53710   9.776   6.392   8.793
17823WAT     H153711   9.767   6.456   8.869
17823WAT     H253712   9.869   6.399   8.755
17824WAT      O53713   4.389   5.272   1.325
17824WAT     H153714   4.314   5.263   1.259
17824WAT     H253715   4.468   5.220   1.293
17825WAT      O53716   1.023   0.221   0.595
17825WAT     H153717   1.028   0.256   0.689
17825WAT     H253718   0.929   0.194   0.574
17826WAT      O53719   2.745   8.004   8.012
17826WAT     H153720   2.727   8.095   8.049
17826WAT     H253721   2.668   7.944   8.032
17827WAT      O53722   4.214   7.182   8.399
17827WAT     H153723   4.122   7.152   8.372
17827WAT     H253724   4.244   7.129   8.478
17828WAT      O53725   3.574   8.636   1.289
17828WAT     H153726   3.574   8.718   1.347
17828WAT     H253727   3.505   8.572   1.322
17829WAT      O53728   3.066   8.802   3.396
17829WAT     H153729   3.100   8.834   3.485
17829WAT     H253730   2.991   8.737   3.411
17830WAT      O53731   7.934   0.753   4.104
17830WAT     H153732   7.986   0.751   4.018
17830WAT     H253733   7.988   0.709   4.176
17831WAT      O53734   2.959   1.940   1.949
17831WAT     H153735   2.891   1.960   2.020
17831WAT     H253736   3.035   1.889   1.989
17832WAT      O53737   5.805   1.865   2.141
17832WAT     H153738   5.884   1.808   2.116
17832WAT     H253739   5.802   1.876   2.240
17833WAT      O53740   0.014   4.841   8.814
17833WAT     H153741   0.079   4.895   8.761
17833WAT     H253742   0.021   4.865   8.911
17834WAT      O53743   2.304   7.104   9.168
17834WAT     H153744   2.337   7.016   9.202
17834WAT     H253745   2.363   7.135   9.093
17835WAT      O53746   6.558   1.377   2.346
17835WAT     H153747   6.621   1.353   2.271
17835WAT     H253748   6.471   1.407   2.308
17836WAT      O53749   3.933   2.184   8.306
17836WAT     H153750   3.875   2.182   8.224
17836WAT     H253751   4.026   2.210   8.280
17837WAT      O53752   3.799   8.976   4.981
17837WAT     H153753   3.797   9.008   4.886
17837WAT     H253754   3.705   8.964   5.014
17838WAT      O53755   4.381   0.833   1.832
17838WAT     H153756   4.323   0.885   1.768
17838WAT     H253757   4.368   0.735   1.816
17839WAT      O53758   9.108   1.397   7.625
17839WAT     H153759   9.176   1.363   7.560
17839WAT     H253760   9.064   1.479   7.587
17840WAT      O53761   3.943   7.555   2.541
17840WAT     H153762   4.024   7.600   2.580
17840WAT     H253763   3.958   7.538   2.444
17841WAT      O53764   7.540   7.554   4.402
17841WAT     H153765   7.576   7.466   4.432
17841WAT     H253766   7.451   7.540   4.357
17842WAT      O53767   1.492   7.895   3.687
17842WAT     H153768   1.491   7.994   3.676
17842WAT     H253769   1.412   7.866   3.739
17843WAT      O53770   1.018   8.323   1.687
17843WAT     H153771   1.058   8.315   1.778
17843WAT     H253772   0.952   8.398   1.685
17844WAT      O53773   3.588   3.591   3.541
17844WAT     H153774   3.609   3.682   3.578
17844WAT     H253775   3.658   3.526   3.570
17845WAT      O53776   6.280   0.589   1.631
17845WAT     H153777   6.346   0.522   1.597
17845WAT     H253778   6.206   0.542   1.678
17846WAT      O53779   9.091   7.303   8.893
17846WAT     H153780   9.002   7.349   8.899
17846WAT     H253781   9.163   7.364   8.927
17847WAT      O53782   4.605   8.943   2.401
17847WAT     H153783   4.637   8.878   2.331
17847WAT     H253784   4.506   8.952   2.395
17848WAT      O53785   6.995   8.914   3.544
17848WAT     H153786   6.990   9.005   3.503
17848WAT     H253787   6.902   8.879   3.560
17849WAT      O53788   7.023   9.338   0.725
17849WAT     H153789   7.075   9.253   0.726
17849WAT     H253790   7.040   9.387   0.640
17850WAT      O53791   9.489   6.966   6.868
17850WAT     H153792   9.578   7.009   6.884
17850WAT     H253793   9.424   7.035   6.836
17851WAT      O53794   3.287   9.514   0.396
17851WAT     H153795   3.235   9.493   0.480
17851WAT     H253796   3.240   9.475   0.317
17852WAT      O53797   5.773   5.698   7.768
17852WAT     H153798   5.774   5.670   7.864
17852WAT     H253799   5.805   5.623   7.711
17853WAT      O53800   1.405   5.019   8.080
17853WAT     H153801   1.376   4.988   7.989
17853WAT     H253802   1.496   5.061   8.073
17854WAT      O53803   6.673   7.881   7.263
17854WAT     H153804   6.605   7.840   7.201
17854WAT     H253805   6.760   7.832   7.254
17855WAT      O53806   7.015   8.606   9.601
17855WAT     H153807   6.958   8.572   9.526
17855WAT     H253808   6.965   8.676   9.653
17856WAT      O53809   7.832   1.421   6.111
17856WAT     H153810   7.931   1.415   6.101
17856WAT     H253811   7.802   1.515   6.092
17857WAT      O53812   5.083   7.617   7.415
17857WAT     H153813   5.137   7.634   7.497
17857WAT     H253814   5.092   7.522   7.387
17858WAT      O53815   5.803   2.295   7.238
17858WAT     H153816   5.799   2.330   7.332
17858WAT     H253817   5.890   2.249   7.223
17859WAT      O53818   3.415   7.452   6.092
17859WAT     H153819   3.326   7.408   6.081
17859WAT     H253820   3.479   7.417   6.023
17860WAT      O53821   5.220   6.749   0.658
17860WAT     H153822   5.191   6.799   0.740
17860WAT     H253823   5.216   6.810   0.579
17861WAT      O53824   2.868   3.409   4.677
17861WAT     H153825   2.901   3.368   4.592
17861WAT     H253826   2.946   3.439   4.733
17862WAT      O53827   7.490   8.303   5.443
17862WAT     H153828   7.583   8.312   5.406
17862WAT     H253829   7.438   8.386   5.420
17863WAT      O53830   1.959   4.773   7.053
17863WAT     H153831   1.988   4.857   7.098
17863WAT     H253832   1.922   4.794   6.963
17864WAT      O53833   8.975   4.316   5.003
17864WAT     H153834   9.060   4.368   4.997
17864WAT     H253835   8.992   4.222   4.972
17865WAT      O53836   0.429   4.473   3.496
17865WAT     H153837   0.421   4.426   3.408
17865WAT     H253838   0.437   4.572   3.480
17866WAT      O53839   7.795   0.876   1.407
17866WAT     H153840   7.839   0.886   1.497
17866WAT     H253841   7.698   0.859   1.419
17867WAT      O53842   1.106   5.510   0.344
17867WAT     H153843   1.058   5.452   0.278
17867WAT     H253844   1.177   5.562   0.297
17868WAT      O53845   1.850   1.955   0.564
17868WAT     H153846   1.766   1.917   0.525
17868WAT     H253847   1.929   1.902   0.532
17869WAT      O53848   7.519   8.194   0.925
17869WAT     H153849   7.526   8.260   1.000
17869WAT     H253850   7.445   8.221   0.864
17870WAT      O53851   5.350   9.343   2.148
17870WAT     H153852   5.308   9.434   2.144
17870WAT     H253853   5.280   9.274   2.131
17871WAT      O53854   9.544   2.974   7.054
17871WAT     H153855   9.539   3.073   7.067
17871WAT     H253856   9.491   2.929   7.126
17872WAT      O53857   3.214   2.393   5.490
17872WAT     H153858   3.123   2.362   5.463
17872WAT     H253859   3.210   2.491   5.512
17873WAT      O53860   6.391   8.758   2.210
17873WAT     H153861   6.420   8.757   2.114
17873WAT     H253862   6.361   8.666   2.237
17874WAT      O53863   1.130   7.736   7.600
17874WAT     H153864   1.178   7.824   7.612
17874WAT     H253865   1.032   7.749   7.616
17875WAT      O53866   9.347   0.593   8.492
17875WAT     H153867   9.308   0.529   8.558
17875WAT     H253868   9.426   0.551   8.448
17876WAT      O53869   0.412   3.892   2.270
17876WAT     H153870   0.431   3.850   2.359
17876WAT     H253871   0.409   3.991   2.280
17877WAT      O53872   5.904   7.197   8.705
17877WAT     H153873   5.839   7.121   8.711
17877WAT     H253874   5.875   7.260   8.633
17878WAT      O53875   0.813   1.676   8.379
17878WAT     H153876   0.783   1.596   8.328
17878WAT     H253877   0.741   1.707   8.441
17879WAT      O53878   4.227   4.947   0.169
17879WAT     H153879   4.296   4.942   0.097
17879WAT     H253880   4.214   4.857   0.209
17880WAT      O53881   9.546   9.237   6.246
17880WAT     H153882   9.564   9.147   6.285
17880WAT     H253883   9.583   9.240   6.153
17881WAT      O53884   9.007   9.848   5.890
17881WAT     H153885   9.042   9.804   5.807
17881WAT     H253886   8.915   9.814   5.909
17882WAT      O53887   4.563   7.646   0.370
17882WAT     H153888   4.508   7.572   0.332
17882WAT     H253889   4.538   7.732   0.325
17883WAT      O53890   8.442   7.498   0.571
17883WAT     H153891   8.501   7.418   0.559
17883WAT     H253892   8.498   7.579   0.585
17884WAT      O53893   9.567   8.562   5.726
17884WAT     H153894   9.529   8.514   5.805
17884WAT     H253895   9.494   8.607   5.675
17885WAT      O53896   8.112   2.429   8.749
17885WAT     H153897   8.018   2.441   8.782
17885WAT     H253898   8.128   2.332   8.731
17886WAT      O53899   3.022   4.607   7.606
17886WAT     H153900   3.111   4.590   7.649
17886WAT     H253901   2.968   4.523   7.607
17887WAT      O53902   1.508   6.467   6.398
17887WAT     H153903   1.412   6.454   6.421
17887WAT     H253904   1.543   6.385   6.352
17888WAT      O53905   0.633   2.275   7.578
17888WAT     H153906   0.653   2.357   7.525
17888WAT     H253907   0.580   2.300   7.659
17889WAT      O53908   8.518   9.181   6.119
17889WAT     H153909   8.450   9.252   6.104
17889WAT     H253910   8.567   9.162   6.034
17890WAT      O53911   4.033   6.429   6.445
17890WAT     H153912   4.055   6.339   6.407
17890WAT     H253913   4.118   6.475   6.472
17891WAT      O53914   0.636   6.274   5.772
17891WAT     H153915   0.701   6.311   5.839
17891WAT     H253916   0.681   6.263   5.684
17892WAT      O53917   9.345   1.527   9.366
17892WAT     H153918   9.268   1.464   9.364
17892WAT     H253919   9.416   1.496   9.302
17893WAT      O53920   7.756   6.023   4.020
17893WAT     H153921   7.722   6.087   4.088
17893WAT     H253922   7.856   6.018   4.026
17894WAT      O53923   5.601   4.072   1.582
17894WAT     H153924   5.607   3.973   1.593
17894WAT     H253925   5.568   4.113   1.667
17895WAT      O53926   4.275   0.538   9.375
17895WAT     H153927   4.338   0.570   9.304
17895WAT     H253928   4.327   0.503   9.453
17896WAT      O53929   9.094   9.502   9.439
17896WAT     H153930   9.145   9.424   9.403
17896WAT     H253931   9.032   9.471   9.511
17897WAT      O53932   2.144   7.735   2.702
17897WAT     H153933   2.136   7.675   2.782
17897WAT     H253934   2.101   7.691   2.623
17898WAT      O53935   1.215   3.745   5.194
17898WAT     H153936   1.127   3.790   5.176
17898WAT     H253937   1.226   3.667   5.132
17899WAT      O53938   5.475   4.476   1.628
17899WAT     H153939   5.540   4.550   1.608
17899WAT     H253940   5.515   4.414   1.696
17900WAT      O53941   7.012   7.998   2.319
17900WAT     H153942   7.021   7.938   2.238
17900WAT     H253943   7.028   8.093   2.292
17901WAT      O53944   2.922   9.780   0.433
17901WAT     H153945   2.829   9.809   0.457
17901WAT     H253946   2.959   9.841   0.362
17902WAT      O53947   9.344   4.966   5.089
17902WAT     H153948   9.379   4.872   5.089
17902WAT     H253949   9.387   5.018   5.163
17903WAT      O53950   0.799   2.563   8.176
17903WAT     H153951   0.799   2.533   8.081
17903WAT     H253952   0.706   2.589   8.202
17904WAT      O53953   3.817   1.185   3.919
17904WAT     H153954   3.740   1.151   3.865
17904WAT     H253955   3.871   1.108   3.952
17905WAT      O53956   5.418   3.451   0.496
17905WAT     H153957   5.365   3.463   0.580
17905WAT     H253958   5.377   3.504   0.422
17906WAT      O53959   6.332   0.507   6.390
17906WAT     H153960   6.302   0.474   6.479
17906WAT     H253961   6.431   0.493   6.381
17907WAT      O53962   0.051   8.609   1.837
17907WAT     H153963   0.081   8.700   1.806
17907WAT     H253964   0.056   8.545   1.761
17908WAT      O53965   8.180   1.575   1.298
17908WAT     H153966   8.272   1.579   1.258
17908WAT     H253967   8.126   1.652   1.264
17909WAT      O53968   2.319   2.172   9.473
17909WAT     H153969   2.253   2.099   9.454
17909WAT     H253970   2.411   2.141   9.450
17910WAT      O53971   6.822   8.394   2.954
17910WAT     H153972   6.762   8.415   3.031
17910WAT     H253973   6.767   8.359   2.878
17911WAT      O53974   7.511   6.208   9.489
17911WAT     H153975   7.599   6.211   9.534
17911WAT     H253976   7.441   6.175   9.553
17912WAT      O53977   1.028   1.028   1.950
17912WAT     H153978   1.098   0.959   1.968
17912WAT     H253979   1.062   1.119   1.976
17913WAT      O53980   3.448   3.062   4.982
17913WAT     H153981   3.448   3.064   5.082
17913WAT     H253982   3.372   3.118   4.948
17914WAT      O53983   5.470   3.652   7.954
17914WAT     H153984   5.438   3.628   7.863
17914WAT     H253985   5.531   3.581   7.988
17915WAT      O53986   1.165   8.707   3.081
17915WAT     H153987   1.140   8.726   2.986
17915WAT     H253988   1.260   8.674   3.084
17916WAT      O53989   3.454   6.449   8.594
17916WAT     H153990   3.442   6.442   8.495
17916WAT     H253991   3.549   6.473   8.615
17917WAT      O53992   1.814   7.588   4.822
17917WAT     H153993   1.857   7.499   4.840
17917WAT     H253994   1.864   7.633   4.747
17918WAT      O53995   8.355   1.853   3.052
17918WAT     H153996   8.299   1.770   3.052
17918WAT     H253997   8.331   1.908   2.972
17919WAT      O53998   5.794   8.398   8.118
17919WAT     H153999   5.783   8.328   8.047
17919WAT     H254000   5.882   8.387   8.163
17920WAT      O54001   0.531   7.260   5.879
17920WAT     H154002   0.545   7.345   5.829
17920WAT     H254003   0.441   7.263   5.924
17921WAT      O54004   3.002   5.707   1.337
17921WAT     H154005   2.948   5.721   1.419
17921WAT     H254006   3.062   5.629   1.349
17922WAT      O54007   0.764   5.563   7.778
17922WAT     H154008   0.759   5.564   7.878
17922WAT     H254009   0.717   5.482   7.744
17923WAT      O54010   3.198   1.921   5.546
17923WAT     H154011   3.233   1.912   5.639
17923WAT     H254012   3.271   1.954   5.486
17924WAT      O54013   4.267   5.197   9.206
17924WAT     H154014   4.303   5.168   9.295
17924WAT     H254015   4.339   5.190   9.137
17925WAT      O54016   7.673   8.030   6.517
17925WAT     H154017   7.772   8.022   6.529
17925WAT     H254018   7.628   8.006   6.603
17926WAT      O54019   8.796   3.899   5.626
17926WAT     H154020   8.699   3.902   5.647
17926WAT     H254021   8.819   3.809   5.588
17927WAT      O54022   8.996   5.893   3.179
17927WAT     H154023   8.903   5.914   3.210
17927WAT     H254024   8.999   5.800   3.143
17928WAT      O54025   6.170   4.391   0.652
17928WAT     H154026   6.196   4.464   0.716
17928WAT     H254027   6.251   4.338   0.629
17929WAT      O54028   6.382   9.050   4.277
17929WAT     H154029   6.409   9.145   4.286
17929WAT     H254030   6.439   8.993   4.336
17930WAT      O54031   5.508   6.477   9.102
17930WAT     H154032   5.594   6.527   9.105
17930WAT     H254033   5.525   6.385   9.067
17931WAT      O54034   6.794   1.771   7.325
17931WAT     H154035   6.790   1.809   7.417
17931WAT     H254036   6.797   1.845   7.258
17932WAT      O54037   2.138   6.921   5.192
17932WAT     H154038   2.103   6.856   5.259
17932WAT     H254039   2.222   6.885   5.150
17933WAT      O54040   2.108   3.538   9.538
17933WAT     H154041   2.124   3.448   9.580
17933WAT     H254042   2.182   3.558   9.475
17934WAT      O54043   0.844   6.649   2.685
17934WAT     H154044   0.754   6.606   2.678
17934WAT     H254045   0.841   6.738   2.640
17935WAT      O54046   0.215   7.613   2.811
17935WAT     H154047   0.311   7.641   2.820
17935WAT     H254048   0.156   7.682   2.852
17936WAT      O54049   4.794   7.509   5.199
17936WAT     H154050   4.795   7.573   5.276
17936WAT     H254051   4.749   7.424   5.226
17937WAT      O54052   5.279   9.122   6.083
17937WAT     H154053   5.307   9.211   6.047
17937WAT     H254054   5.323   9.049   6.031
17938WAT      O54055   2.955   2.839   3.949
17938WAT     H154056   2.985   2.830   4.044
17938WAT     H254057   2.988   2.926   3.911
17939WAT      O54058   5.837   0.456   1.561
17939WAT     H154059   5.742   0.484   1.574
17939WAT     H254060   5.840   0.361   1.531
17940WAT      O54061   0.545   2.351   3.967
17940WAT     H154062   0.564   2.393   3.879
17940WAT     H254063   0.517   2.256   3.955
17941WAT      O54064   1.959   5.175   0.343
17941WAT     H154065   1.934   5.259   0.296
17941WAT     H254066   1.879   5.115   0.349
17942WAT      O54067   6.098   6.617   5.072
17942WAT     H154068   6.025   6.554   5.098
17942WAT     H254069   6.111   6.685   5.144
17943WAT      O54070   4.645   4.333   3.992
17943WAT     H154071   4.662   4.394   4.070
17943WAT     H254072   4.732   4.302   3.955
17944WAT      O54073   7.260   5.999   6.604
17944WAT     H154074   7.203   6.049   6.538
17944WAT     H254075   7.206   5.925   6.644
17945WAT      O54076   7.192   5.835   8.056
17945WAT     H154077   7.175   5.854   8.153
17945WAT     H254078   7.245   5.910   8.016
17946WAT      O54079   3.950   3.535   9.195
17946WAT     H154080   3.884   3.607   9.176
17946WAT     H254081   3.905   3.446   9.186
17947WAT      O54082   4.015   1.131   2.034
17947WAT     H154083   4.100   1.147   1.984
17947WAT     H254084   3.966   1.217   2.045
17948WAT      O54085   9.485   1.473   0.242
17948WAT     H154086   9.561   1.462   0.178
17948WAT     H254087   9.423   1.543   0.208
17949WAT      O54088   2.085   8.214   7.453
17949WAT     H154089   2.084   8.247   7.359
17949WAT     H254090   2.180   8.202   7.483
17950WAT      O54091   6.342   5.249   7.744
17950WAT     H154092   6.294   5.184   7.684
17950WAT     H254093   6.440   5.243   7.728
17951WAT      O54094   5.548   6.788   1.709
17951WAT     H154095   5.633   6.804   1.758
17951WAT     H254096   5.508   6.875   1.680
17952WAT      O54097   3.864   3.548   5.429
17952WAT     H154098   3.818   3.620   5.377
17952WAT     H254099   3.827   3.546   5.522
17953WAT      O54100   8.653   7.042   5.878
17953WAT     H154101   8.572   7.080   5.834
17953WAT     H254102   8.651   7.064   5.976
17954WAT      O54103   4.365   8.590   6.853
17954WAT     H154104   4.385   8.633   6.765
17954WAT     H254105   4.336   8.660   6.919
17955WAT      O54106   9.571   2.332   1.481
17955WAT     H154107   9.648   2.395   1.493
17955WAT     H254108   9.587   2.275   1.401
17956WAT      O54109   0.396   6.147   5.888
17956WAT     H154110   0.487   6.163   5.851
17956WAT     H254111   0.344   6.233   5.889
17957WAT      O54112   4.790   5.234   2.084
17957WAT     H154113   4.845   5.156   2.055
17957WAT     H254114   4.848   5.315   2.091
17958WAT      O54115   4.972   4.012   4.022
17958WAT     H154116   4.921   4.022   4.107
17958WAT     H254117   5.070   4.016   4.040
17959WAT      O54118   4.983   2.844   3.633
17959WAT     H154119   5.057   2.904   3.602
17959WAT     H254120   4.988   2.834   3.732
17960WAT      O54121   4.777   8.884   7.238
17960WAT     H154122   4.837   8.889   7.158
17960WAT     H254123   4.714   8.807   7.227
17961WAT      O54124   8.534   4.861   7.181
17961WAT     H154125   8.463   4.809   7.228
17961WAT     H254126   8.610   4.877   7.243
17962WAT      O54127   2.840   6.917   0.973
17962WAT     H154128   2.862   6.822   0.994
17962WAT     H254129   2.861   6.935   0.877
17963WAT      O54130   1.330   4.170   0.163
17963WAT     H154131   1.429   4.173   0.149
17963WAT     H254132   1.302   4.075   0.181
17964WAT      O54133   4.657   7.286   3.458
17964WAT     H154134   4.578   7.304   3.517
17964WAT     H254135   4.714   7.368   3.453
17965WAT      O54136   4.884   2.842   9.471
17965WAT     H154137   4.845   2.848   9.563
17965WAT     H254138   4.811   2.854   9.403
17966WAT      O54139   9.215   3.498   8.703
17966WAT     H154140   9.221   3.486   8.802
17966WAT     H254141   9.302   3.533   8.669
17967WAT      O54142   0.065   8.107   2.714
17967WAT     H154143   0.096   8.194   2.752
17967WAT     H254144  -0.034   8.110   2.700
17968WAT      O54145   0.015   6.372   1.482
17968WAT     H154146   0.115   6.364   1.474
17968WAT     H254147  -0.009   6.390   1.578
17969WAT      O54148   5.472   4.204   8.139
17969WAT     H154149   5.427   4.126   8.181
17969WAT     H254150   5.562   4.218   8.182
17970WAT      O54151   1.515   0.455   3.964
17970WAT     H154152   1.428   0.494   3.933
17970WAT     H254153   1.523   0.465   4.063
17971WAT      O54154   6.066   0.405   2.470
17971WAT     H154155   6.027   0.355   2.547
17971WAT     H254156   5.997   0.467   2.432
17972WAT      O54157   5.193   2.129   0.071
17972WAT     H154158   5.170   2.224   0.048
17972WAT     H254159   5.281   2.105   0.031
17973WAT      O54160   7.076   4.622   4.788
17973WAT     H154161   7.120   4.546   4.835
17973WAT     H254162   7.077   4.606   4.689
17974WAT      O54163   5.517   7.017   1.592
17974WAT     H154164   5.573   6.988   1.514
17974WAT     H254165   5.540   7.111   1.616
17975WAT      O54166   8.261   7.284   0.126
17975WAT     H154167   8.225   7.376   0.141
17975WAT     H254168   8.246   7.229   0.208
17976WAT      O54169   1.776   4.198   3.640
17976WAT     H154170   1.870   4.225   3.620
17976WAT     H254171   1.716   4.277   3.632
17977WAT      O54172   1.500   3.121   9.078
17977WAT     H154173   1.528   3.049   9.143
17977WAT     H254174   1.574   3.188   9.069
17978WAT      O54175   6.434   0.251   2.745
17978WAT     H154176   6.494   0.278   2.670
17978WAT     H254177   6.360   0.194   2.711
17979WAT      O54178   4.980   5.823   7.550
17979WAT     H154179   4.885   5.847   7.532
17979WAT     H254180   5.024   5.796   7.464
17980WAT      O54181   0.744   9.196   2.615
17980WAT     H154182   0.795   9.168   2.534
17980WAT     H254183   0.786   9.277   2.655
17981WAT      O54184   5.855   8.246   2.746
17981WAT     H154185   5.909   8.330   2.743
17981WAT     H254186   5.907   8.174   2.791
17982WAT      O54187   3.418   5.051   8.335
17982WAT     H154188   3.370   5.055   8.247
17982WAT     H254189   3.426   5.144   8.372
17983WAT      O54190   9.718   8.159   7.972
17983WAT     H154191   9.644   8.177   8.036
17983WAT     H254192   9.806   8.161   8.021
17984WAT      O54193   5.153   7.542   8.471
17984WAT     H154194   5.192   7.541   8.379
17984WAT     H254195   5.073   7.482   8.474
17985WAT      O54196   4.750   9.650   6.994
17985WAT     H154197   4.848   9.670   6.992
17985WAT     H254198   4.734   9.564   7.042
17986WAT      O54199   0.974   6.263   1.105
17986WAT     H154200   0.958   6.308   1.194
17986WAT     H254201   0.985   6.333   1.035
17987WAT      O54202   3.610   1.768   7.993
17987WAT     H154203   3.549   1.847   7.982
17987WAT     H254204   3.599   1.706   7.915
17988WAT      O54205   6.240   3.399   5.875
17988WAT     H154206   6.300   3.368   5.801
17988WAT     H254207   6.275   3.366   5.962
17989WAT      O54208   4.852   0.938   9.161
17989WAT     H154209   4.874   0.841   9.169
17989WAT     H254210   4.753   0.949   9.147
17990WAT      O54211   8.579   9.399   4.760
17990WAT     H154212   8.606   9.471   4.824
17990WAT     H254213   8.659   9.370   4.707
17991WAT      O54214   3.131   9.146   4.078
17991WAT     H154215   3.203   9.080   4.055
17991WAT     H254216   3.153   9.235   4.037
17992WAT      O54217   1.432   4.058   9.657
17992WAT     H154218   1.458   4.149   9.691
17992WAT     H254219   1.425   4.061   9.557
17993WAT      O54220   7.736   1.839   5.890
17993WAT     H154221   7.830   1.836   5.925
17993WAT     H254222   7.676   1.878   5.959
17994WAT      O54223   5.397   0.276   6.565
17994WAT     H154224   5.355   0.353   6.518
17994WAT     H254225   5.397   0.293   6.664
17995WAT      O54226   9.661   6.637   0.462
17995WAT     H154227   9.682   6.582   0.382
17995WAT     H254228   9.716   6.605   0.540
17996WAT      O54229   2.924   9.839   1.986
17996WAT     H154230   2.960   9.813   2.075
17996WAT     H254231   2.833   9.799   1.974
17997WAT      O54232   7.194   2.113   7.588
17997WAT     H154233   7.247   2.156   7.661
17997WAT     H254234   7.255   2.059   7.530
17998WAT      O54235   3.739   5.007   1.577
17998WAT     H154236   3.835   5.004   1.549
17998WAT     H254237   3.681   4.981   1.500
17999WAT      O54238   1.748   7.907   1.264
17999WAT     H154239   1.665   7.852   1.253
17999WAT     H254240   1.727   7.988   1.320
18000WAT      O54241   6.829   8.881   5.770
18000WAT     H154242   6.893   8.907   5.842
18000WAT     H254243   6.819   8.782   5.769
18001WAT      O54244   7.815   2.426   2.364
18001WAT     H154245   7.754   2.368   2.418
18001WAT     H254246   7.883   2.369   2.317
18002WAT      O54247   8.982   6.578   7.639
18002WAT     H154248   9.048   6.608   7.570
18002WAT     H254249   9.028   6.563   7.726
18003WAT      O54250   9.185   3.909   2.452
18003WAT     H154251   9.121   3.867   2.388
18003WAT     H254252   9.203   4.004   2.424
18004WAT      O54253   1.832   4.756   4.622
18004WAT     H154254   1.842   4.710   4.533
18004WAT     H254255   1.736   4.754   4.649
18005WAT      O54256   6.779   8.166   1.647
18005WAT     H154257   6.768   8.264   1.668
18005WAT     H254258   6.837   8.156   1.566
18006WAT      O54259   6.080   8.957   9.780
18006WAT     H154260   6.095   9.041   9.832
18006WAT     H254261   6.020   8.896   9.831
18007WAT      O54262   1.489   0.104   2.349
18007WAT     H154263   1.579   0.089   2.391
18007WAT     H254264   1.419   0.058   2.403
18008WAT      O54265   5.817   2.902   8.213
18008WAT     H154266   5.877   2.982   8.208
18008WAT     H254267   5.722   2.932   8.208
18009WAT      O54268   4.883   5.819   7.830
18009WAT     H154269   4.951   5.791   7.897
18009WAT     H254270   4.929   5.845   7.744
18010WAT      O54271   6.621   7.070   5.784
18010WAT     H154272   6.533   7.112   5.764
18010WAT     H254273   6.624   7.045   5.881
18011WAT      O54274   3.518   1.418   2.402
18011WAT     H154275   3.494   1.510   2.372
18011WAT     H254276   3.484   1.404   2.495
18012WAT      O54277   0.277   5.235   5.897
18012WAT     H154278   0.371   5.211   5.872
18012WAT     H254279   0.238   5.296   5.828
18013WAT      O54280   5.517   8.860   6.724
18013WAT     H154281   5.581   8.790   6.693
18013WAT     H254282   5.487   8.915   6.646
18014WAT      O54283   9.827   8.723   5.489
18014WAT     H154284   9.836   8.627   5.462
18014WAT     H254285   9.760   8.768   5.429
18015WAT      O54286   6.213   9.572   7.112
18015WAT     H154287   6.290   9.619   7.155
18015WAT     H254288   6.158   9.527   7.182
18016WAT      O54289   2.801   5.714   0.051
18016WAT     H154290   2.826   5.739   0.144
18016WAT     H254291   2.881   5.679   0.002
18017WAT      O54292   2.315   9.164   3.349
18017WAT     H154293   2.326   9.121   3.259
18017WAT     H254294   2.256   9.245   3.340
18018WAT      O54295   6.077   7.348   8.107
18018WAT     H154296   5.977   7.342   8.107
18018WAT     H254297   6.109   7.385   8.194
18019WAT      O54298   7.305   0.428   5.251
18019WAT     H154299   7.328   0.487   5.328
18019WAT     H254300   7.228   0.466   5.201
18020WAT      O54301   6.727   2.745   5.180
18020WAT     H154302   6.739   2.844   5.181
18020WAT     H254303   6.764   2.706   5.265
18021WAT      O54304   6.496   3.991   9.299
18021WAT     H154305   6.527   3.994   9.394
18021WAT     H254306   6.504   4.082   9.258
18022WAT      O54307   6.112   0.064   5.826
18022WAT     H154308   6.122   0.160   5.800
18022WAT     H254309   6.070   0.058   5.917
18023WAT      O54310   2.265   7.527   0.909
18023WAT     H154311   2.319   7.548   0.991
18023WAT     H254312   2.274   7.602   0.843
18024WAT      O54313   4.897   0.453   1.849
18024WAT     H154314   4.860   0.469   1.757
18024WAT     H254315   4.822   0.439   1.913
18025WAT      O54316   0.226   6.814   0.484
18025WAT     H154317   0.287   6.815   0.563
18025WAT     H254318   0.131   6.821   0.516
18026WAT      O54319   6.783   3.901   9.688
18026WAT     H154320   6.831   3.819   9.658
18026WAT     H254321   6.813   3.925   9.781
18027WAT      O54322   6.059   5.916   6.435
18027WAT     H154323   5.964   5.941   6.416
18027WAT     H254324   6.063   5.820   6.465
18028WAT      O54325   6.754   2.985   9.092
18028WAT     H154326   6.779   3.082   9.084
18028WAT     H254327   6.763   2.957   9.187
18029WAT      O54328   4.536   0.642   5.289
18029WAT     H154329   4.463   0.678   5.232
18029WAT     H254330   4.588   0.573   5.238
18030WAT      O54331   7.282   7.262   4.789
18030WAT     H154332   7.354   7.196   4.769
18030WAT     H254333   7.194   7.215   4.796
18031WAT      O54334   5.258   3.734   5.894
18031WAT     H154335   5.347   3.695   5.913
18031WAT     H254336   5.267   3.832   5.876
18032WAT      O54337   4.170   4.576   8.035
18032WAT     H154338   4.175   4.564   8.134
18032WAT     H254339   4.229   4.509   7.990
18033WAT      O54340   3.406   1.646   8.150
18033WAT     H154341   3.484   1.696   8.111
18033WAT     H254342   3.436   1.593   8.229
18034WAT      O54343   4.639   9.285   0.531
18034WAT     H154344   4.579   9.340   0.589
18034WAT     H254345   4.609   9.190   0.534
18035WAT      O54346   3.212   8.085   8.798
18035WAT     H154347   3.207   8.038   8.885
18035WAT     H254348   3.131   8.142   8.786
18036WAT      O54349   8.576   5.912   0.169
18036WAT     H154350   8.669   5.919   0.205
18036WAT     H254351   8.575   5.852   0.089
18037WAT      O54352   2.317   4.576   6.651
18037WAT     H154353   2.307   4.502   6.584
18037WAT     H254354   2.413   4.582   6.679
18038WAT      O54355   5.304   4.006   9.226
18038WAT     H154356   5.321   4.064   9.147
18038WAT     H254357   5.310   3.910   9.200
18039WAT      O54358   7.069   2.119   5.124
18039WAT     H154359   6.973   2.145   5.134
18039WAT     H254360   7.120   2.194   5.082
18040WAT      O54361   6.999   5.134   1.639
18040WAT     H154362   7.023   5.051   1.689
18040WAT     H254363   7.039   5.214   1.684
18041WAT      O54364   9.422   3.764   0.431
18041WAT     H154365   9.372   3.687   0.389
18041WAT     H254366   9.517   3.737   0.448
18042WAT      O54367   6.893   7.378   3.978
18042WAT     H154368   6.913   7.312   4.051
18042WAT     H254369   6.944   7.353   3.896
18043WAT      O54370   0.578   2.073   0.809
18043WAT     H154371   0.529   2.048   0.726
18043WAT     H254372   0.608   2.168   0.802
18044WAT      O54373   0.381   7.807   1.025
18044WAT     H154374   0.348   7.721   0.988
18044WAT     H254375   0.480   7.802   1.038
18045WAT      O54376   8.922   6.231   7.152
18045WAT     H154377   8.893   6.175   7.074
18045WAT     H254378   8.894   6.326   7.137
18046WAT      O54379   3.606   2.452   7.024
18046WAT     H154380   3.642   2.484   7.111
18046WAT     H254381   3.560   2.364   7.038
18047WAT      O54382   7.732   6.539   2.984
18047WAT     H154383   7.793   6.465   3.012
18047WAT     H254384   7.679   6.570   3.063
18048WAT      O54385   8.078   6.811   7.721
18048WAT     H154386   8.082   6.711   7.730
18048WAT     H254387   8.153   6.852   7.773
18049WAT      O54388   7.719   1.792   1.063
18049WAT     H154389   7.761   1.771   0.974
18049WAT     H254390   7.691   1.888   1.065
18050WAT      O54391   6.336   6.176   2.582
18050WAT     H154392   6.336   6.211   2.676
18050WAT     H254393   6.429   6.180   2.546
18051WAT      O54394   4.758   5.719   8.206
18051WAT     H154395   4.819   5.753   8.278
18051WAT     H254396   4.678   5.780   8.200
18052WAT      O54397   8.917   6.206   8.761
18052WAT     H154398   8.944   6.129   8.819
18052WAT     H254399   8.959   6.197   8.671
18053WAT      O54400   5.510   0.751   1.450
18053WAT     H154401   5.430   0.811   1.450
18053WAT     H254402   5.541   0.738   1.356
18054WAT      O54403   7.641   1.636   6.157
18054WAT     H154404   7.598   1.623   6.068
18054WAT     H254405   7.581   1.600   6.229
18055WAT      O54406   5.558   9.630   4.386
18055WAT     H154407   5.593   9.550   4.436
18055WAT     H254408   5.503   9.599   4.309
18056WAT      O54409   8.881   4.505   5.287
18056WAT     H154410   8.890   4.602   5.264
18056WAT     H254411   8.788   4.487   5.319
18057WAT      O54412   4.605   3.264   7.407
18057WAT     H154413   4.622   3.305   7.497
18057WAT     H254414   4.519   3.213   7.409
18058WAT      O54415   0.381   0.973   6.751
18058WAT     H154416   0.345   1.059   6.787
18058WAT     H254417   0.306   0.910   6.735
18059WAT      O54418   1.268   4.698   1.642
18059WAT     H154419   1.345   4.727   1.585
18059WAT     H254420   1.301   4.633   1.710
18060WAT      O54421   7.635   8.008   5.293
18060WAT     H154422   7.554   8.065   5.310
18060WAT     H254423   7.701   8.021   5.368
18061WAT      O54424   0.416   4.423   3.164
18061WAT     H154425   0.406   4.340   3.109
18061WAT     H254426   0.331   4.476   3.160
18062WAT      O54427   3.921   8.663   7.861
18062WAT     H154428   3.900   8.568   7.882
18062WAT     H254429   3.908   8.719   7.943
18063WAT      O54430   6.711   5.167   5.825
18063WAT     H154431   6.754   5.255   5.804
18063WAT     H254432   6.779   5.107   5.867
18064WAT      O54433   2.149   0.110   4.450
18064WAT     H154434   2.053   0.123   4.426
18064WAT     H254435   2.172   0.166   4.529
18065WAT      O54436   7.254   3.070   4.008
18065WAT     H154437   7.228   3.100   3.916
18065WAT     H254438   7.188   3.106   4.074
18066WAT      O54439   8.022   5.045   4.190
18066WAT     H154440   7.941   5.102   4.204
18066WAT     H254441   8.103   5.103   4.182
18067WAT      O54442   2.271   0.892   8.877
18067WAT     H154443   2.338   0.837   8.927
18067WAT     H254444   2.311   0.980   8.852
18068WAT      O54445   8.593   3.477   6.125
18068WAT     H154446   8.618   3.548   6.059
18068WAT     H254447   8.509   3.504   6.172
18069WAT      O54448   0.396   2.228   9.524
18069WAT     H154449   0.413   2.247   9.427
18069WAT     H254450   0.299   2.206   9.538
18070WAT      O54451   9.131   8.076   2.457
18070WAT     H154452   9.206   8.125   2.500
18070WAT     H254453   9.066   8.046   2.528
18071WAT      O54454   5.107   0.520   5.866
18071WAT     H154455   5.035   0.452   5.871
18071WAT     H254456   5.183   0.484   5.812
18072WAT      O54457   3.208   8.337   4.018
18072WAT     H154458   3.163   8.413   3.972
18072WAT     H254459   3.177   8.333   4.113
18073WAT      O54460   2.259   8.954   0.617
18073WAT     H154461   2.282   8.909   0.704
18073WAT     H254462   2.167   8.992   0.623
18074WAT      O54463   2.209   7.807   4.775
18074WAT     H154464   2.173   7.818   4.868
18074WAT     H254465   2.136   7.822   4.709
18075WAT      O54466   5.498   2.044   1.906
18075WAT     H154467   5.591   2.079   1.917
18075WAT     H254468   5.439   2.117   1.871
18076WAT      O54469   1.156   1.848   5.081
18076WAT     H154470   1.166   1.759   5.036
18076WAT     H254471   1.123   1.835   5.174
18077WAT      O54472   7.720   9.829   8.025
18077WAT     H154473   7.795   9.883   8.061
18077WAT     H254474   7.752   9.774   7.947
18078WAT      O54475   6.848   9.128   6.620
18078WAT     H154476   6.819   9.146   6.714
18078WAT     H254477   6.767   9.111   6.563
18079WAT      O54478   5.423   4.214   3.898
18079WAT     H154479   5.350   4.179   3.956
18079WAT     H254480   5.477   4.280   3.948
18080WAT      O54481   8.995   2.291   1.832
18080WAT     H154482   8.993   2.386   1.801
18080WAT     H254483   9.012   2.231   1.755
18081WAT      O54484   8.726   7.916   3.367
18081WAT     H154485   8.627   7.900   3.360
18081WAT     H254486   8.768   7.902   3.278
18082WAT      O54487   4.163   9.550   2.951
18082WAT     H154488   4.156   9.649   2.961
18082WAT     H254489   4.144   9.506   3.039
18083WAT      O54490   0.749   6.076   8.160
18083WAT     H154491   0.759   6.110   8.066
18083WAT     H254492   0.838   6.044   8.192
18084WAT      O54493   1.925   7.917   6.975
18084WAT     H154494   1.850   7.906   7.041
18084WAT     H254495   1.966   7.829   6.956
18085WAT      O54496   3.171   8.938   1.205
18085WAT     H154497   3.091   8.878   1.201
18085WAT     H254498   3.221   8.934   1.119
18086WAT      O54499   6.893   1.965   3.338
18086WAT     H154500   6.817   1.958   3.403
18086WAT     H254501   6.932   2.057   3.342
18087WAT      O54502   1.626   0.900   2.725
18087WAT     H154503   1.604   0.827   2.791
18087WAT     H254504   1.710   0.877   2.676
18088WAT      O54505   5.077   3.406   9.105
18088WAT     H154506   4.996   3.453   9.139
18088WAT     H254507   5.104   3.335   9.170
18089WAT      O54508   9.566   7.240   6.582
18089WAT     H154509   9.647   7.257   6.638
18089WAT     H254510   9.484   7.245   6.640
18090WAT      O54511   1.286   0.787   8.233
18090WAT     H154512   1.266   0.814   8.327
18090WAT     H254513   1.272   0.864   8.172
18091WAT      O54514   2.086   2.858   1.300
18091WAT     H154515   2.143   2.815   1.370
18091WAT     H254516   1.993   2.822   1.306
18092WAT      O54517   3.419   0.931   8.618
18092WAT     H154518   3.364   1.011   8.646
18092WAT     H254519   3.487   0.911   8.688
18093WAT      O54520   7.361   7.432   6.091
18093WAT     H154521   7.423   7.407   6.165
18093WAT     H254522   7.331   7.349   6.043
18094WAT      O54523   9.810   0.254   7.030
18094WAT     H154524   9.842   0.203   7.110
18094WAT     H254525   9.710   0.251   7.026
18095WAT      O54526   7.054   1.444   0.763
18095WAT     H154527   7.101   1.529   0.787
18095WAT     H254528   7.114   1.389   0.704
18096WAT      O54529   6.751   6.454   6.029
18096WAT     H154530   6.668   6.500   5.995
18096WAT     H254531   6.776   6.492   6.118
18097WAT      O54532   0.211   3.572   0.551
18097WAT     H154533   0.141   3.548   0.484
18097WAT     H254534   0.193   3.663   0.589
18098WAT      O54535   6.122   2.292   4.988
18098WAT     H154536   6.209   2.307   5.036
18098WAT     H254537   6.103   2.194   4.983
18099WAT      O54538   6.252   4.203   2.923
18099WAT     H154539   6.235   4.288   2.874
18099WAT     H254540   6.174   4.184   2.984
18100WAT      O54541   2.989   1.287   6.081
18100WAT     H154542   2.964   1.366   6.025
18100WAT     H254543   3.059   1.234   6.034
18101WAT      O54544   0.586   5.071   5.143
18101WAT     H154545   0.672   5.023   5.124
18101WAT     H254546   0.571   5.142   5.074
18102WAT      O54547   8.694   7.426   0.238
18102WAT     H154548   8.646   7.513   0.228
18102WAT     H254549   8.717   7.412   0.335
18103WAT      O54550   0.479   6.866   6.764
18103WAT     H154551   0.419   6.883   6.686
18103WAT     H254552   0.572   6.850   6.731
18104WAT      O54553   4.906   8.825   4.231
18104WAT     H154554   4.866   8.818   4.323
18104WAT     H254555   4.842   8.786   4.164
18105WAT      O54556   1.659   1.484   1.961
18105WAT     H154557   1.701   1.481   2.051
18105WAT     H254558   1.623   1.394   1.937
18106WAT      O54559   8.902   2.214   5.460
18106WAT     H154560   8.945   2.144   5.518
18106WAT     H254561   8.831   2.261   5.513
18107WAT      O54562   2.402   5.110   8.488
18107WAT     H154563   2.323   5.067   8.531
18107WAT     H254564   2.455   5.041   8.439
18108WAT      O54565   1.459   3.302   6.176
18108WAT     H154566   1.501   3.212   6.187
18108WAT     H254567   1.375   3.293   6.122
18109WAT      O54568   6.691   8.513   5.303
18109WAT     H154569   6.764   8.451   5.272
18109WAT     H254570   6.689   8.594   5.245
18110WAT      O54571   7.196   6.347   1.252
18110WAT     H154572   7.216   6.396   1.337
18110WAT     H254573   7.114   6.386   1.209
18111WAT      O54574   2.594   2.919   1.505
18111WAT     H154575   2.655   2.853   1.461
18111WAT     H254576   2.534   2.871   1.570
18112WAT      O54577   8.637   6.163   0.664
18112WAT     H154578   8.646   6.074   0.708
18112WAT     H254579   8.545   6.173   0.627
18113WAT      O54580   2.128   0.999   0.518
18113WAT     H154581   2.158   0.975   0.426
18113WAT     H254582   2.083   0.919   0.560
18114WAT      O54583   5.509   1.874   1.055
18114WAT     H154584   5.426   1.834   1.016
18114WAT     H254585   5.531   1.828   1.141
18115WAT      O54586   2.747   1.168   6.069
18115WAT     H154587   2.720   1.157   5.974
18115WAT     H254588   2.832   1.221   6.074
18116WAT      O54589   7.965   1.893   3.877
18116WAT     H154590   7.990   1.849   3.964
18116WAT     H254591   7.975   1.992   3.887
18117WAT      O54592   2.552   6.563   4.797
18117WAT     H154593   2.561   6.548   4.895
18117WAT     H254594   2.614   6.636   4.768
18118WAT      O54595   0.538   0.904   5.039
18118WAT     H154596   0.535   0.876   5.135
18118WAT     H254597   0.526   0.824   4.980
18119WAT      O54598   7.956   8.887   1.364
18119WAT     H154599   7.980   8.797   1.327
18119WAT     H254600   7.998   8.958   1.307
18120WAT      O54601   2.238   8.188   0.152
18120WAT     H154602   2.275   8.264   0.099
18120WAT     H254603   2.305   8.160   0.221
18121WAT      O54604   4.874   1.478   4.669
18121WAT     H154605   4.949   1.412   4.673
18121WAT     H254606   4.910   1.570   4.677
18122WAT      O54607   1.651   9.317   6.087
18122WAT     H154608   1.580   9.367   6.037
18122WAT     H254609   1.740   9.361   6.070
18123WAT      O54610   0.437   1.130   3.402
18123WAT     H154611   0.386   1.176   3.330
18123WAT     H254612   0.409   1.034   3.407
18124WAT      O54613   1.152   2.758   2.330
18124WAT     H154614   1.208   2.776   2.411
18124WAT     H254615   1.106   2.669   2.341
18125WAT      O54616   5.104   2.907   7.498
18125WAT     H154617   5.135   2.864   7.582
18125WAT     H254618   5.100   3.006   7.511
18126WAT      O54619   1.966   9.715   0.548
18126WAT     H154620   1.937   9.796   0.599
18126WAT     H254621   1.917   9.635   0.583
18127WAT      O54622   4.972   6.973   9.267
18127WAT     H154623   5.059   6.924   9.274
18127WAT     H254624   4.932   6.958   9.177
18128WAT      O54625   6.375   4.618   5.624
18128WAT     H154626   6.278   4.643   5.631
18128WAT     H254627   6.428   4.700   5.601
18129WAT      O54628   0.382   4.659   9.392
18129WAT     H154629   0.361   4.606   9.475
18129WAT     H254630   0.380   4.599   9.313
18130WAT      O54631   1.857   5.235   6.238
18130WAT     H154632   1.801   5.249   6.157
18130WAT     H254633   1.951   5.217   6.211
18131WAT      O54634   3.335   9.043   2.287
18131WAT     H154635   3.336   8.973   2.359
18131WAT     H254636   3.424   9.088   2.283
18132WAT      O54637   5.274   8.261   1.345
18132WAT     H154638   5.309   8.241   1.436
18132WAT     H254639   5.301   8.188   1.282
18133WAT      O54640   3.306   6.037   9.753
18133WAT     H154641   3.292   5.942   9.728
18133WAT     H254642   3.369   6.080   9.689
18134WAT      O54643   6.690   4.092   3.868
18134WAT     H154644   6.732   4.002   3.881
18134WAT     H254645   6.634   4.115   3.947
18135WAT      O54646   6.733   1.796   6.180
18135WAT     H154647   6.720   1.889   6.215
18135WAT     H254648   6.674   1.782   6.100
18136WAT      O54649   0.801   2.401   4.040
18136WAT     H154650   0.709   2.381   4.004
18136WAT     H254651   0.834   2.487   4.000
18137WAT      O54652   6.198   1.778   5.607
18137WAT     H154653   6.193   1.686   5.568
18137WAT     H254654   6.120   1.831   5.575
18138WAT      O54655   0.364   7.373   8.540
18138WAT     H154656   0.436   7.418   8.488
18138WAT     H254657   0.371   7.398   8.636
18139WAT      O54658   2.501   3.791   2.920
18139WAT     H154659   2.539   3.857   2.855
18139WAT     H254660   2.422   3.745   2.879
18140WAT      O54661   0.876   0.287   6.290
18140WAT     H154662   0.848   0.283   6.194
18140WAT     H254663   0.967   0.245   6.300
18141WAT      O54664   6.366   3.032   6.264
18141WAT     H154665   6.274   3.064   6.286
18141WAT     H254666   6.362   2.937   6.233
18142WAT      O54667   7.001   0.661   0.683
18142WAT     H154668   6.958   0.748   0.661
18142WAT     H254669   6.971   0.631   0.774
18143WAT      O54670   3.771   7.928   4.246
18143WAT     H154671   3.792   8.006   4.187
18143WAT     H254672   3.844   7.859   4.238
18144WAT      O54673   8.368   2.345   6.457
18144WAT     H154674   8.372   2.252   6.493
18144WAT     H254675   8.347   2.409   6.531
18145WAT      O54676   8.394   0.845   4.902
18145WAT     H154677   8.369   0.939   4.882
18145WAT     H254678   8.319   0.801   4.952
18146WAT      O54679   2.935   7.483   5.065
18146WAT     H154680   3.000   7.499   5.139
18146WAT     H254681   2.866   7.417   5.095
18147WAT      O54682   0.969   8.047   5.334
18147WAT     H154683   0.931   8.016   5.421
18147WAT     H254684   0.900   8.097   5.283
18148WAT      O54685   4.903   4.179   1.079
18148WAT     H154686   4.812   4.168   1.038
18148WAT     H254687   4.903   4.259   1.139
18149WAT      O54688   3.525   9.536   7.786
18149WAT     H154689   3.510   9.603   7.713
18149WAT     H254690   3.450   9.470   7.787
18150WAT      O54691   9.614   2.000   6.973
18150WAT     H154692   9.635   2.024   6.878
18150WAT     H254693   9.699   1.995   7.026
18151WAT      O54694   4.301   7.306   3.036
18151WAT     H154695   4.373   7.358   3.082
18151WAT     H254696   4.223   7.367   3.019
18152WAT      O54697   2.461   7.035   0.666
18152WAT     H154698   2.377   6.981   0.671
18152WAT     H254699   2.464   7.084   0.578
18153WAT      O54700   5.789   0.101   7.994
18153WAT     H154701   5.830   0.018   8.032
18153WAT     H254702   5.807   0.178   8.056
18154WAT      O54703   5.304   7.909   0.214
18154WAT     H154704   5.331   8.004   0.229
18154WAT     H254705   5.210   7.896   0.245
18155WAT      O54706   5.026   4.624   2.571
18155WAT     H154707   5.017   4.569   2.488
18155WAT     H254708   4.986   4.573   2.648
18156WAT      O54709   1.802   3.655   7.287
18156WAT     H154710   1.740   3.687   7.358
18156WAT     H254711   1.892   3.698   7.299
18157WAT      O54712   7.382   1.961   7.471
18157WAT     H154713   7.482   1.966   7.481
18157WAT     H254714   7.360   1.932   7.378
18158WAT      O54715   5.567   1.926   7.862
18158WAT     H154716   5.608   1.871   7.790
18158WAT     H254717   5.600   2.020   7.854
18159WAT      O54718   5.738   6.819   1.080
18159WAT     H154719   5.734   6.752   1.154
18159WAT     H254720   5.771   6.775   0.996
18160WAT      O54721   3.569   2.849   8.805
18160WAT     H154722   3.483   2.900   8.802
18160WAT     H254723   3.590   2.815   8.713
18161WAT      O54724   8.042   5.584   6.485
18161WAT     H154725   7.942   5.577   6.495
18161WAT     H254726   8.077   5.653   6.548
18162WAT      O54727   8.875   2.865   4.825
18162WAT     H154728   8.871   2.820   4.736
18162WAT     H254729   8.960   2.843   4.871
18163WAT      O54730   9.164   4.429   0.531
18163WAT     H154731   9.073   4.388   0.524
18163WAT     H254732   9.184   4.481   0.448
18164WAT      O54733   2.927   9.257   2.205
18164WAT     H154734   2.978   9.174   2.227
18164WAT     H254735   2.889   9.296   2.289
18165WAT      O54736   9.380   6.093   2.591
18165WAT     H154737   9.381   6.106   2.491
18165WAT     H254738   9.287   6.108   2.625
18166WAT      O54739   2.454   6.841   1.405
18166WAT     H154740   2.498   6.857   1.317
18166WAT     H254741   2.501   6.766   1.452
18167WAT      O54742   8.384   8.808   6.450
18167WAT     H154743   8.409   8.713   6.431
18167WAT     H254744   8.396   8.862   6.367
18168WAT      O54745   0.463   3.595   1.274
18168WAT     H154746   0.499   3.682   1.308
18168WAT     H254747   0.404   3.612   1.195
18169WAT      O54748   4.767   7.639   5.435
18169WAT     H154749   4.676   7.670   5.462
18169WAT     H254750   4.836   7.701   5.473
18170WAT      O54751   5.987   9.725   8.110
18170WAT     H154752   5.984   9.641   8.163
18170WAT     H254753   6.030   9.707   8.021
18171WAT      O54754   9.542   6.384   4.085
18171WAT     H154755   9.625   6.427   4.051
18171WAT     H254756   9.529   6.407   4.182
18172WAT      O54757   2.811   0.781   2.213
18172WAT     H154758   2.796   0.752   2.308
18172WAT     H254759   2.822   0.880   2.209
18173WAT      O54760   5.801   9.682   1.810
18173WAT     H154761   5.768   9.751   1.746
18173WAT     H254762   5.900   9.692   1.821
18174WAT      O54763   8.854   6.555   9.866
18174WAT     H154764   8.929   6.616   9.841
18174WAT     H254765   8.768   6.591   9.829
18175WAT      O54766   3.166   8.494   7.469
18175WAT     H154767   3.129   8.481   7.561
18175WAT     H254768   3.092   8.484   7.402
18176WAT      O54769   6.572   7.940   8.244
18176WAT     H154770   6.596   8.029   8.206
18176WAT     H254771   6.650   7.903   8.294
18177WAT      O54772   1.413   2.599   5.814
18177WAT     H154773   1.355   2.630   5.889
18177WAT     H254774   1.430   2.501   5.822
18178WAT      O54775   4.210   8.867   3.672
18178WAT     H154776   4.145   8.790   3.677
18178WAT     H254777   4.169   8.948   3.715
18179WAT      O54778   5.459   7.308   9.396
18179WAT     H154779   5.373   7.307   9.345
18179WAT     H254780   5.482   7.402   9.422
18180WAT      O54781   5.943   4.479   4.969
18180WAT     H154782   6.010   4.507   4.901
18180WAT     H254783   5.905   4.560   5.014
18181WAT      O54784   3.342   8.794   6.231
18181WAT     H154785   3.340   8.758   6.137
18181WAT     H254786   3.399   8.876   6.233
18182WAT      O54787   1.109   2.027   9.412
18182WAT     H154788   1.068   2.022   9.321
18182WAT     H254789   1.183   2.095   9.411
18183WAT      O54790   6.385   4.182   5.937
18183WAT     H154791   6.415   4.189   5.841
18183WAT     H254792   6.306   4.241   5.951
18184WAT      O54793   7.393   4.802   2.084
18184WAT     H154794   7.400   4.876   2.152
18184WAT     H254795   7.484   4.777   2.052
18185WAT      O54796   7.362   8.358   6.518
18185WAT     H154797   7.271   8.315   6.522
18185WAT     H254798   7.354   8.455   6.538
18186WAT      O54799   7.717   1.694   7.599
18186WAT     H154800   7.769   1.626   7.547
18186WAT     H254801   7.619   1.675   7.592
18187WAT      O54802   1.196   3.971   3.366
18187WAT     H154803   1.134   3.903   3.405
18187WAT     H254804   1.213   4.043   3.433
18188WAT      O54805   1.410   1.445   0.898
18188WAT     H154806   1.499   1.445   0.851
18188WAT     H254807   1.374   1.539   0.901
18189WAT      O54808   2.140   1.990   6.233
18189WAT     H154809   2.118   2.022   6.325
18189WAT     H254810   2.065   2.013   6.171
18190WAT      O54811   7.937   4.511   0.266
18190WAT     H154812   8.011   4.465   0.315
18190WAT     H254813   7.878   4.559   0.331
18191WAT      O54814   6.493   4.441   2.454
18191WAT     H154815   6.583   4.478   2.475
18191WAT     H254816   6.467   4.375   2.525
18192WAT      O54817   9.633   7.251   1.204
18192WAT     H154818   9.617   7.233   1.301
18192WAT     H254819   9.650   7.165   1.156
18193WAT      O54820   8.082   9.189   2.682
18193WAT     H154821   8.070   9.090   2.686
18193WAT     H254822   8.154   9.217   2.746
18194WAT      O54823   6.009   3.737   0.308
18194WAT     H154824   5.931   3.710   0.364
18194WAT     H254825   6.013   3.681   0.226
18195WAT      O54826   4.698   5.508   2.641
18195WAT     H154827   4.713   5.417   2.681
18195WAT     H254828   4.727   5.578   2.707
18196WAT      O54829   7.236   5.199   8.283
18196WAT     H154830   7.166   5.188   8.212
18196WAT     H254831   7.324   5.215   8.240
18197WAT      O54832   7.332   3.865   3.600
18197WAT     H154833   7.384   3.854   3.685
18197WAT     H254834   7.249   3.810   3.604
18198WAT      O54835   2.341   4.183   6.018
18198WAT     H154836   2.427   4.162   6.063
18198WAT     H254837   2.281   4.102   6.021
18199WAT      O54838   6.371   7.117   5.192
18199WAT     H154839   6.369   7.061   5.109
18199WAT     H254840   6.331   7.207   5.172
18200WAT      O54841   6.553   8.232   6.109
18200WAT     H154842   6.534   8.257   6.014
18200WAT     H254843   6.474   8.184   6.148
18201WAT      O54844   4.143   9.683   8.739
18201WAT     H154845   4.132   9.782   8.739
18201WAT     H254846   4.076   9.641   8.677
18202WAT      O54847   5.216   4.046   4.099
18202WAT     H154848   5.221   4.139   4.134
18202WAT     H254849   5.256   3.983   4.165
18203WAT      O54850   4.680   9.094   7.644
18203WAT     H154851   4.652   9.139   7.559
18203WAT     H254852   4.608   9.103   7.713
18204WAT      O54853   6.497   6.498   8.246
18204WAT     H154854   6.471   6.463   8.336
18204WAT     H254855   6.536   6.423   8.191
18205WAT      O54856   6.983   1.761   6.299
18205WAT     H154857   6.889   1.786   6.274
18205WAT     H254858   7.046   1.803   6.234
18206WAT      O54859   4.187   1.692   4.282
18206WAT     H154860   4.283   1.665   4.281
18206WAT     H254861   4.148   1.674   4.372
18207WAT      O54862   5.955   1.991   8.315
18207WAT     H154863   5.976   1.894   8.315
18207WAT     H254864   5.858   2.005   8.333
18208WAT      O54865   4.497   9.146   8.917
18208WAT     H154866   4.587   9.110   8.891
18208WAT     H254867   4.439   9.151   8.836
18209WAT      O54868   0.255   2.766   3.912
18209WAT     H154869   0.293   2.681   3.874
18209WAT     H254870   0.168   2.747   3.957
18210WAT      O54871   4.876   1.505   5.596
18210WAT     H154872   4.922   1.497   5.684
18210WAT     H254873   4.868   1.415   5.554
18211WAT      O54874   0.142   2.276   2.274
18211WAT     H154875   0.204   2.221   2.218
18211WAT     H254876   0.132   2.366   2.233
18212WAT      O54877   7.552   7.587   5.308
18212WAT     H154878   7.611   7.644   5.251
18212WAT     H254879   7.601   7.563   5.392
18213WAT      O54880   1.030   4.324   3.117
18213WAT     H154881   1.123   4.352   3.090
18213WAT     H254882   0.973   4.316   3.036
18214WAT      O54883   6.255   3.717   8.514
18214WAT     H154884   6.253   3.809   8.553
18214WAT     H254885   6.162   3.685   8.498
18215WAT      O54886   0.518   4.325   5.268
18215WAT     H154887   0.575   4.300   5.346
18215WAT     H254888   0.573   4.322   5.184
18216WAT      O54889   9.416   5.192   0.724
18216WAT     H154890   9.501   5.241   0.743
18216WAT     H254891   9.435   5.115   0.664
18217WAT      O54892   0.274   7.367   0.486
18217WAT     H154893   0.264   7.273   0.453
18217WAT     H254894   0.363   7.404   0.456
18218WAT      O54895   6.341   7.253   8.465
18218WAT     H154896   6.254   7.205   8.475
18218WAT     H254897   6.413   7.200   8.510
18219WAT      O54898   5.130   7.639   1.515
18219WAT     H154899   5.160   7.648   1.420
18219WAT     H254900   5.045   7.586   1.518
18220WAT      O54901   5.292   5.228   9.721
18220WAT     H154902   5.278   5.276   9.635
18220WAT     H254903   5.266   5.287   9.797
18221WAT      O54904   5.538   0.581   7.513
18221WAT     H154905   5.527   0.553   7.608
18221WAT     H254906   5.567   0.503   7.458
18222WAT      O54907   7.031   3.193   7.136
18222WAT     H154908   7.086   3.274   7.116
18222WAT     H254909   6.965   3.215   7.208
18223WAT      O54910   0.998   6.589   5.500
18223WAT     H154911   1.081   6.556   5.544
18223WAT     H254912   1.014   6.681   5.464
18224WAT      O54913   6.243   4.482   8.690
18224WAT     H154914   6.275   4.390   8.667
18224WAT     H254915   6.315   4.548   8.669
18225WAT      O54916   5.819   6.135   7.495
18225WAT     H154917   5.790   6.103   7.405
18225WAT     H254918   5.875   6.218   7.484
18226WAT      O54919   7.390   2.742   0.704
18226WAT     H154920   7.454   2.665   0.698
18226WAT     H254921   7.408   2.794   0.788
18227WAT      O54922   1.885   7.258   9.298
18227WAT     H154923   1.798   7.228   9.337
18227WAT     H254924   1.957   7.247   9.366
18228WAT      O54925   3.238   5.162   3.031
18228WAT     H154926   3.229   5.102   2.952
18228WAT     H254927   3.147   5.179   3.070
18229WAT      O54928   9.819   0.779   2.881
18229WAT     H154929   9.844   0.761   2.786
18229WAT     H254930   9.757   0.857   2.886
18230WAT      O54931   2.506   7.236   5.141
18230WAT     H154932   2.446   7.298   5.089
18230WAT     H254933   2.521   7.152   5.088
18231WAT      O54934   0.556   0.813   3.411
18231WAT     H154935   0.558   0.717   3.440
18231WAT     H254936   0.583   0.819   3.315
18232WAT      O54937   9.416   1.166   7.817
18232WAT     H154938   9.382   1.113   7.739
18232WAT     H254939   9.338   1.209   7.864
18233WAT      O54940   7.223   0.926   1.889
18233WAT     H154941   7.197   0.858   1.821
18233WAT     H254942   7.321   0.941   1.886
18234WAT      O54943   9.448   6.927   7.130
18234WAT     H154944   9.449   6.935   7.030
18234WAT     H254945   9.533   6.964   7.167
18235WAT      O54946   2.921   0.104   7.118
18235WAT     H154947   2.872   0.025   7.157
18235WAT     H254948   2.959   0.160   7.192
18236WAT      O54949   2.365   3.993   1.134
18236WAT     H154950   2.389   3.908   1.181
18236WAT     H254951   2.423   4.004   1.054
18237WAT      O54952   1.844   2.456   1.009
18237WAT     H154953   1.843   2.426   1.104
18237WAT     H254954   1.933   2.494   0.986
18238WAT      O54955   9.491   2.528   8.793
18238WAT     H154956   9.518   2.623   8.776
18238WAT     H254957   9.429   2.525   8.871
18239WAT      O54958   2.412   1.139   7.543
18239WAT     H154959   2.424   1.132   7.642
18239WAT     H254960   2.476   1.206   7.507
18240WAT      O54961   1.425   5.710   8.338
18240WAT     H154962   1.471   5.625   8.364
18240WAT     H254963   1.363   5.738   8.411
18241WAT      O54964   0.242   7.367   4.494
18241WAT     H154965   0.224   7.307   4.417
18241WAT     H254966   0.164   7.427   4.509
18242WAT      O54967   1.416   1.087   2.787
18242WAT     H154968   1.496   1.027   2.794
18242WAT     H254969   1.392   1.120   2.879
18243WAT      O54970   7.163   2.028   2.517
18243WAT     H154971   7.150   2.024   2.616
18243WAT     H254972   7.136   1.941   2.476
18244WAT      O54973   1.211   4.307   9.851
18244WAT     H154974   1.244   4.242   9.919
18244WAT     H254975   1.121   4.278   9.819
18245WAT      O54976   0.747   6.386   4.275
18245WAT     H154977   0.655   6.419   4.291
18245WAT     H254978   0.747   6.286   4.277
18246WAT      O54979   2.466   9.436   3.528
18246WAT     H154980   2.367   9.448   3.536
18246WAT     H254981   2.510   9.475   3.609
18247WAT      O54982   6.358   8.531   9.329
18247WAT     H154983   6.416   8.556   9.252
18247WAT     H254984   6.262   8.551   9.307
18248WAT      O54985   5.857   4.737   4.308
18248WAT     H154986   5.897   4.825   4.335
18248WAT     H254987   5.772   4.723   4.358
18249WAT      O54988   3.593   5.341   1.006
18249WAT     H154989   3.553   5.431   0.990
18249WAT     H254990   3.674   5.350   1.064
18250WAT      O54991   5.404   3.863   7.684
18250WAT     H154992   5.414   3.764   7.685
18250WAT     H254993   5.345   3.892   7.760
18251WAT      O54994   0.250   8.241   4.178
18251WAT     H154995   0.270   8.271   4.271
18251WAT     H254996   0.327   8.187   4.143
18252WAT      O54997   3.327   1.556   5.883
18252WAT     H154998   3.313   1.466   5.843
18252WAT     H254999   3.402   1.551   5.950
18253WAT      O55000   5.124   7.566   0.168
18253WAT     H155001   5.154   7.626   0.094
18253WAT     H255002   5.203   7.540   0.223
18254WAT      O55003   0.394   1.611   2.922
18254WAT     H155004   0.377   1.588   3.017
18254WAT     H255005   0.354   1.700   2.901
18255WAT      O55006   3.291   6.544   1.756
18255WAT     H155007   3.333   6.616   1.702
18255WAT     H255008   3.194   6.563   1.768
18256WAT      O55009   7.274   6.465   5.871
18256WAT     H155010   7.332   6.415   5.936
18256WAT     H255011   7.180   6.468   5.905
18257WAT      O55012   5.962   6.514   4.786
18257WAT     H155013   5.872   6.537   4.823
18257WAT     H255014   6.028   6.507   4.862
18258WAT      O55015   6.740   6.844   3.766
18258WAT     H155016   6.643   6.871   3.762
18258WAT     H255017   6.748   6.754   3.809
18259WAT      O55018   9.402   2.038   2.820
18259WAT     H155019   9.441   1.996   2.902
18259WAT     H255020   9.471   2.093   2.775
18260WAT      O55021   1.583   5.770   0.935
18260WAT     H155022   1.519   5.694   0.947
18260WAT     H255023   1.604   5.781   0.838
18261WAT      O55024   4.751   5.598   2.921
18261WAT     H155025   4.811   5.571   2.997
18261WAT     H255026   4.794   5.672   2.869
18262WAT      O55027   4.785   8.517   6.114
18262WAT     H155028   4.695   8.531   6.074
18262WAT     H255029   4.854   8.512   6.041
18263WAT      O55030   6.256   1.451   1.526
18263WAT     H155031   6.183   1.500   1.574
18263WAT     H255032   6.234   1.445   1.429
18264WAT      O55033   1.863   6.315   8.146
18264WAT     H155034   1.931   6.374   8.101
18264WAT     H255035   1.785   6.370   8.175
18265WAT      O55036   2.733   8.082   1.753
18265WAT     H155037   2.732   8.172   1.798
18265WAT     H255038   2.816   8.074   1.698
18266WAT      O55039   7.918   7.258   9.589
18266WAT     H155040   7.971   7.302   9.661
18266WAT     H255041   7.934   7.304   9.502
18267WAT      O55042   1.796   2.454   3.433
18267WAT     H155043   1.725   2.400   3.387
18267WAT     H255044   1.880   2.453   3.379
18268WAT      O55045   5.950   3.665   6.424
18268WAT     H155046   5.854   3.639   6.428
18268WAT     H255047   5.960   3.761   6.451
18269WAT      O55048   1.269   0.686   3.425
18269WAT     H155049   1.182   0.636   3.423
18269WAT     H255050   1.324   0.659   3.347
18270WAT      O55051   6.652   6.286   7.280
18270WAT     H155052   6.729   6.343   7.253
18270WAT     H255053   6.638   6.292   7.379
18271WAT      O55054   0.170   7.669   7.251
18271WAT     H155055   0.258   7.638   7.288
18271WAT     H255056   0.151   7.762   7.283
18272WAT      O55057   3.584   9.388   3.765
18272WAT     H155058   3.512   9.319   3.771
18272WAT     H255059   3.543   9.478   3.752
18273WAT      O55060   3.068   9.117   4.350
18273WAT     H155061   3.001   9.048   4.325
18273WAT     H255062   3.125   9.138   4.271
18274WAT      O55063   2.432   2.762   1.015
18274WAT     H155064   2.398   2.711   1.094
18274WAT     H255065   2.526   2.790   1.032
18275WAT      O55066   4.205   2.633   5.728
18275WAT     H155067   4.114   2.664   5.701
18275WAT     H255068   4.271   2.660   5.657
18276WAT      O55069   7.773   3.884   9.758
18276WAT     H155070   7.772   3.882   9.858
18276WAT     H255071   7.753   3.793   9.723
18277WAT      O55072   5.514   4.920   1.292
18277WAT     H155073   5.589   4.854   1.291
18277WAT     H255074   5.453   4.901   1.368
18278WAT      O55075   6.277   8.644   8.312
18278WAT     H155076   6.207   8.643   8.383
18278WAT     H255077   6.353   8.702   8.341
18279WAT      O55078   3.170   8.175   4.653
18279WAT     H155079   3.177   8.129   4.742
18279WAT     H255080   3.224   8.126   4.585
18280WAT      O55081   9.459   8.724   5.492
18280WAT     H155082   9.377   8.779   5.476
18280WAT     H255083   9.533   8.783   5.525
18281WAT      O55084   0.969   3.958   2.736
18281WAT     H155085   1.010   3.890   2.796
18281WAT     H255086   0.890   4.000   2.781
18282WAT      O55087   4.423   9.577   2.107
18282WAT     H155088   4.440   9.522   2.189
18282WAT     H255089   4.501   9.637   2.091
18283WAT      O55090   1.110   0.755   7.080
18283WAT     H155091   1.140   0.837   7.128
18283WAT     H255092   1.181   0.726   7.015
18284WAT      O55093   6.635   9.128   6.436
18284WAT     H155094   6.547   9.175   6.441
18284WAT     H255095   6.626   9.044   6.382
18285WAT      O55096   8.462   6.013   4.133
18285WAT     H155097   8.444   5.934   4.073
18285WAT     H255098   8.418   6.094   4.094
18286WAT      O55099   1.823   5.392   2.086
18286WAT     H155100   1.748   5.330   2.108
18286WAT     H255101   1.831   5.401   1.987
18287WAT      O55102   0.086   6.068   1.570
18287WAT     H155103   0.175   6.080   1.525
18287WAT     H255104   0.073   6.140   1.638
18288WAT      O55105   4.731   6.477   8.130
18288WAT     H155106   4.798   6.404   8.121
18288WAT     H255107   4.639   6.439   8.119
18289WAT      O55108   2.454   0.326   3.583
18289WAT     H155109   2.445   0.314   3.484
18289WAT     H255110   2.416   0.247   3.631
18290WAT      O55111   7.670   5.666   9.462
18290WAT     H155112   7.619   5.703   9.385
18290WAT     H255113   7.763   5.704   9.462
18291WAT      O55114   3.369   8.668   5.703
18291WAT     H155115   3.453   8.658   5.650
18291WAT     H255116   3.294   8.619   5.657
18292WAT      O55117   8.945   3.282   5.435
18292WAT     H155118   8.915   3.375   5.417
18292WAT     H255119   9.041   3.272   5.408
18293WAT      O55120   8.049   8.291   7.804
18293WAT     H155121   7.957   8.308   7.766
18293WAT     H255122   8.099   8.230   7.742
18294WAT      O55123   7.005   6.855   0.035
18294WAT     H155124   6.951   6.934   0.065
18294WAT     H255125   6.984   6.834  -0.060
18295WAT      O55126   0.870   7.696   7.260
18295WAT     H155127   0.908   7.697   7.168
18295WAT     H255128   0.887   7.607   7.303
18296WAT      O55129   1.578   7.801   0.293
18296WAT     H155130   1.631   7.782   0.211
18296WAT     H255131   1.531   7.717   0.322
18297WAT      O55132   1.747   8.621   9.673
18297WAT     H155133   1.739   8.554   9.747
18297WAT     H255134   1.765   8.573   9.587
18298WAT      O55135   6.013   5.838   2.780
18298WAT     H155136   6.051   5.896   2.708
18298WAT     H255137   6.081   5.826   2.852
18299WAT      O55138   5.495   3.046   2.961
18299WAT     H155139   5.585   3.022   2.999
18299WAT     H255140   5.503   3.061   2.863
18300WAT      O55141   2.302   5.348   1.953
18300WAT     H155142   2.335   5.257   1.980
18300WAT     H255143   2.277   5.400   2.035
18301WAT      O55144   6.974   4.650   8.781
18301WAT     H155145   6.995   4.636   8.878
18301WAT     H255146   7.057   4.636   8.728
18302WAT      O55147   5.853   0.281   8.200
18302WAT     H155148   5.907   0.361   8.176
18302WAT     H255149   5.884   0.246   8.289
18303WAT      O55150   7.231   2.302   5.007
18303WAT     H155151   7.224   2.384   5.063
18303WAT     H255152   7.327   2.273   5.003
18304WAT      O55153   5.813   5.060   8.729
18304WAT     H155154   5.869   5.117   8.668
18304WAT     H255155   5.716   5.084   8.717
18305WAT      O55156   8.726   5.225   4.132
18305WAT     H155157   8.756   5.147   4.077
18305WAT     H255158   8.670   5.192   4.208
18306WAT      O55159   5.097   9.063   0.069
18306WAT     H155160   4.997   9.062   0.073
18306WAT     H255161   5.131   9.156   0.087
18307WAT      O55162   4.384   8.120   5.859
18307WAT     H155163   4.342   8.199   5.903
18307WAT     H255164   4.334   8.037   5.887
18308WAT      O55165   6.675   9.536   6.565
18308WAT     H155166   6.649   9.489   6.649
18308WAT     H255167   6.691   9.468   6.493
18309WAT      O55168   3.907   6.739   4.361
18309WAT     H155169   3.895   6.669   4.431
18309WAT     H255170   3.821   6.790   4.350
18310WAT      O55171   9.837   3.510   3.845
18310WAT     H155172   9.840   3.412   3.868
18310WAT     H255173   9.827   3.520   3.746
18311WAT      O55174   5.772   7.575   5.294
18311WAT     H155175   5.739   7.583   5.200
18311WAT     H255176   5.742   7.655   5.346
18312WAT      O55177   2.580   5.804   7.329
18312WAT     H155178   2.668   5.847   7.350
18312WAT     H255179   2.522   5.868   7.280
18313WAT      O55180   2.909   7.658   6.725
18313WAT     H155181   2.851   7.665   6.807
18313WAT     H255182   2.937   7.563   6.713
18314WAT      O55183   0.976   6.011   8.347
18314WAT     H155184   0.901   6.053   8.399
18314WAT     H255185   1.064   6.043   8.384
18315WAT      O55186   8.221   6.932   5.496
18315WAT     H155187   8.274   6.850   5.474
18315WAT     H255188   8.133   6.906   5.535
18316WAT      O55189   5.118   7.541   1.049
18316WAT     H155190   5.023   7.546   1.018
18316WAT     H255191   5.173   7.610   1.001
18317WAT      O55192   2.849   6.341   1.190
18317WAT     H155193   2.807   6.266   1.139
18317WAT     H255194   2.941   6.358   1.155
18318WAT      O55195   4.523   0.382   5.892
18318WAT     H155196   4.456   0.308   5.884
18318WAT     H255197   4.613   0.343   5.913
18319WAT      O55198   3.194   0.950   0.494
18319WAT     H155199   3.155   0.892   0.422
18319WAT     H255200   3.121   0.989   0.548
18320WAT      O55201   0.498   8.775   9.681
18320WAT     H155202   0.533   8.862   9.643
18320WAT     H255203   0.566   8.737   9.743
18321WAT      O55204   7.305   2.650   2.290
18321WAT     H155205   7.362   2.732   2.286
18321WAT     H255206   7.248   2.652   2.372
18322WAT      O55207   9.548   2.702   8.084
18322WAT     H155208   9.608   2.748   8.019
18322WAT     H255209   9.503   2.625   8.039
18323WAT      O55210   0.274   7.773   7.002
18323WAT     H155211   0.323   7.843   7.054
18323WAT     H255212   0.237   7.704   7.064
18324WAT      O55213   3.232   2.499   1.033
18324WAT     H155214   3.140   2.520   1.065
18324WAT     H255215   3.297   2.562   1.075
18325WAT      O55216   3.453   7.250   8.002
18325WAT     H155217   3.533   7.214   7.954
18325WAT     H255218   3.476   7.262   8.099
18326WAT      O55219   2.806   2.681   5.224
18326WAT     H155220   2.754   2.696   5.140
18326WAT     H255221   2.872   2.756   5.237
18327WAT      O55222   0.643   6.648   9.089
18327WAT     H155223   0.624   6.744   9.107
18327WAT     H255224   0.717   6.616   9.148
18328WAT      O55225   7.459   2.009   0.350
18328WAT     H155226   7.505   2.037   0.434
18328WAT     H255227   7.519   2.026   0.272
18329WAT      O55228   7.671   3.040   1.823
18329WAT     H155229   7.662   2.990   1.736
18329WAT     H255230   7.648   3.136   1.808
18330WAT      O55231   2.624   4.767   6.300
18330WAT     H155232   2.633   4.855   6.254
18330WAT     H255233   2.684   4.765   6.380
18331WAT      O55234   6.320   6.807   9.735
18331WAT     H155235   6.276   6.838   9.651
18331WAT     H255236   6.359   6.885   9.784
18332WAT      O55237   8.322   6.366   8.236
18332WAT     H155238   8.387   6.327   8.301
18332WAT     H255239   8.251   6.298   8.215
18333WAT      O55240   8.996   4.010   7.143
18333WAT     H155241   8.940   4.091   7.128
18333WAT     H255242   9.044   3.985   7.059
18334WAT      O55243   8.552   6.135   4.620
18334WAT     H155244   8.480   6.124   4.688
18334WAT     H255245   8.524   6.089   4.535
18335WAT      O55246   1.083   8.337   4.173
18335WAT     H155247   1.058   8.269   4.105
18335WAT     H255248   1.007   8.349   4.237
18336WAT      O55249   2.151   2.198   9.044
18336WAT     H155250   2.108   2.121   9.090
18336WAT     H255251   2.210   2.247   9.108
18337WAT      O55252   1.897   3.345   8.061
18337WAT     H155253   1.879   3.420   7.998
18337WAT     H255254   1.940   3.270   8.012
18338WAT      O55255   1.416   6.975   0.640
18338WAT     H155256   1.405   7.074   0.648
18338WAT     H255257   1.333   6.930   0.672
18339WAT      O55258   9.246   4.304   8.103
18339WAT     H155259   9.203   4.265   8.185
18339WAT     H255260   9.176   4.326   8.036
18340WAT      O55261   2.212   5.265   8.357
18340WAT     H155262   2.140   5.202   8.328
18340WAT     H255263   2.278   5.216   8.414
18341WAT      O55264   2.516   4.602   6.081
18341WAT     H155265   2.557   4.512   6.062
18341WAT     H255266   2.546   4.634   6.170
18342WAT      O55267   3.655   4.272   3.678
18342WAT     H155268   3.711   4.348   3.710
18342WAT     H255269   3.713   4.206   3.630
18343WAT      O55270   6.006   2.651   4.685
18343WAT     H155271   6.017   2.553   4.702
18343WAT     H255272   6.085   2.701   4.721
18344WAT      O55273   2.270   4.429   1.633
18344WAT     H155274   2.273   4.526   1.657
18344WAT     H255275   2.359   4.388   1.653
18345WAT      O55276   3.685   1.309   5.427
18345WAT     H155277   3.772   1.292   5.473
18345WAT     H255278   3.681   1.256   5.342
18346WAT      O55279   6.633   1.822   3.198
18346WAT     H155280   6.651   1.729   3.230
18346WAT     H255281   6.660   1.888   3.268
18347WAT      O55282   4.371   4.512   2.909
18347WAT     H155283   4.327   4.564   2.835
18347WAT     H255284   4.317   4.431   2.929
18348WAT      O55285   9.513   2.363   8.272
18348WAT     H155286   9.482   2.432   8.337
18348WAT     H255287   9.498   2.272   8.311
18349WAT      O55288   3.974   1.533   8.560
18349WAT     H155289   3.985   1.468   8.485
18349WAT     H255290   3.930   1.616   8.525
18350WAT      O55291   5.762   3.776   7.862
18350WAT     H155292   5.853   3.732   7.861
18350WAT     H255293   5.698   3.717   7.911
18351WAT      O55294   4.347   2.932   1.560
18351WAT     H155295   4.337   2.970   1.652
18351WAT     H255296   4.442   2.902   1.546
18352WAT      O55297   3.785   4.799   0.669
18352WAT     H155298   3.839   4.857   0.610
18352WAT     H255299   3.845   4.744   0.727
18353WAT      O55300   7.175   8.347   7.508
18353WAT     H155301   7.272   8.366   7.521
18353WAT     H255302   7.157   8.330   7.411
18354WAT      O55303   7.121   5.809   8.595
18354WAT     H155304   7.204   5.785   8.645
18354WAT     H255305   7.077   5.887   8.639
18355WAT      O55306   3.486   8.911   5.015
18355WAT     H155307   3.508   8.870   4.926
18355WAT     H255308   3.487   8.841   5.086
18356WAT      O55309   3.883   4.938   1.216
18356WAT     H155310   3.856   4.843   1.234
18356WAT     H255311   3.973   4.956   1.256
18357WAT      O55312   1.748   8.563   4.016
18357WAT     H155313   1.795   8.617   4.086
18357WAT     H255314   1.755   8.611   3.928
18358WAT      O55315   4.099   9.336   5.296
18358WAT     H155316   4.002   9.361   5.293
18358WAT     H255317   4.154   9.420   5.304
18359WAT      O55318   1.723   4.344   5.375
18359WAT     H155319   1.660   4.308   5.443
18359WAT     H255320   1.787   4.408   5.418
18360WAT      O55321   7.825   8.841   0.646
18360WAT     H155322   7.918   8.805   0.637
18360WAT     H255323   7.824   8.938   0.622
18361WAT      O55324   4.716   4.959   8.048
18361WAT     H155325   4.636   5.014   8.072
18361WAT     H255326   4.691   4.890   7.980
18362WAT      O55327   2.871   2.226   1.131
18362WAT     H155328   2.915   2.170   1.061
18362WAT     H255329   2.773   2.235   1.110
18363WAT      O55330   7.090   5.122   8.850
18363WAT     H155331   7.039   5.120   8.936
18363WAT     H255332   7.053   5.054   8.787
18364WAT      O55333   7.053   1.398   6.685
18364WAT     H155334   7.101   1.485   6.685
18364WAT     H255335   6.995   1.391   6.603
18365WAT      O55336   5.628   4.094   4.792
18365WAT     H155337   5.716   4.141   4.809
18365WAT     H255338   5.563   4.119   4.864
18366WAT      O55339   1.289   7.242   1.899
18366WAT     H155340   1.246   7.261   1.811
18366WAT     H255341   1.385   7.216   1.885
18367WAT      O55342   0.529   6.518   4.613
18367WAT     H155343   0.572   6.525   4.704
18367WAT     H255344   0.588   6.563   4.546
18368WAT      O55345   3.325   8.818   9.388
18368WAT     H155346   3.255   8.825   9.317
18368WAT     H255347   3.284   8.782   9.472
18369WAT      O55348   7.382   1.968   6.041
18369WAT     H155349   7.396   1.960   5.942
18369WAT     H255350   7.466   1.940   6.088
18370WAT      O55351   6.251   9.655   8.769
18370WAT     H155352   6.155   9.683   8.756
18370WAT     H255353   6.308   9.702   8.702
18371WAT      O55354   5.028   3.294   9.712
18371WAT     H155355   5.112   3.255   9.750
18371WAT     H255356   4.950   3.237   9.738
18372WAT      O55357   1.981   1.950   7.470
18372WAT     H155358   1.957   2.027   7.528
18372WAT     H255359   1.898   1.907   7.434
18373WAT      O55360   4.991   7.613   6.525
18373WAT     H155361   4.922   7.589   6.457
18373WAT     H255362   4.967   7.700   6.568
18374WAT      O55363   4.504   9.445   8.555
18374WAT     H155364   4.484   9.503   8.476
18374WAT     H255365   4.528   9.353   8.523
18375WAT      O55366   2.784   2.356   3.610
18375WAT     H155367   2.686   2.376   3.608
18375WAT     H255368   2.817   2.358   3.704
18376WAT      O55369   9.011   2.467   5.244
18376WAT     H155370   9.040   2.378   5.278
18376WAT     H255371   9.038   2.477   5.149
18377WAT      O55372   5.618   8.727   3.622
18377WAT     H155373   5.527   8.769   3.631
18377WAT     H255374   5.682   8.773   3.684
18378WAT      O55375   6.585   6.751   7.519
18378WAT     H155376   6.550   6.752   7.425
18378WAT     H255377   6.553   6.669   7.566
18379WAT      O55378   9.778   6.481   5.712
18379WAT     H155379   9.762   6.551   5.642
18379WAT     H255380   9.763   6.520   5.802
18380WAT      O55381   9.765   5.757   2.556
18380WAT     H155382   9.836   5.746   2.486
18380WAT     H255383   9.777   5.845   2.602
18381WAT      O55384   8.703   5.843   8.877
18381WAT     H155385   8.625   5.894   8.842
18381WAT     H255386   8.733   5.777   8.808
18382WAT      O55387   7.426   1.712   9.460
18382WAT     H155388   7.386   1.625   9.431
18382WAT     H255389   7.438   1.771   9.380
18383WAT      O55390   7.138   5.341   8.494
18383WAT     H155391   7.152   5.256   8.443
18383WAT     H255392   7.171   5.418   8.439
18384WAT      O55393   3.006   4.731   4.218
18384WAT     H155394   2.939   4.657   4.218
18384WAT     H255395   2.980   4.800   4.285
18385WAT      O55396   4.391   9.127   5.963
18385WAT     H155397   4.353   9.135   5.871
18385WAT     H255398   4.451   9.204   5.981
18386WAT      O55399   7.185   7.829   7.809
18386WAT     H155400   7.184   7.909   7.749
18386WAT     H255401   7.209   7.748   7.756
18387WAT      O55402   3.058   0.667   1.974
18387WAT     H155403   3.095   0.753   2.010
18387WAT     H255404   2.959   0.677   1.963
18388WAT      O55405   8.138   8.803   1.916
18388WAT     H155406   8.180   8.756   1.838
18388WAT     H255407   8.208   8.846   1.972
18389WAT      O55408   8.268   4.171   9.006
18389WAT     H155409   8.264   4.265   9.040
18389WAT     H255410   8.175   4.140   8.985
18390WAT      O55411   8.733   5.598   6.261
18390WAT     H155412   8.685   5.686   6.254
18390WAT     H255413   8.698   5.535   6.191
18391WAT      O55414   8.283   4.947   0.466
18391WAT     H155415   8.335   5.002   0.401
18391WAT     H255416   8.285   4.990   0.556
18392WAT      O55417   9.818   5.238   0.367
18392WAT     H155418   9.890   5.264   0.431
18392WAT     H255419   9.746   5.188   0.417
18393WAT      O55420   3.836   4.859   5.821
18393WAT     H155421   3.927   4.884   5.787
18393WAT     H255422   3.777   4.833   5.744
18394WAT      O55423   7.475   5.415   0.927
18394WAT     H155424   7.545   5.356   0.967
18394WAT     H255425   7.474   5.403   0.828
18395WAT      O55426   8.145   5.546   2.473
18395WAT     H155427   8.103   5.457   2.458
18395WAT     H255428   8.177   5.553   2.567
18396WAT      O55429   8.005   7.568   4.085
18396WAT     H155430   7.952   7.653   4.084
18396WAT     H255431   8.099   7.587   4.056
18397WAT      O55432   3.366   7.479   6.975
18397WAT     H155433   3.460   7.501   6.951
18397WAT     H255434   3.324   7.426   6.902
18398WAT      O55435   4.881   1.041   8.474
18398WAT     H155436   4.873   1.116   8.408
18398WAT     H255437   4.967   1.050   8.523
18399WAT      O55438   4.964   6.435   9.817
18399WAT     H155439   4.966   6.448   9.718
18399WAT     H255440   4.960   6.337   9.837
18400WAT      O55441   8.104   8.225   0.046
18400WAT     H155442   8.052   8.300   0.006
18400WAT     H255443   8.201   8.235   0.021
18401WAT      O55444   5.414   0.140   0.294
18401WAT     H155445   5.471   0.058   0.286
18401WAT     H255446   5.429   0.199   0.215
18402WAT      O55447   6.886   7.945   2.746
18402WAT     H155448   6.818   7.940   2.673
18402WAT     H255449   6.928   8.036   2.745
18403WAT      O55450   3.774   1.080   7.064
18403WAT     H155451   3.734   1.172   7.064
18403WAT     H255452   3.748   1.032   7.148
18404WAT      O55453   6.052   6.322   8.148
18404WAT     H155454   6.008   6.336   8.059
18404WAT     H255455   6.081   6.227   8.157
18405WAT      O55456   8.701   7.448   6.185
18405WAT     H155457   8.714   7.506   6.265
18405WAT     H255458   8.632   7.488   6.125
18406WAT      O55459   3.514   5.203   2.885
18406WAT     H155460   3.446   5.234   2.951
18406WAT     H255461   3.473   5.200   2.794
18407WAT      O55462   6.510   9.726   3.057
18407WAT     H155463   6.516   9.675   3.142
18407WAT     H255464   6.599   9.767   3.036
18408WAT      O55465   4.486   8.199   9.790
18408WAT     H155466   4.445   8.153   9.869
18408WAT     H255467   4.437   8.173   9.707
18409WAT      O55468   9.168   4.154   9.452
18409WAT     H155469   9.171   4.179   9.355
18409WAT     H255470   9.117   4.224   9.502
18410WAT      O55471   1.805   7.259   2.353
18410WAT     H155472   1.736   7.328   2.374
18410WAT     H255473   1.773   7.200   2.279
18411WAT      O55474   3.652   3.299   2.510
18411WAT     H155475   3.660   3.373   2.578
18411WAT     H255476   3.602   3.222   2.550
18412WAT      O55477   8.746   0.853   2.675
18412WAT     H155478   8.796   0.921   2.621
18412WAT     H255479   8.799   0.832   2.758
18413WAT      O55480   6.242   0.275   6.102
18413WAT     H155481   6.306   0.228   6.041
18413WAT     H255482   6.177   0.209   6.141
18414WAT      O55483   1.015   4.172   1.485
18414WAT     H155484   1.068   4.088   1.479
18414WAT     H255485   1.028   4.213   1.576
18415WAT      O55486   8.865   0.674   4.760
18415WAT     H155487   8.872   0.673   4.859
18415WAT     H255488   8.874   0.581   4.724
18416WAT      O55489   4.970   8.039   7.984
18416WAT     H155490   4.944   8.134   7.968
18416WAT     H255491   4.931   8.008   8.071
18417WAT      O55492   2.577   8.762   5.818
18417WAT     H155493   2.637   8.688   5.789
18417WAT     H255494   2.632   8.840   5.849
18418WAT      O55495   9.766   2.522   9.405
18418WAT     H155496   9.847   2.472   9.374
18418WAT     H255497   9.770   2.533   9.505
18419WAT      O55498   5.504   7.069   8.416
18419WAT     H155499   5.465   7.160   8.407
18419WAT     H255500   5.448   7.015   8.479
18420WAT      O55501   6.890   8.035   6.238
18420WAT     H155502   6.856   8.127   6.220
18420WAT     H255503   6.986   8.040   6.267
18421WAT      O55504   1.877   4.054   5.330
18421WAT     H155505   1.884   4.066   5.231
18421WAT     H255506   1.896   4.141   5.375
18422WAT      O55507   1.018   5.369   6.215
18422WAT     H155508   1.089   5.360   6.285
18422WAT     H255509   0.992   5.278   6.183
18423WAT      O55510   5.934   7.714   4.752
18423WAT     H155511   5.920   7.792   4.812
18423WAT     H255512   5.846   7.682   4.716
18424WAT      O55513   1.818   2.991   1.606
18424WAT     H155514   1.893   2.975   1.670
18424WAT     H255515   1.792   3.088   1.609
18425WAT      O55516   8.394   5.326   6.545
18425WAT     H155517   8.430   5.411   6.507
18425WAT     H255518   8.445   5.304   6.628
18426WAT      O55519   5.085   9.037   6.628
18426WAT     H155520   5.132   9.033   6.717
18426WAT     H255521   5.095   9.129   6.590
18427WAT      O55522   2.151   8.343   1.863
18427WAT     H155523   2.221   8.272   1.863
18427WAT     H255524   2.158   8.396   1.778
18428WAT      O55525   7.101   9.091   9.890
18428WAT     H155526   7.124   9.141   9.806
18428WAT     H255527   7.064   9.155   9.958
18429WAT      O55528   1.200   2.630   2.706
18429WAT     H155529   1.130   2.653   2.773
18429WAT     H255530   1.272   2.577   2.749
18430WAT      O55531   5.913   6.360   9.802
18430WAT     H155532   5.892   6.273   9.847
18430WAT     H255533   5.999   6.396   9.837
18431WAT      O55534   2.436   1.823   2.229
18431WAT     H155535   2.513   1.787   2.177
18431WAT     H255536   2.359   1.760   2.222
18432WAT      O55537   7.441   6.036   5.168
18432WAT     H155538   7.361   6.086   5.136
18432WAT     H255539   7.475   6.077   5.253
18433WAT      O55540   4.104   9.682   8.132
18433WAT     H155541   4.117   9.718   8.224
18433WAT     H255542   4.060   9.592   8.138
18434WAT      O55543   6.173   3.446   1.026
18434WAT     H155544   6.089   3.470   0.976
18434WAT     H255545   6.169   3.350   1.054
18435WAT      O55546   6.159   9.015   1.573
18435WAT     H155547   6.132   8.980   1.483
18435WAT     H255548   6.155   9.115   1.572
18436WAT      O55549   3.962   5.020   0.957
18436WAT     H155550   3.944   5.017   1.055
18436WAT     H255551   3.890   5.072   0.911
18437WAT      O55552   4.721   0.189   7.002
18437WAT     H155553   4.623   0.201   7.017
18437WAT     H255554   4.737   0.107   6.947
18438WAT      O55555   0.603   4.763   1.888
18438WAT     H155556   0.658   4.837   1.925
18438WAT     H255557   0.518   4.755   1.941
18439WAT      O55558   8.429   0.015   9.767
18439WAT     H155559   8.471   0.035   9.856
18439WAT     H255560   8.330   0.021   9.775
18440WAT      O55561   6.646   0.504   9.262
18440WAT     H155562   6.724   0.483   9.203
18440WAT     H255563   6.573   0.546   9.207
18441WAT      O55564   9.543   5.503   9.641
18441WAT     H155565   9.547   5.481   9.544
18441WAT     H255566   9.467   5.454   9.684
18442WAT      O55567   4.374   8.415   0.922
18442WAT     H155568   4.282   8.430   0.957
18442WAT     H255569   4.418   8.503   0.904
18443WAT      O55570   8.625   0.053   5.142
18443WAT     H155571   8.611  -0.027   5.200
18443WAT     H255572   8.721   0.059   5.115
18444WAT      O55573   7.861   6.995   1.175
18444WAT     H155574   7.764   6.980   1.198
18444WAT     H255575   7.918   6.929   1.223
18445WAT      O55576   5.972   5.954   6.039
18445WAT     H155577   6.036   5.877   6.036
18445WAT     H255578   5.879   5.920   6.050
18446WAT      O55579   2.294   6.626   4.702
18446WAT     H155580   2.221   6.638   4.769
18446WAT     H255581   2.375   6.590   4.748
18447WAT      O55582   5.585   5.682   4.069
18447WAT     H155583   5.618   5.765   4.114
18447WAT     H255584   5.543   5.621   4.137
18448WAT      O55585   3.250   5.082   6.413
18448WAT     H155586   3.330   5.032   6.447
18448WAT     H255587   3.280   5.153   6.349
18449WAT      O55588   3.447   7.946   1.616
18449WAT     H155589   3.459   7.995   1.702
18449WAT     H255590   3.391   8.002   1.555
18450WAT      O55591   0.390   3.233   3.275
18450WAT     H155592   0.364   3.214   3.180
18450WAT     H255593   0.487   3.215   3.288
18451WAT      O55594   9.786   3.322   6.054
18451WAT     H155595   9.866   3.355   6.105
18451WAT     H255596   9.802   3.229   6.023
18452WAT      O55597   6.146   0.904   7.412
18452WAT     H155598   6.068   0.955   7.376
18452WAT     H255599   6.213   0.889   7.339
18453WAT      O55600   2.928   6.470   0.767
18453WAT     H155601   2.934   6.391   0.706
18453WAT     H255602   2.836   6.508   0.763
18454WAT      O55603   8.343   0.554   4.576
18454WAT     H155604   8.333   0.492   4.498
18454WAT     H255605   8.419   0.618   4.558
18455WAT      O55606   5.755   0.347   0.799
18455WAT     H155607   5.750   0.382   0.705
18455WAT     H255608   5.850   0.348   0.830
18456WAT      O55609   4.879   8.596   2.881
18456WAT     H155610   4.971   8.596   2.842
18456WAT     H255611   4.835   8.508   2.863
18457WAT      O55612   2.355   0.690   2.742
18457WAT     H155613   2.286   0.627   2.708
18457WAT     H255614   2.334   0.714   2.837
18458WAT      O55615   4.987   3.463   6.846
18458WAT     H155616   5.072   3.516   6.847
18458WAT     H255617   4.910   3.523   6.867
18459WAT      O55618   8.404   4.206   0.490
18459WAT     H155619   8.455   4.178   0.572
18459WAT     H255620   8.314   4.163   0.491
18460WAT      O55621   8.297   1.353   7.067
18460WAT     H155622   8.249   1.440   7.081
18460WAT     H255623   8.233   1.277   7.078
18461WAT      O55624   2.364   0.565   7.153
18461WAT     H155625   2.310   0.481   7.144
18461WAT     H255626   2.333   0.632   7.085
18462WAT      O55627   2.640   7.430   0.704
18462WAT     H155628   2.697   7.348   0.696
18462WAT     H255629   2.650   7.469   0.795
18463WAT      O55630   4.326   9.560   4.104
18463WAT     H155631   4.410   9.603   4.071
18463WAT     H255632   4.247   9.611   4.071
18464WAT      O55633   7.840   3.022   6.259
18464WAT     H155634   7.764   2.960   6.237
18464WAT     H255635   7.807   3.117   6.255
18465WAT      O55636   9.803   0.897   4.453
18465WAT     H155637   9.866   0.869   4.381
18465WAT     H255638   9.813   0.996   4.469
18466WAT      O55639   0.331   5.817   6.377
18466WAT     H155640   0.288   5.895   6.424
18466WAT     H255641   0.386   5.766   6.443
18467WAT      O55642   4.315   9.229   2.468
18467WAT     H155643   4.363   9.311   2.436
18467WAT     H255644   4.217   9.239   2.451
18468WAT      O55645   8.459   6.800   7.096
18468WAT     H155646   8.499   6.862   7.163
18468WAT     H255647   8.478   6.705   7.122
18469WAT      O55648   6.908   4.216   5.534
18469WAT     H155649   6.908   4.174   5.624
18469WAT     H255650   6.921   4.315   5.543
18470WAT      O55651   2.002   4.324   0.553
18470WAT     H155652   1.981   4.236   0.511
18470WAT     H255653   2.100   4.330   0.570
18471WAT      O55654   8.452   2.901   5.738
18471WAT     H155655   8.449   2.821   5.798
18471WAT     H255656   8.514   2.969   5.778
18472WAT      O55657   1.732   7.879   4.115
18472WAT     H155658   1.693   7.850   4.203
18472WAT     H255659   1.795   7.955   4.131
18473WAT      O55660   6.306   0.568   7.318
18473WAT     H155661   6.301   0.551   7.417
18473WAT     H255662   6.369   0.644   7.300
18474WAT      O55663   4.937   5.842   8.352
18474WAT     H155664   4.982   5.904   8.288
18474WAT     H255665   5.004   5.808   8.418
18475WAT      O55666   0.360   6.857   0.237
18475WAT     H155667   0.316   6.835   0.324
18475WAT     H255668   0.322   6.942   0.201
18476WAT      O55669   2.688   3.098   3.772
18476WAT     H155670   2.702   3.035   3.849
18476WAT     H255671   2.646   3.182   3.805
18477WAT      O55672   9.739   5.705   0.103
18477WAT     H155673   9.782   5.652   0.176
18477WAT     H255674   9.778   5.677   0.015
18478WAT      O55675   4.989   3.216   7.280
18478WAT     H155676   5.015   3.155   7.205
18478WAT     H255677   4.924   3.169   7.340
18479WAT      O55678   3.184   6.356   1.954
18479WAT     H155679   3.250   6.376   2.026
18479WAT     H255680   3.215   6.395   1.868
18480WAT      O55681   6.549   3.484   4.001
18480WAT     H155682   6.465   3.537   3.997
18480WAT     H255683   6.574   3.469   4.097
18481WAT      O55684   4.166   4.719   7.319
18481WAT     H155685   4.219   4.650   7.368
18481WAT     H255686   4.072   4.721   7.353
18482WAT      O55687   7.715   7.956   2.717
18482WAT     H155688   7.634   7.979   2.663
18482WAT     H255689   7.718   8.012   2.800
18483WAT      O55690   6.020   6.709   4.298
18483WAT     H155691   6.104   6.723   4.350
18483WAT     H255692   6.023   6.620   4.252
18484WAT      O55693   5.457   0.734   4.868
18484WAT     H155694   5.539   0.708   4.817
18484WAT     H255695   5.405   0.801   4.814
18485WAT      O55696   8.238   4.368   2.903
18485WAT     H155697   8.245   4.465   2.927
18485WAT     H255698   8.251   4.357   2.805
18486WAT      O55699   0.989   8.819   0.978
18486WAT     H155700   1.048   8.852   1.052
18486WAT     H255701   1.045   8.793   0.899
18487WAT      O55702   6.673   6.466   0.462
18487WAT     H155703   6.696   6.439   0.368
18487WAT     H255704   6.673   6.385   0.521
18488WAT      O55705   0.659   6.030   2.207
18488WAT     H155706   0.643   6.122   2.243
18488WAT     H255707   0.678   5.967   2.283
18489WAT      O55708   8.960   1.407   8.890
18489WAT     H155709   9.051   1.399   8.850
18489WAT     H255710   8.895   1.433   8.819
18490WAT      O55711   1.055   1.701   6.736
18490WAT     H155712   1.085   1.785   6.780
18490WAT     H255713   1.045   1.716   6.638
18491WAT      O55714   0.721   7.903   4.408
18491WAT     H155715   0.659   7.978   4.385
18491WAT     H255716   0.677   7.816   4.387
18492WAT      O55717   0.144   4.340   9.252
18492WAT     H155718   0.209   4.405   9.212
18492WAT     H255719   0.192   4.280   9.316
18493WAT      O55720   8.139   4.110   3.969
18493WAT     H155721   8.232   4.075   3.969
18493WAT     H255722   8.118   4.148   3.879
18494WAT      O55723   6.984   8.250   0.930
18494WAT     H155724   7.018   8.280   1.018
18494WAT     H255725   6.987   8.327   0.865
18495WAT      O55726   6.167   7.441   9.499
18495WAT     H155727   6.114   7.450   9.583
18495WAT     H255728   6.107   7.457   9.420
18496WAT      O55729   1.615   9.140   2.880
18496WAT     H155730   1.563   9.225   2.878
18496WAT     H255731   1.694   9.148   2.819
18497WAT      O55732   8.268   3.831   3.020
18497WAT     H155733   8.230   3.910   2.972
18497WAT     H255734   8.201   3.795   3.084
18498WAT      O55735   1.997   2.700   0.727
18498WAT     H155736   1.920   2.694   0.664
18498WAT     H255737   1.992   2.786   0.778
18499WAT      O55738   5.761   3.830   2.629
18499WAT     H155739   5.853   3.867   2.643
18499WAT     H255740   5.721   3.803   2.716
18500WAT      O55741   3.326   7.217   7.569
18500WAT     H155742   3.279   7.293   7.613
18500WAT     H255743   3.420   7.243   7.547
18501WAT      O55744   8.539   1.659   3.927
18501WAT     H155745   8.556   1.560   3.926
18501WAT     H255746   8.441   1.676   3.938
18502WAT      O55747   6.973   1.961   7.691
18502WAT     H155748   6.963   1.982   7.788
18502WAT     H255749   7.029   2.031   7.647
18503WAT      O55750   9.733   4.174   1.906
18503WAT     H155751   9.809   4.126   1.862
18503WAT     H255752   9.656   4.110   1.918
18504WAT      O55753   4.851   7.267   1.324
18504WAT     H155754   4.797   7.183   1.321
18504WAT     H255755   4.874   7.296   1.231
18505WAT      O55756   7.590   9.798   1.407
18505WAT     H155757   7.548   9.882   1.374
18505WAT     H255758   7.518   9.736   1.440
18506WAT      O55759   1.074   3.797   4.245
18506WAT     H155760   0.996   3.782   4.305
18506WAT     H255761   1.050   3.772   4.151
18507WAT      O55762   1.017   3.292   1.472
18507WAT     H155763   0.944   3.317   1.408
18507WAT     H255764   1.030   3.365   1.539
18508WAT      O55765   3.760   6.004   0.887
18508WAT     H155766   3.695   6.051   0.947
18508WAT     H255767   3.720   5.918   0.855
18509WAT      O55768   9.491   0.534   5.944
18509WAT     H155769   9.403   0.578   5.929
18509WAT     H255770   9.549   0.547   5.863
18510WAT      O55771   4.583   0.807   3.132
18510WAT     H155772   4.592   0.905   3.149
18510WAT     H255773   4.531   0.765   3.206
18511WAT      O55774   5.391   1.933   5.715
18511WAT     H155775   5.481   1.959   5.682
18511WAT     H255776   5.364   1.993   5.791
18512WAT      O55777   5.971   2.057   4.685
18512WAT     H155778   5.950   2.071   4.588
18512WAT     H255779   5.889   2.030   4.734
18513WAT      O55780   2.605   4.417   4.343
18513WAT     H155781   2.681   4.409   4.409
18513WAT     H255782   2.548   4.495   4.367
18514WAT      O55783   1.218   0.016   2.826
18514WAT     H155784   1.168   0.028   2.911
18514WAT     H255785   1.164   0.052   2.750
18515WAT      O55786   6.049   6.668   9.212
18515WAT     H155787   6.136   6.624   9.192
18515WAT     H255788   6.001   6.617   9.284
18516WAT      O55789   1.461   8.545   4.551
18516WAT     H155790   1.410   8.470   4.509
18516WAT     H255791   1.432   8.556   4.646
18517WAT      O55792   6.737   0.974   9.252
18517WAT     H155793   6.662   0.920   9.214
18517WAT     H255794   6.780   1.027   9.180
18518WAT      O55795   8.017   9.443   4.986
18518WAT     H155796   8.112   9.471   5.002
18518WAT     H255797   7.977   9.408   5.070
18519WAT      O55798   5.964   8.340   9.331
18519WAT     H155799   5.973   8.439   9.333
18519WAT     H255800   5.952   8.309   9.237
18520WAT      O55801   3.844   7.530   4.428
18520WAT     H155802   3.754   7.503   4.393
18520WAT     H255803   3.867   7.622   4.396
18521WAT      O55804   5.839   0.641   6.806
18521WAT     H155805   5.817   0.544   6.796
18521WAT     H255806   5.938   0.653   6.809
18522WAT      O55807   0.381   3.386   0.488
18522WAT     H155808   0.308   3.447   0.518
18522WAT     H255809   0.467   3.414   0.531
18523WAT      O55810   6.907   1.296   4.022
18523WAT     H155811   6.910   1.262   4.116
18523WAT     H255812   6.910   1.396   4.024
18524WAT      O55813   5.375   2.531   4.285
18524WAT     H155814   5.438   2.593   4.330
18524WAT     H255815   5.332   2.471   4.353
18525WAT      O55816   1.382   6.629   6.154
18525WAT     H155817   1.372   6.729   6.153
18525WAT     H255818   1.425   6.601   6.240
18526WAT      O55819   0.935   8.237   1.079
18526WAT     H155820   0.926   8.271   0.985
18526WAT     H255821   0.868   8.283   1.137
18527WAT      O55822   2.423   9.446   0.878
18527WAT     H155823   2.363   9.522   0.853
18527WAT     H255824   2.480   9.421   0.800
18528WAT      O55825   1.130   8.165   5.646
18528WAT     H155826   1.144   8.213   5.733
18528WAT     H255827   1.113   8.231   5.574
18529WAT      O55828   1.625   9.723   2.741
18529WAT     H155829   1.533   9.687   2.755
18529WAT     H255830   1.631   9.816   2.778
18530WAT      O55831   9.178   6.050   3.765
18530WAT     H155832   9.187   5.996   3.848
18530WAT     H255833   9.107   6.011   3.707
18531WAT      O55834   7.260   6.958   3.959
18531WAT     H155835   7.325   6.892   3.995
18531WAT     H255836   7.308   7.025   3.902
18532WAT      O55837   9.544   5.048   4.059
18532WAT     H155838   9.459   5.087   4.024
18532WAT     H255839   9.543   5.052   4.159
18533WAT      O55840   3.233   4.107   0.719
18533WAT     H155841   3.198   4.156   0.639
18533WAT     H255842   3.191   4.017   0.724
18534WAT      O55843   6.008   3.575   6.676
18534WAT     H155844   6.096   3.602   6.715
18534WAT     H255845   6.006   3.599   6.579
18535WAT      O55846   1.387   2.888   5.197
18535WAT     H155847   1.411   2.974   5.151
18535WAT     H255848   1.448   2.815   5.166
18536WAT      O55849   8.034   5.600   4.965
18536WAT     H155850   8.066   5.694   4.978
18536WAT     H255851   8.092   5.538   5.017
18537WAT      O55852   3.272   1.308   4.843
18537WAT     H155853   3.232   1.352   4.762
18537WAT     H255854   3.201   1.259   4.893
18538WAT      O55855   6.755   2.478   1.145
18538WAT     H155856   6.665   2.447   1.113
18538WAT     H255857   6.814   2.399   1.163
18539WAT      O55858   7.793   0.564   0.655
18539WAT     H155859   7.887   0.569   0.690
18539WAT     H255860   7.795   0.550   0.556
18540WAT      O55861   9.844   3.391   4.243
18540WAT     H155862   9.776   3.425   4.178
18540WAT     H255863   9.803   3.385   4.334
18541WAT      O55864   4.575   1.169   1.222
18541WAT     H155865   4.563   1.264   1.193
18541WAT     H255866   4.629   1.120   1.154
18542WAT      O55867   0.147   1.556   6.411
18542WAT     H155868   0.184   1.490   6.476
18542WAT     H255869   0.083   1.511   6.349
18543WAT      O55870   8.736   1.509   3.066
18543WAT     H155871   8.693   1.510   2.976
18543WAT     H255872   8.835   1.519   3.056
18544WAT      O55873   6.428   9.655   0.130
18544WAT     H155874   6.381   9.710   0.061
18544WAT     H255875   6.491   9.592   0.085
18545WAT      O55876   7.711   2.108   8.738
18545WAT     H155877   7.750   2.142   8.652
18545WAT     H255878   7.694   2.010   8.731
18546WAT      O55879   6.206   4.060   7.190
18546WAT     H155880   6.120   4.048   7.141
18546WAT     H255881   6.238   3.971   7.223
18547WAT      O55882   4.823   4.576   1.965
18547WAT     H155883   4.861   4.599   1.876
18547WAT     H255884   4.728   4.605   1.970
18548WAT      O55885   4.076   6.841   8.801
18548WAT     H155886   4.104   6.783   8.725
18548WAT     H255887   4.023   6.788   8.867
18549WAT      O55888   3.620   9.784   9.563
18549WAT     H155889   3.686   9.848   9.602
18549WAT     H255890   3.592   9.718   9.632
18550WAT      O55891   6.327   1.935   0.019
18550WAT     H155892   6.326   1.875  -0.061
18550WAT     H255893   6.410   1.917   0.073
18551WAT      O55894   9.371   0.861   0.150
18551WAT     H155895   9.351   0.950   0.107
18551WAT     H255896   9.284   0.817   0.174
18552WAT      O55897   5.081   0.916   9.703
18552WAT     H155898   5.108   0.983   9.635
18552WAT     H255899   5.154   0.847   9.712
18553WAT      O55900   2.061   8.787   6.694
18553WAT     H155901   2.046   8.870   6.639
18553WAT     H255902   1.973   8.750   6.723
18554WAT      O55903   3.369   0.665   6.952
18554WAT     H155904   3.424   0.588   6.982
18554WAT     H255905   3.413   0.710   6.874
18555WAT      O55906   8.043   3.255   2.776
18555WAT     H155907   7.975   3.325   2.800
18555WAT     H255908   8.134   3.296   2.774
18556WAT      O55909   8.050   2.569   4.739
18556WAT     H155910   8.032   2.620   4.654
18556WAT     H255911   8.135   2.517   4.728
18557WAT      O55912   3.939   8.039   7.796
18557WAT     H155913   3.849   8.000   7.817
18557WAT     H255914   3.983   8.067   7.880
18558WAT      O55915   8.561   9.379   7.600
18558WAT     H155916   8.642   9.361   7.544
18558WAT     H255917   8.576   9.460   7.657
18559WAT      O55918   0.662   3.677   0.664
18559WAT     H155919   0.673   3.595   0.721
18559WAT     H255920   0.577   3.724   0.689
18560WAT      O55921   2.327   8.741   5.511
18560WAT     H155922   2.258   8.682   5.553
18560WAT     H255923   2.377   8.690   5.442
18561WAT      O55924   4.044   0.699   9.432
18561WAT     H155925   4.117   0.632   9.416
18561WAT     H255926   4.079   0.791   9.416
18562WAT      O55927   4.854   2.785   5.746
18562WAT     H155928   4.848   2.876   5.787
18562WAT     H255929   4.944   2.773   5.704
18563WAT      O55930   4.419   1.380   0.034
18563WAT     H155931   4.481   1.441   0.083
18563WAT     H255932   4.452   1.367  -0.059
18564WAT      O55933   5.566   6.154   0.554
18564WAT     H155934   5.467   6.155   0.566
18564WAT     H255935   5.589   6.190   0.463
18565WAT      O55936   4.016   4.642   1.932
18565WAT     H155937   4.098   4.634   1.987
18565WAT     H255938   4.024   4.583   1.852
18566WAT      O55939   0.566   1.224   3.066
18566WAT     H155940   0.496   1.245   3.134
18566WAT     H255941   0.528   1.162   2.997
18567WAT      O55942   8.116   9.563   4.113
18567WAT     H155943   8.035   9.577   4.170
18567WAT     H255944   8.111   9.623   4.033
18568WAT      O55945   2.276   2.286   7.245
18568WAT     H155946   2.316   2.260   7.158
18568WAT     H255947   2.214   2.364   7.232
18569WAT      O55948   9.172   7.618   3.634
18569WAT     H155949   9.185   7.588   3.539
18569WAT     H255950   9.094   7.681   3.638
18570WAT      O55951   8.680   2.375   3.150
18570WAT     H155952   8.748   2.301   3.150
18570WAT     H255953   8.599   2.344   3.199
18571WAT      O55954   4.703   4.246   8.320
18571WAT     H155955   4.651   4.202   8.393
18571WAT     H255956   4.651   4.322   8.283
18572WAT      O55957   0.600   3.955   7.510
18572WAT     H155958   0.660   3.952   7.431
18572WAT     H255959   0.572   3.863   7.536
18573WAT      O55960   0.897   1.227   0.476
18573WAT     H155961   0.918   1.318   0.510
18573WAT     H255962   0.977   1.189   0.430
18574WAT      O55963   3.512   3.500   5.297
18574WAT     H155964   3.533   3.477   5.392
18574WAT     H255965   3.502   3.599   5.288
18575WAT      O55966   8.314   1.604   9.757
18575WAT     H155967   8.400   1.561   9.731
18575WAT     H255968   8.238   1.557   9.712
18576WAT      O55969   5.952   8.106   1.625
18576WAT     H155970   5.990   8.069   1.541
18576WAT     H255971   5.898   8.188   1.604
18577WAT      O55972   6.994   4.579   9.072
18577WAT     H155973   7.019   4.667   9.113
18577WAT     H255974   7.057   4.509   9.105
18578WAT      O55975   0.433   4.475   6.434
18578WAT     H155976   0.441   4.405   6.505
18578WAT     H255977   0.472   4.561   6.467
18579WAT      O55978   8.548   4.304   2.926
18579WAT     H155979   8.549   4.216   2.973
18579WAT     H255980   8.499   4.371   2.983
18580WAT      O55981   0.769   9.156   6.715
18580WAT     H155982   0.782   9.094   6.637
18580WAT     H255983   0.845   9.146   6.779
18581WAT      O55984   9.157   7.297   1.062
18581WAT     H155985   9.235   7.234   1.058
18581WAT     H255986   9.075   7.246   1.088
18582WAT      O55987   1.873   3.973   0.377
18582WAT     H155988   1.792   3.914   0.369
18582WAT     H255989   1.844   4.069   0.379
18583WAT      O55990   4.719   5.445   1.873
18583WAT     H155991   4.806   5.461   1.826
18583WAT     H255992   4.712   5.506   1.952
18584WAT      O55993   1.324   9.832   0.240
18584WAT     H155994   1.272   9.755   0.277
18584WAT     H255995   1.399   9.855   0.302
18585WAT      O55996   9.609   9.259   4.062
18585WAT     H155997   9.589   9.355   4.044
18585WAT     H255998   9.708   9.245   4.062
18586WAT      O55999   7.192   0.085   2.638
18586WAT     H156000   7.093   0.072   2.629
18586WAT     H256001   7.214   0.183   2.638
18587WAT      O56002   6.872   5.018   8.447
18587WAT     H156003   6.874   5.117   8.435
18587WAT     H256004   6.911   4.974   8.366
18588WAT      O56005   8.868   9.683   8.079
18588WAT     H156006   8.820   9.744   8.142
18588WAT     H256007   8.871   9.724   7.988
18589WAT      O56008   9.052   3.365   9.201
18589WAT     H156009   9.082   3.297   9.134
18589WAT     H256010   8.978   3.325   9.257
18590WAT      O56011   7.907   5.884   2.620
18590WAT     H156012   7.970   5.862   2.545
18590WAT     H256013   7.914   5.814   2.691
18591WAT      O56014   7.681   8.315   1.838
18591WAT     H156015   7.612   8.362   1.783
18591WAT     H256016   7.646   8.226   1.865
18592WAT      O56017   9.361   7.429   9.328
18592WAT     H156018   9.437   7.408   9.390
18592WAT     H256019   9.275   7.396   9.369
18593WAT      O56020   9.451   2.509   4.558
18593WAT     H156021   9.436   2.539   4.652
18593WAT     H256022   9.386   2.436   4.535
18594WAT      O56023   4.390   2.124   8.139
18594WAT     H156024   4.442   2.116   8.055
18594WAT     H256025   4.326   2.047   8.147
18595WAT      O56026   9.027   4.047   6.736
18595WAT     H156027   8.962   4.111   6.776
18595WAT     H256028   8.984   3.998   6.660
18596WAT      O56029   8.192   5.740   9.452
18596WAT     H156030   8.238   5.686   9.382
18596WAT     H256031   8.256   5.759   9.527
18597WAT      O56032   4.177   0.017   1.421
18597WAT     H156033   4.253   0.008   1.486
18597WAT     H256034   4.093   0.036   1.472
18598WAT      O56035   9.671   5.117   7.314
18598WAT     H156036   9.769   5.109   7.335
18598WAT     H256037   9.649   5.056   7.238
18599WAT      O56038   4.268   9.254   4.405
18599WAT     H156039   4.243   9.199   4.325
18599WAT     H256040   4.288   9.347   4.375
18600WAT      O56041   7.862   6.871   3.748
18600WAT     H156042   7.793   6.901   3.814
18600WAT     H256043   7.938   6.828   3.797
18601WAT      O56044   1.649   4.831   7.370
18601WAT     H156045   1.649   4.841   7.270
18601WAT     H256046   1.637   4.734   7.393
18602WAT      O56047   8.209   6.175   3.847
18602WAT     H156048   8.164   6.254   3.806
18602WAT     H256049   8.238   6.111   3.775
18603WAT      O56050   6.087   0.137   0.788
18603WAT     H156051   6.159   0.082   0.745
18603WAT     H256052   6.018   0.161   0.720
18604WAT      O56053   0.757   7.521   9.439
18604WAT     H156054   0.784   7.488   9.348
18604WAT     H256055   0.811   7.474   9.508
18605WAT      O56056   7.693   7.160   1.857
18605WAT     H156057   7.694   7.061   1.869
18605WAT     H256058   7.754   7.186   1.783
18606WAT      O56059   2.117   2.437   5.120
18606WAT     H156060   2.199   2.492   5.104
18606WAT     H256061   2.118   2.356   5.062
18607WAT      O56062   8.547   1.483   9.800
18607WAT     H156063   8.597   1.556   9.846
18607WAT     H256064   8.601   1.399   9.802
18608WAT      O56065   2.767   9.305   2.928
18608WAT     H156066   2.852   9.327   2.880
18608WAT     H256067   2.783   9.229   2.991
18609WAT      O56068   4.890   8.896   7.000
18609WAT     H156069   4.886   8.825   6.930
18609WAT     H256070   4.968   8.956   6.983
18610WAT      O56071   8.331   0.180   0.669
18610WAT     H156072   8.413   0.230   0.697
18610WAT     H256073   8.283   0.146   0.750
18611WAT      O56074   1.156   6.289   4.556
18611WAT     H156075   1.212   6.368   4.532
18611WAT     H256076   1.059   6.313   4.552
18612WAT      O56077   3.252   6.670   3.519
18612WAT     H156078   3.252   6.618   3.605
18612WAT     H256079   3.181   6.634   3.459
18613WAT      O56080   8.860   9.216   2.081
18613WAT     H156081   8.847   9.300   2.134
18613WAT     H256082   8.910   9.238   1.997
18614WAT      O56083   0.954   3.463   7.698
18614WAT     H156084   1.015   3.385   7.682
18614WAT     H256085   0.958   3.488   7.795
18615WAT      O56086   1.818   9.713   7.221
18615WAT     H156087   1.755   9.642   7.254
18615WAT     H256088   1.801   9.729   7.124
18616WAT      O56089   0.041   1.758   9.374
18616WAT     H156090   0.079   1.667   9.391
18616WAT     H256091   0.083   1.799   9.294
18617WAT      O56092   8.864   1.797   5.138
18617WAT     H156093   8.963   1.789   5.138
18617WAT     H256094   8.826   1.755   5.220
18618WAT      O56095   2.836   2.036   2.453
18618WAT     H156096   2.914   2.092   2.482
18618WAT     H256097   2.762   2.096   2.421
18619WAT      O56098   0.725   2.246   1.452
18619WAT     H156099   0.641   2.200   1.480
18619WAT     H256100   0.706   2.344   1.438
18620WAT      O56101   1.989   5.549   9.684
18620WAT     H156102   1.941   5.511   9.605
18620WAT     H256103   2.010   5.476   9.748
18621WAT      O56104   6.792   7.752   1.619
18621WAT     H156105   6.744   7.787   1.700
18621WAT     H256106   6.849   7.824   1.580
18622WAT      O56107   0.267   8.053   0.400
18622WAT     H156108   0.276   8.153   0.405
18622WAT     H256109   0.201   8.022   0.469
18623WAT      O56110   2.394   4.166   5.521
18623WAT     H156111   2.328   4.225   5.569
18623WAT     H256112   2.419   4.090   5.580
18624WAT      O56113   0.902   7.071   7.250
18624WAT     H156114   0.830   7.113   7.305
18624WAT     H256115   0.942   7.139   7.188
18625WAT      O56116   8.768   2.081   8.141
18625WAT     H156117   8.788   2.043   8.232
18625WAT     H256118   8.817   2.168   8.130
18626WAT      O56119   2.809   7.240   3.056
18626WAT     H156120   2.729   7.301   3.056
18626WAT     H256121   2.849   7.238   3.147
18627WAT      O56122   2.166   5.558   2.544
18627WAT     H156123   2.178   5.461   2.566
18627WAT     H256124   2.239   5.587   2.482
18628WAT      O56125   5.427   7.947   6.857
18628WAT     H156126   5.433   8.036   6.903
18628WAT     H256127   5.357   7.950   6.786
18629WAT      O56128   3.996   1.258   7.785
18629WAT     H156129   4.069   1.192   7.766
18629WAT     H256130   4.036   1.349   7.798
18630WAT      O56131   1.509   5.508   2.064
18630WAT     H156132   1.482   5.506   2.160
18630WAT     H256133   1.523   5.415   2.031
18631WAT      O56134   2.027   4.977   7.210
18631WAT     H156135   1.986   4.994   7.300
18631WAT     H256136   2.125   4.959   7.220
18632WAT      O56137   1.166   0.401   6.177
18632WAT     H156138   1.088   0.414   6.116
18632WAT     H256139   1.156   0.314   6.226
18633WAT      O56140   9.073   5.011   6.331
18633WAT     H156141   9.065   5.089   6.394
18633WAT     H256142   9.120   5.040   6.247
18634WAT      O56143   3.460   1.415   8.689
18634WAT     H156144   3.550   1.458   8.693
18634WAT     H256145   3.426   1.416   8.595
18635WAT      O56146   8.302   5.555   6.044
18635WAT     H156147   8.296   5.529   5.948
18635WAT     H256148   8.217   5.530   6.091
18636WAT      O56149   1.146   7.527   8.086
18636WAT     H156150   1.181   7.454   8.144
18636WAT     H256151   1.222   7.586   8.057
18637WAT      O56152   3.266   8.420   8.427
18637WAT     H156153   3.215   8.454   8.506
18637WAT     H256154   3.257   8.320   8.422
18638WAT      O56155   2.521   5.774   5.270
18638WAT     H156156   2.519   5.720   5.354
18638WAT     H256157   2.532   5.713   5.191
18639WAT      O56158   9.231   1.196   0.252
18639WAT     H156159   9.313   1.208   0.195
18639WAT     H256160   9.151   1.229   0.202
18640WAT      O56161   7.799   9.764   9.868
18640WAT     H156162   7.787   9.834   9.938
18640WAT     H256163   7.710   9.729   9.838
18641WAT      O56164   7.958   4.542   9.204
18641WAT     H156165   7.897   4.621   9.207
18641WAT     H256166   8.052   4.572   9.194
18642WAT      O56167   5.142   4.831   3.737
18642WAT     H156168   5.061   4.844   3.681
18642WAT     H256169   5.154   4.910   3.798
18643WAT      O56170   5.832   0.836   9.833
18643WAT     H156171   5.819   0.874   9.925
18643WAT     H256172   5.830   0.910   9.766
18644WAT      O56173   3.592   7.042   8.443
18644WAT     H156174   3.685   7.005   8.452
18644WAT     H256175   3.553   7.013   8.356
18645WAT      O56176   9.350   3.731   2.543
18645WAT     H156177   9.446   3.751   2.524
18645WAT     H256178   9.292   3.801   2.500
18646WAT      O56179   8.127   6.057   9.616
18646WAT     H156180   8.172   6.145   9.632
18646WAT     H256181   8.053   6.045   9.682
18647WAT      O56182   3.839   9.529   4.570
18647WAT     H156183   3.924   9.486   4.538
18647WAT     H256184   3.857   9.626   4.588
18648WAT      O56185   6.790   0.763   4.072
18648WAT     H156186   6.709   0.716   4.036
18648WAT     H256187   6.858   0.773   3.999
18649WAT      O56188   3.579   1.368   9.858
18649WAT     H156189   3.519   1.434   9.903
18649WAT     H256190   3.525   1.306   9.801
18650WAT      O56191   4.668   8.392   2.827
18650WAT     H156192   4.700   8.300   2.848
18650WAT     H256193   4.581   8.408   2.875
18651WAT      O56194   0.032   6.847   3.575
18651WAT     H156195   0.110   6.858   3.514
18651WAT     H256196   0.012   6.934   3.620
18652WAT      O56197   0.756   5.323   9.203
18652WAT     H156198   0.842   5.369   9.224
18652WAT     H256199   0.744   5.320   9.103
18653WAT      O56200   4.562   6.249   6.319
18653WAT     H156201   4.602   6.158   6.316
18653WAT     H256202   4.497   6.256   6.395
18654WAT      O56203   8.502   6.759   3.496
18654WAT     H156204   8.437   6.733   3.567
18654WAT     H256205   8.462   6.742   3.406
18655WAT      O56206   1.846   9.360   2.519
18655WAT     H156207   1.821   9.298   2.594
18655WAT     H256208   1.821   9.454   2.545
18656WAT      O56209   7.877   0.462   1.995
18656WAT     H156210   7.929   0.487   1.913
18656WAT     H256211   7.780   0.468   1.975
18657WAT      O56212   6.697   2.343   4.187
18657WAT     H156213   6.717   2.327   4.090
18657WAT     H256214   6.651   2.431   4.197
18658WAT      O56215   6.963   8.297   4.137
18658WAT     H156216   6.976   8.384   4.088
18658WAT     H256217   7.053   8.260   4.162
18659WAT      O56218   4.193   9.333   0.344
18659WAT     H156219   4.106   9.357   0.386
18659WAT     H256220   4.249   9.415   0.332
18660WAT      O56221   0.163   4.396   4.757
18660WAT     H156222   0.127   4.314   4.802
18660WAT     H256223   0.232   4.438   4.815
18661WAT      O56224   6.533   4.927   5.919
18661WAT     H156225   6.511   5.011   5.869
18661WAT     H256226   6.451   4.871   5.927
18662WAT      O56227   4.573   2.849   9.111
18662WAT     H156228   4.635   2.810   9.043
18662WAT     H256229   4.479   2.821   9.089
18663WAT      O56230   1.821   5.848   4.062
18663WAT     H156231   1.761   5.826   3.985
18663WAT     H256232   1.852   5.764   4.106
18664WAT      O56233   9.399   1.672   8.678
18664WAT     H156234   9.374   1.768   8.664
18664WAT     H256235   9.390   1.649   8.774
18665WAT      O56236   5.179   1.352   5.440
18665WAT     H156237   5.104   1.304   5.396
18665WAT     H256238   5.184   1.325   5.536
18666WAT      O56239   0.009   8.897   4.044
18666WAT     H156240   0.094   8.907   4.096
18666WAT     H256241   0.022   8.934   3.952
18667WAT      O56242   6.427   4.116   5.203
18667WAT     H156243   6.450   4.197   5.256
18667WAT     H256244   6.330   4.094   5.215
18668WAT      O56245   0.958   0.625   7.308
18668WAT     H156246   0.885   0.693   7.316
18668WAT     H256247   1.005   0.637   7.220
18669WAT      O56248   8.007   0.729   7.110
18669WAT     H156249   8.019   0.643   7.159
18669WAT     H256250   7.917   0.766   7.130
18670WAT      O56251   2.861   8.617   4.887
18670WAT     H156252   2.768   8.627   4.922
18670WAT     H256253   2.891   8.522   4.900
18671WAT      O56254   1.984   9.499   1.247
18671WAT     H156255   2.031   9.584   1.273
18671WAT     H256256   1.888   9.519   1.228
18672WAT      O56257   8.618   2.221   9.870
18672WAT     H156258   8.546   2.249   9.807
18672WAT     H256259   8.587   2.141   9.922
18673WAT      O56260   0.171   5.316   0.481
18673WAT     H156261   0.244   5.373   0.443
18673WAT     H256262   0.207   5.224   0.499
18674WAT      O56263   4.454   7.299   3.665
18674WAT     H156264   4.503   7.234   3.723
18674WAT     H256265   4.428   7.379   3.720
18675WAT      O56266   3.711   0.568   8.090
18675WAT     H156267   3.746   0.617   8.011
18675WAT     H256268   3.631   0.514   8.063
18676WAT      O56269   6.998   1.261   6.092
18676WAT     H156270   7.081   1.314   6.111
18676WAT     H256271   6.999   1.178   6.149
18677WAT      O56272   2.210   0.507   1.526
18677WAT     H156273   2.305   0.501   1.495
18677WAT     H256274   2.207   0.504   1.626
18678WAT      O56275   3.512   6.740   8.285
18678WAT     H156276   3.482   6.644   8.290
18678WAT     H256277   3.515   6.769   8.189
18679WAT      O56278   5.504   9.347   8.388
18679WAT     H156279   5.482   9.268   8.446
18679WAT     H256280   5.557   9.316   8.310
18680WAT      O56281   6.665   4.452   3.067
18680WAT     H156282   6.697   4.499   2.984
18680WAT     H256283   6.674   4.513   3.145
18681WAT      O56284   6.101   3.911   7.808
18681WAT     H156285   6.031   3.957   7.755
18681WAT     H256286   6.077   3.913   7.905
18682WAT      O56287   0.216   6.377   2.544
18682WAT     H156288   0.135   6.325   2.573
18682WAT     H256289   0.296   6.318   2.548
18683WAT      O56290   5.389   6.054   1.165
18683WAT     H156291   5.448   5.981   1.130
18683WAT     H256292   5.295   6.037   1.137
18684WAT      O56293   4.784   2.077   7.435
18684WAT     H156294   4.845   1.998   7.431
18684WAT     H256295   4.716   2.070   7.362
18685WAT      O56296   1.869   5.224   9.223
18685WAT     H156297   1.958   5.220   9.269
18685WAT     H256298   1.818   5.140   9.242
18686WAT      O56299   7.158   5.690   9.595
18686WAT     H156300   7.169   5.597   9.562
18686WAT     H256301   7.206   5.753   9.534
18687WAT      O56302   4.102   0.833   5.418
18687WAT     H156303   4.074   0.768   5.347
18687WAT     H256304   4.055   0.812   5.503
18688WAT      O56305   8.990   4.481   2.306
18688WAT     H156306   8.945   4.397   2.276
18688WAT     H256307   8.923   4.542   2.347
18689WAT      O56308   9.308   2.354   7.166
18689WAT     H156309   9.213   2.378   7.186
18689WAT     H256310   9.349   2.423   7.107
18690WAT      O56311   0.947   5.368   1.189
18690WAT     H156312   0.979   5.273   1.196
18690WAT     H256313   0.949   5.398   1.094
18691WAT      O56314   4.308   7.515   3.354
18691WAT     H156315   4.260   7.428   3.366
18691WAT     H256316   4.369   7.508   3.275
18692WAT      O56317   6.467   3.867   0.876
18692WAT     H156318   6.493   3.862   0.972
18692WAT     H256319   6.533   3.816   0.821
18693WAT      O56320   9.596   3.532   2.169
18693WAT     H156321   9.528   3.596   2.204
18693WAT     H256322   9.655   3.502   2.243
18694WAT      O56323   4.512   4.067   1.209
18694WAT     H156324   4.532   4.144   1.270
18694WAT     H256325   4.537   4.091   1.115
18695WAT      O56326   8.562   8.765   7.122
18695WAT     H156327   8.612   8.751   7.207
18695WAT     H256328   8.595   8.847   7.076
18696WAT      O56329   6.048   7.497   3.707
18696WAT     H156330   6.060   7.404   3.673
18696WAT     H256331   6.127   7.553   3.681
18697WAT      O56332   0.556   8.001   0.370
18697WAT     H156333   0.458   8.018   0.360
18697WAT     H256334   0.607   8.059   0.306
18698WAT      O56335   6.411   2.543   3.700
18698WAT     H156336   6.481   2.534   3.771
18698WAT     H256337   6.351   2.620   3.722
18699WAT      O56338   3.474   0.778   0.225
18699WAT     H156339   3.397   0.713   0.233
18699WAT     H256340   3.521   0.784   0.312
18700WAT      O56341   4.961   0.310   7.066
18700WAT     H156342   4.989   0.297   7.161
18700WAT     H256343   4.890   0.243   7.043
18701WAT      O56344   0.080   5.136   2.129
18701WAT     H156345   0.057   5.102   2.038
18701WAT     H256346   0.106   5.232   2.124
18702WAT      O56347   7.915   9.667   6.952
18702WAT     H156348   7.906   9.747   7.012
18702WAT     H256349   7.866   9.590   6.991
18703WAT      O56350   5.566   5.525   8.789
18703WAT     H156351   5.664   5.511   8.798
18703WAT     H256352   5.548   5.619   8.762
18704WAT      O56353   5.423   2.335   5.591
18704WAT     H156354   5.442   2.404   5.660
18704WAT     H256355   5.325   2.332   5.572
18705WAT      O56356   8.626   2.887   4.620
18705WAT     H156357   8.563   2.812   4.642
18705WAT     H256358   8.718   2.850   4.607
18706WAT      O56359   9.451   0.150   0.814
18706WAT     H156360   9.480   0.238   0.851
18706WAT     H256361   9.528   0.087   0.812
18707WAT      O56362   7.324   4.594   7.495
18707WAT     H156363   7.269   4.515   7.519
18707WAT     H256364   7.282   4.642   7.418
18708WAT      O56365   2.188   1.857   7.120
18708WAT     H156366   2.113   1.919   7.097
18708WAT     H256367   2.256   1.856   7.046
18709WAT      O56368   4.828   8.920   0.685
18709WAT     H156369   4.850   9.010   0.648
18709WAT     H256370   4.799   8.929   0.780
18710WAT      O56371   8.267   3.525   3.049
18710WAT     H156372   8.227   3.598   2.994
18710WAT     H256373   8.218   3.519   3.137
18711WAT      O56374   7.978   4.758   1.133
18711WAT     H156375   7.941   4.671   1.164
18711WAT     H256376   7.968   4.767   1.034
18712WAT      O56377   8.092   5.458   8.688
18712WAT     H156378   8.057   5.518   8.761
18712WAT     H256379   8.187   5.482   8.668
18713WAT      O56380   4.419   7.411   0.326
18713WAT     H156381   4.324   7.416   0.357
18713WAT     H256382   4.428   7.338   0.258
18714WAT      O56383   4.769   0.087   9.868
18714WAT     H156384   4.788  -0.008   9.892
18714WAT     H256385   4.823   0.114   9.789
18715WAT      O56386   4.781   1.082   5.181
18715WAT     H156387   4.867   1.129   5.199
18715WAT     H256388   4.795   0.983   5.185
18716WAT      O56389   0.475   8.015   6.187
18716WAT     H156390   0.535   8.093   6.165
18716WAT     H256391   0.426   8.034   6.272
18717WAT      O56392   3.904   0.037   1.940
18717WAT     H156393   3.926  -0.036   1.876
18717WAT     H256394   3.913   0.125   1.894
18718WAT      O56395   2.661   8.248   8.078
18718WAT     H156396   2.627   8.239   8.171
18718WAT     H256397   2.734   8.316   8.075
18719WAT      O56398   4.728   9.414   9.302
18719WAT     H156399   4.662   9.339   9.297
18719WAT     H256400   4.697   9.489   9.244
18720WAT      O56401   3.052   9.440   5.704
18720WAT     H156402   3.097   9.513   5.652
18720WAT     H256403   3.108   9.358   5.700
18721WAT      O56404   3.952   4.681   0.827
18721WAT     H156405   3.996   4.596   0.799
18721WAT     H256406   3.996   4.716   0.910
18722WAT      O56407   5.241   8.567   4.662
18722WAT     H156408   5.230   8.502   4.587
18722WAT     H256409   5.313   8.535   4.724
18723WAT      O56410   9.293   7.812   7.469
18723WAT     H156411   9.323   7.854   7.555
18723WAT     H256412   9.194   7.822   7.461
18724WAT      O56413   6.060   9.495   9.032
18724WAT     H156414   6.137   9.556   9.053
18724WAT     H256415   5.975   9.538   9.062
18725WAT      O56416   8.805   2.932   9.023
18725WAT     H156417   8.755   2.852   8.988
18725WAT     H256418   8.786   3.011   8.966
18726WAT      O56419   2.188   4.593   4.383
18726WAT     H156420   2.273   4.634   4.417
18726WAT     H256421   2.157   4.643   4.302
18727WAT      O56422   1.036   3.971   5.462
18727WAT     H156423   1.123   3.925   5.444
18727WAT     H256424   0.973   3.954   5.386
18728WAT      O56425   4.439   6.726   4.027
18728WAT     H156426   4.438   6.631   3.997
18728WAT     H256427   4.512   6.738   4.095
18729WAT      O56428   9.665   9.091   8.162
18729WAT     H156429   9.680   9.044   8.075
18729WAT     H256430   9.679   9.190   8.150
18730WAT      O56431   7.356   4.033   6.363
18730WAT     H156432   7.395   3.965   6.302
18730WAT     H256433   7.309   3.988   6.439
18731WAT      O56434   0.217   3.784   9.711
18731WAT     H156435   0.307   3.821   9.687
18731WAT     H256436   0.150   3.812   9.642
18732WAT      O56437   8.423   6.721   8.987
18732WAT     H156438   8.421   6.665   8.904
18732WAT     H256439   8.344   6.699   9.045
18733WAT      O56440   2.997   7.678   9.734
18733WAT     H156441   3.038   7.767   9.752
18733WAT     H256442   3.036   7.638   9.651
18734WAT      O56443   9.867   1.911   5.145
18734WAT     H156444   9.902   1.991   5.095
18734WAT     H256445   9.886   1.922   5.242
18735WAT      O56446   7.861   5.661   8.365
18735WAT     H156447   7.767   5.695   8.363
18735WAT     H256448   7.921   5.733   8.400
18736WAT      O56449   5.575   6.374   1.538
18736WAT     H156450   5.518   6.329   1.470
18736WAT     H256451   5.623   6.451   1.495
18737WAT      O56452   1.282   5.138   1.324
18737WAT     H156453   1.269   5.100   1.416
18737WAT     H256454   1.196   5.135   1.274
18738WAT      O56455   0.867   5.574   8.234
18738WAT     H156456   0.927   5.649   8.261
18738WAT     H256457   0.922   5.495   8.207
18739WAT      O56458   7.689   6.187   9.116
18739WAT     H156459   7.664   6.257   9.049
18739WAT     H256460   7.614   6.173   9.180
18740WAT      O56461   7.863   1.799   2.975
18740WAT     H156462   7.929   1.760   3.039
18740WAT     H256463   7.909   1.863   2.914
18741WAT      O56464   5.518   0.310   7.941
18741WAT     H156465   5.459   0.358   7.876
18741WAT     H256466   5.589   0.260   7.891
18742WAT      O56467   9.374   2.618   5.641
18742WAT     H156468   9.374   2.531   5.689
18742WAT     H256469   9.442   2.679   5.682
18743WAT      O56470   6.760   2.869   0.474
18743WAT     H156471   6.675   2.866   0.421
18743WAT     H256472   6.782   2.964   0.497
18744WAT      O56473   7.398   8.642   6.615
18744WAT     H156474   7.436   8.617   6.704
18744WAT     H256475   7.328   8.712   6.627
18745WAT      O56476   0.584   3.026   5.792
18745WAT     H156477   0.613   2.977   5.710
18745WAT     H256478   0.618   3.121   5.789
18746WAT      O56479   2.994   2.344   7.446
18746WAT     H156480   2.898   2.346   7.474
18746WAT     H256481   2.999   2.333   7.346
18747WAT      O56482   8.373   1.860   8.863
18747WAT     H156483   8.362   1.887   8.959
18747WAT     H256484   8.412   1.768   8.859
18748WAT      O56485   9.287   1.620   1.397
18748WAT     H156486   9.241   1.657   1.479
18748WAT     H256487   9.248   1.531   1.374
18749WAT      O56488   8.659   1.816   4.457
18749WAT     H156489   8.699   1.752   4.392
18749WAT     H256490   8.576   1.858   4.418
18750WAT      O56491   0.710   5.145   8.652
18750WAT     H156492   0.630   5.092   8.683
18750WAT     H256493   0.679   5.234   8.620
18751WAT      O56494   8.844   6.118   2.609
18751WAT     H156495   8.818   6.038   2.555
18751WAT     H256496   8.789   6.122   2.692
18752WAT      O56497   0.008   2.728   0.376
18752WAT     H156498   0.104   2.718   0.350
18752WAT     H256499  -0.006   2.688   0.467
18753WAT      O56500   5.181   0.585   0.904
18753WAT     H156501   5.101   0.616   0.955
18753WAT     H256502   5.192   0.640   0.822
18754WAT      O56503   3.933   5.792   1.455
18754WAT     H156504   3.978   5.805   1.367
18754WAT     H256505   3.876   5.710   1.452
18755WAT      O56506   7.940   2.652   6.644
18755WAT     H156507   7.957   2.583   6.573
18755WAT     H256508   8.021   2.709   6.654
18756WAT      O56509   5.051   6.176   9.870
18756WAT     H156510   5.047   6.125   9.784
18756WAT     H256511   5.087   6.116   9.942
18757WAT      O56512   6.789   2.975   5.367
18757WAT     H156513   6.695   2.984   5.398
18757WAT     H256514   6.846   3.046   5.409
18758WAT      O56515   8.776   2.127   0.333
18758WAT     H156516   8.716   2.097   0.258
18758WAT     H256517   8.732   2.203   0.381
18759WAT      O56518   3.167   2.134   7.528
18759WAT     H156519   3.203   2.096   7.443
18759WAT     H256520   3.089   2.193   7.506
18760WAT      O56521   2.741   2.031   7.568
18760WAT     H156522   2.808   1.994   7.633
18760WAT     H256523   2.654   2.045   7.615
18761WAT      O56524   1.597   9.565   3.503
18761WAT     H156525   1.671   9.551   3.437
18761WAT     H256526   1.572   9.477   3.543
18762WAT      O56527   6.421   8.175   2.895
18762WAT     H156528   6.397   8.127   2.811
18762WAT     H256529   6.363   8.256   2.905
18763WAT      O56530   1.160   1.857   6.416
18763WAT     H156531   1.080   1.905   6.453
18763WAT     H256532   1.242   1.911   6.434
18764WAT      O56533   1.211   1.564   3.686
18764WAT     H156534   1.229   1.635   3.754
18764WAT     H256535   1.288   1.500   3.684
18765WAT      O56536   8.783   6.182   0.423
18765WAT     H156537   8.748   6.188   0.516
18765WAT     H256538   8.730   6.241   0.363
18766WAT      O56539   6.365   9.162   2.624
18766WAT     H156540   6.442   9.143   2.563
18766WAT     H256541   6.345   9.260   2.624
18767WAT      O56542   9.479   4.321   0.850
18767WAT     H156543   9.528   4.314   0.763
18767WAT     H256544   9.479   4.231   0.895
18768WAT      O56545   1.270   3.826   5.451
18768WAT     H156546   1.280   3.814   5.352
18768WAT     H256547   1.291   3.739   5.497
18769WAT      O56548   2.990   0.712   8.096
18769WAT     H156549   2.893   0.696   8.112
18769WAT     H256550   3.033   0.747   8.179
18770WAT      O56551   5.843   7.548   3.558
18770WAT     H156552   5.855   7.626   3.497
18770WAT     H256553   5.920   7.545   3.623
18771WAT      O56554   9.818   8.587   3.457
18771WAT     H156555   9.893   8.562   3.396
18771WAT     H256556   9.740   8.526   3.442
18772WAT      O56557   4.250   8.717   2.517
18772WAT     H156558   4.303   8.687   2.438
18772WAT     H256559   4.312   8.734   2.594
18773WAT      O56560   5.371   8.078   4.168
18773WAT     H156561   5.289   8.099   4.222
18773WAT     H256562   5.349   8.083   4.071
18774WAT      O56563   5.677   8.192   3.445
18774WAT     H156564   5.629   8.217   3.361
18774WAT     H256565   5.757   8.251   3.457
18775WAT      O56566   8.768   3.676   0.332
18775WAT     H156567   8.674   3.652   0.308
18775WAT     H256568   8.807   3.605   0.391
18776WAT      O56569   8.901   5.890   6.687
18776WAT     H156570   8.890   5.971   6.743
18776WAT     H256571   8.873   5.910   6.593
18777WAT      O56572   8.333   6.253   4.073
18777WAT     H156573   8.407   6.320   4.066
18777WAT     H256574   8.299   6.232   3.981
18778WAT      O56575   9.725   1.965   3.464
18778WAT     H156576   9.736   1.882   3.409
18778WAT     H256577   9.813   1.992   3.501
18779WAT      O56578   7.250   4.384   1.357
18779WAT     H156579   7.262   4.480   1.330
18779WAT     H256580   7.259   4.326   1.276
18780WAT      O56581   4.031   0.643   7.165
18780WAT     H156582   4.055   0.719   7.104
18780WAT     H256583   4.022   0.559   7.111
18781WAT      O56584   7.509   9.329   2.588
18781WAT     H156585   7.542   9.274   2.511
18781WAT     H256586   7.550   9.420   2.583
18782WAT      O56587   2.566   1.221   0.488
18782WAT     H156588   2.599   1.306   0.528
18782WAT     H256589   2.602   1.143   0.539
18783WAT      O56590   4.807   2.365   3.311
18783WAT     H156591   4.770   2.391   3.400
18783WAT     H256592   4.765   2.419   3.239
18784WAT      O56593   7.596   8.398   3.779
18784WAT     H156594   7.626   8.482   3.735
18784WAT     H256595   7.511   8.367   3.736
18785WAT      O56596   6.632   2.723   0.972
18785WAT     H156597   6.605   2.819   0.966
18785WAT     H256598   6.644   2.686   0.880
18786WAT      O56599   3.300   9.791   2.431
18786WAT     H156600   3.302   9.723   2.504
18786WAT     H256601   3.244   9.758   2.355
18787WAT      O56602   8.598   7.780   8.714
18787WAT     H156603   8.599   7.879   8.702
18787WAT     H256604   8.606   7.735   8.625
18788WAT      O56605   3.977   6.373   2.139
18788WAT     H156606   4.012   6.385   2.232
18788WAT     H256607   3.949   6.462   2.103
18789WAT      O56608   4.390   9.489   7.425
18789WAT     H156609   4.339   9.411   7.460
18789WAT     H256610   4.378   9.494   7.325
18790WAT      O56611   0.805   8.815   6.715
18790WAT     H156612   0.848   8.874   6.646
18790WAT     H256613   0.816   8.719   6.688
18791WAT      O56614   3.932   6.439   7.405
18791WAT     H156615   3.943   6.531   7.443
18791WAT     H256616   3.972   6.436   7.313
18792WAT      O56617   8.176   2.344   5.523
18792WAT     H156618   8.231   2.273   5.478
18792WAT     H256619   8.206   2.354   5.618
18793WAT      O56620   8.549   0.275   4.531
18793WAT     H156621   8.594   0.259   4.443
18793WAT     H256622   8.450   0.279   4.517
18794WAT      O56623   1.962   1.814   4.861
18794WAT     H156624   1.897   1.763   4.917
18794WAT     H256625   2.048   1.765   4.856
18795WAT      O56626   9.265   7.707   0.689
18795WAT     H156627   9.308   7.715   0.599
18795WAT     H256628   9.204   7.785   0.704
18796WAT      O56629   9.651   5.054   3.659
18796WAT     H156630   9.740   5.016   3.632
18796WAT     H256631   9.579   5.015   3.601
18797WAT      O56632   2.144   9.816   2.847
18797WAT     H156633   2.175   9.859   2.762
18797WAT     H256634   2.153   9.717   2.839
18798WAT      O56635   6.055   3.691   1.363
18798WAT     H156636   6.079   3.744   1.445
18798WAT     H256637   5.956   3.680   1.358
18799WAT      O56638   6.466   1.105   3.850
18799WAT     H156639   6.541   1.167   3.876
18799WAT     H256640   6.405   1.092   3.928
18800WAT      O56641   3.020   5.929   5.748
18800WAT     H156642   2.991   5.991   5.675
18800WAT     H256643   2.942   5.873   5.777
18801WAT      O56644   9.060   8.857   4.732
18801WAT     H156645   9.110   8.918   4.672
18801WAT     H256646   8.964   8.855   4.705
18802WAT      O56647   1.627   8.932   1.965
18802WAT     H156648   1.627   8.846   2.016
18802WAT     H256649   1.571   8.999   2.013
18803WAT      O56650   9.847   8.428   4.305
18803WAT     H156651   9.944   8.428   4.330
18803WAT     H256652   9.825   8.511   4.254
18804WAT      O56653   0.420   9.727   1.957
18804WAT     H156654   0.329   9.767   1.965
18804WAT     H256655   0.420   9.655   1.888
18805WAT      O56656   4.887   8.748   0.947
18805WAT     H156657   4.870   8.650   0.958
18805WAT     H256658   4.976   8.770   0.986
18806WAT      O56659   5.647   8.849   4.842
18806WAT     H156660   5.716   8.916   4.813
18806WAT     H256661   5.657   8.833   4.941
18807WAT      O56662   6.744   2.902   8.011
18807WAT     H156663   6.767   2.850   7.929
18807WAT     H256664   6.677   2.973   7.988
18808WAT      O56665   9.298   6.559   6.941
18808WAT     H156666   9.244   6.580   6.859
18808WAT     H256667   9.384   6.608   6.937
18809WAT      O56668   3.311   2.967   7.719
18809WAT     H156669   3.304   2.902   7.795
18809WAT     H256670   3.317   2.917   7.633
18810WAT      O56671   3.054   7.352   3.536
18810WAT     H156672   3.123   7.280   3.543
18810WAT     H256673   3.021   7.376   3.627
18811WAT      O56674   6.318   0.971   1.381
18811WAT     H156675   6.358   0.993   1.470
18811WAT     H256676   6.390   0.965   1.313
18812WAT      O56677   2.974   7.258   1.229
18812WAT     H156678   3.050   7.271   1.165
18812WAT     H256679   2.894   7.224   1.179
18813WAT      O56680   7.803   8.864   5.797
18813WAT     H156681   7.820   8.794   5.867
18813WAT     H256682   7.820   8.954   5.836
18814WAT      O56683   3.160   3.318   8.875
18814WAT     H156684   3.171   3.417   8.863
18814WAT     H256685   3.064   3.294   8.860
18815WAT      O56686   5.177   5.777   8.822
18815WAT     H156687   5.115   5.738   8.890
18815WAT     H256688   5.205   5.868   8.850
18816WAT      O56689   8.612   9.584   0.791
18816WAT     H156690   8.700   9.631   0.794
18816WAT     H256691   8.559   9.607   0.873
18817WAT      O56692   4.579   9.375   3.698
18817WAT     H156693   4.529   9.289   3.698
18817WAT     H256694   4.665   9.364   3.648
18818WAT      O56695   3.013   0.447   2.629
18818WAT     H156696   3.099   0.418   2.672
18818WAT     H256697   3.031   0.473   2.534
18819WAT      O56698   0.620   1.575   2.736
18819WAT     H156699   0.543   1.594   2.797
18819WAT     H256700   0.586   1.559   2.643
18820WAT      O56701   8.696   9.240   3.963
18820WAT     H156702   8.775   9.300   3.965
18820WAT     H256703   8.719   9.153   4.008
18821WAT      O56704   3.997   7.293   7.569
18821WAT     H156705   4.062   7.369   7.576
18821WAT     H256706   4.025   7.232   7.495
18822WAT      O56707   6.170   7.563   2.635
18822WAT     H156708   6.077   7.598   2.651
18822WAT     H256709   6.190   7.491   2.700
18823WAT      O56710   9.240   8.599   5.623
18823WAT     H156711   9.270   8.567   5.533
18823WAT     H256712   9.236   8.521   5.686
18824WAT      O56713   8.223   2.976   1.430
18824WAT     H156714   8.281   2.992   1.351
18824WAT     H256715   8.226   3.056   1.490
18825WAT      O56716   3.250   3.801   5.142
18825WAT     H156717   3.268   3.734   5.070
18825WAT     H256718   3.286   3.890   5.115
18826WAT      O56719   3.871   8.315   3.792
18826WAT     H156720   3.844   8.326   3.696
18826WAT     H256721   3.836   8.391   3.846
18827WAT      O56722   1.009   3.321   6.918
18827WAT     H156723   0.946   3.376   6.864
18827WAT     H256724   0.962   3.289   7.001
18828WAT      O56725   4.263   4.667   9.762
18828WAT     H156726   4.173   4.698   9.731
18828WAT     H256727   4.309   4.741   9.810
18829WAT      O56728   8.937   9.176   4.879
18829WAT     H156729   8.970   9.134   4.964
18829WAT     H256730   9.010   9.175   4.811
18830WAT      O56731   8.268   8.860   8.626
18830WAT     H156732   8.169   8.859   8.617
18830WAT     H256733   8.293   8.911   8.708
18831WAT      O56734   9.106   0.395   5.831
18831WAT     H156735   9.117   0.346   5.918
18831WAT     H256736   9.132   0.491   5.843
18832WAT      O56737   7.402   4.183   2.205
18832WAT     H156738   7.343   4.253   2.166
18832WAT     H256739   7.385   4.176   2.303
18833WAT      O56740   5.402   5.858   0.849
18833WAT     H156741   5.404   5.958   0.839
18833WAT     H256742   5.472   5.830   0.914
18834WAT      O56743   6.687   3.350   7.032
18834WAT     H156744   6.736   3.382   6.951
18834WAT     H256745   6.606   3.408   7.047
18835WAT      O56746   1.720   8.710   7.360
18835WAT     H156747   1.740   8.777   7.431
18835WAT     H256748   1.696   8.623   7.401
18836WAT      O56749   6.213   4.852   7.129
18836WAT     H156750   6.257   4.922   7.073
18836WAT     H256751   6.126   4.825   7.088
18837WAT      O56752   4.148   6.402   7.212
18837WAT     H156753   4.145   6.363   7.120
18837WAT     H256754   4.233   6.375   7.257
18838WAT      O56755   6.440   3.242   8.177
18838WAT     H156756   6.503   3.318   8.161
18838WAT     H256757   6.415   3.239   8.273
18839WAT      O56758   2.205   9.651   3.241
18839WAT     H156759   2.304   9.643   3.234
18839WAT     H256760   2.181   9.742   3.277
18840WAT      O56761   8.918   7.010   8.486
18840WAT     H156762   8.997   7.023   8.426
18840WAT     H256763   8.869   6.927   8.459
18841WAT      O56764   6.892   7.343   6.336
18841WAT     H156765   6.897   7.410   6.410
18841WAT     H256766   6.909   7.252   6.373
18842WAT      O56767   3.751   6.850   3.128
18842WAT     H156768   3.753   6.947   3.152
18842WAT     H256769   3.798   6.797   3.199
18843WAT      O56770   3.492   0.318   8.473
18843WAT     H156771   3.470   0.408   8.435
18843WAT     H256772   3.545   0.330   8.557
18844WAT      O56773   8.769   5.340   6.473
18844WAT     H156774   8.796   5.259   6.525
18844WAT     H256775   8.776   5.321   6.375
18845WAT      O56776   6.328   4.825   1.715
18845WAT     H156777   6.376   4.813   1.628
18845WAT     H256778   6.383   4.785   1.789
18846WAT      O56779   1.813   6.783   1.398
18846WAT     H156780   1.785   6.852   1.464
18846WAT     H256781   1.828   6.826   1.309
18847WAT      O56782   2.413   8.035   0.327
18847WAT     H156783   2.351   7.960   0.352
18847WAT     H256784   2.490   8.037   0.392
18848WAT      O56785   2.516   6.455   3.956
18848WAT     H156786   2.420   6.424   3.957
18848WAT     H256787   2.522   6.540   3.904
18849WAT      O56788   2.718   1.841   1.461
18849WAT     H156789   2.788   1.862   1.393
18849WAT     H256790   2.759   1.790   1.537
18850WAT      O56791   1.426   7.307   9.128
18850WAT     H156792   1.525   7.314   9.118
18850WAT     H256793   1.392   7.228   9.077
18851WAT      O56794   2.514   8.679   8.616
18851WAT     H156795   2.597   8.735   8.615
18851WAT     H256796   2.434   8.739   8.621
18852WAT      O56797   5.689   6.041   8.698
18852WAT     H156798   5.666   5.944   8.691
18852WAT     H256799   5.608   6.096   8.679
18853WAT      O56800   0.264   8.161   4.905
18853WAT     H156801   0.247   8.260   4.913
18853WAT     H256802   0.315   8.143   4.821
18854WAT      O56803   6.593   0.141   4.095
18854WAT     H156804   6.598   0.174   4.189
18854WAT     H256805   6.573   0.043   4.096
18855WAT      O56806   0.485   2.825   7.478
18855WAT     H156807   0.584   2.818   7.491
18855WAT     H256808   0.462   2.796   7.385
18856WAT      O56809   3.556   6.003   3.385
18856WAT     H156810   3.576   5.982   3.481
18856WAT     H256811   3.483   6.071   3.380
18857WAT      O56812   5.177   7.174   8.498
18857WAT     H156813   5.182   7.074   8.494
18857WAT     H256814   5.246   7.213   8.437
18858WAT      O56815   1.698   5.210   3.288
18858WAT     H156816   1.709   5.117   3.252
18858WAT     H256817   1.788   5.250   3.306
18859WAT      O56818   3.957   6.254   2.619
18859WAT     H156819   3.973   6.166   2.665
18859WAT     H256820   4.015   6.324   2.661
18860WAT      O56821   6.212   3.321   4.791
18860WAT     H156822   6.238   3.337   4.696
18860WAT     H256823   6.124   3.365   4.810
18861WAT      O56824   0.080   6.351   2.135
18861WAT     H156825   0.092   6.434   2.189
18861WAT     H256826  -0.017   6.340   2.113
18862WAT      O56827   0.236   5.651   4.403
18862WAT     H156828   0.242   5.642   4.502
18862WAT     H256829   0.255   5.562   4.360
18863WAT      O56830   6.235   7.619   0.296
18863WAT     H156831   6.276   7.678   0.366
18863WAT     H256832   6.250   7.523   0.319
18864WAT      O56833   2.307   2.870   1.903
18864WAT     H156834   2.332   2.903   1.995
18864WAT     H256835   2.210   2.885   1.887
18865WAT      O56836   0.483   9.566   2.787
18865WAT     H156837   0.506   9.477   2.826
18865WAT     H256838   0.461   9.556   2.690
18866WAT      O56839   7.166   9.763   7.637
18866WAT     H156840   7.225   9.724   7.708
18866WAT     H256841   7.071   9.760   7.668
18867WAT      O56842   2.259   2.435   2.689
18867WAT     H156843   2.292   2.358   2.635
18867WAT     H256844   2.181   2.406   2.745
18868WAT      O56845   1.204   1.457   3.960
18868WAT     H156846   1.296   1.472   3.996
18868WAT     H256847   1.148   1.539   3.975
18869WAT      O56848   1.524   6.053   0.340
18869WAT     H156849   1.462   6.059   0.419
18869WAT     H256850   1.470   6.054   0.256
18870WAT      O56851   4.161   7.885   3.743
18870WAT     H156852   4.128   7.958   3.802
18870WAT     H256853   4.114   7.800   3.765
18871WAT      O56854   2.920   2.973   9.027
18871WAT     H156855   2.890   3.003   9.117
18871WAT     H256856   2.891   3.040   8.958
18872WAT      O56857   1.992   7.450   3.087
18872WAT     H156858   1.997   7.377   3.020
18872WAT     H256859   1.965   7.413   3.176
18873WAT      O56860   0.306   8.742   3.966
18873WAT     H156861   0.219   8.775   3.931
18873WAT     H256862   0.305   8.741   4.066
18874WAT      O56863   0.439   6.947   1.292
18874WAT     H156864   0.399   6.856   1.304
18874WAT     H256865   0.474   6.980   1.380
18875WAT      O56866   4.237   2.032   9.720
18875WAT     H156867   4.159   1.971   9.734
18875WAT     H256868   4.287   2.042   9.806
18876WAT      O56869   9.061   0.944   0.671
18876WAT     H156870   9.131   1.015   0.682
18876WAT     H256871   9.104   0.859   0.642
18877WAT      O56872   0.758   5.873   2.404
18877WAT     H156873   0.751   5.870   2.503
18877WAT     H256874   0.732   5.784   2.366
18878WAT      O56875   2.706   9.571   7.740
18878WAT     H156876   2.714   9.586   7.839
18878WAT     H256877   2.613   9.540   7.719
18879WAT      O56878   7.628   3.653   6.046
18879WAT     H156879   7.555   3.634   6.112
18879WAT     H256880   7.618   3.745   6.010
18880WAT      O56881   4.695   2.522   9.278
18880WAT     H156882   4.667   2.606   9.325
18880WAT     H256883   4.622   2.493   9.216
18881WAT      O56884   9.379   7.854   6.774
18881WAT     H156885   9.303   7.789   6.775
18881WAT     H256886   9.439   7.833   6.696
18882WAT      O56887   1.523   1.035   0.968
18882WAT     H156888   1.509   0.993   0.878
18882WAT     H256889   1.581   0.975   1.024
18883WAT      O56890   6.850   6.014   1.432
18883WAT     H156891   6.904   6.014   1.348
18883WAT     H256892   6.869   5.931   1.484
18884WAT      O56893   7.063   5.247   8.081
18884WAT     H156894   7.091   5.339   8.111
18884WAT     H256895   6.963   5.242   8.079
18885WAT      O56896   8.514   8.095   2.996
18885WAT     H156897   8.523   7.995   3.001
18885WAT     H256898   8.417   8.119   3.002
18886WAT      O56899   6.040   0.869   4.575
18886WAT     H156900   5.945   0.890   4.553
18886WAT     H256901   6.046   0.778   4.616
18887WAT      O56902   1.044   6.250   3.493
18887WAT     H156903   1.019   6.342   3.524
18887WAT     H256904   0.998   6.230   3.407
18888WAT      O56905   9.139   5.342   7.232
18888WAT     H156906   9.209   5.356   7.301
18888WAT     H256907   9.181   5.340   7.141
18889WAT      O56908   8.756   7.594   3.953
18889WAT     H156909   8.657   7.579   3.943
18889WAT     H256910   8.773   7.689   3.978
18890WAT      O56911   0.243   8.143   7.889
18890WAT     H156912   0.167   8.159   7.953
18890WAT     H256913   0.248   8.219   7.824
18891WAT      O56914   0.271   7.523   4.868
18891WAT     H156915   0.203   7.562   4.806
18891WAT     H256916   0.234   7.442   4.913
18892WAT      O56917   6.263   0.230   3.704
18892WAT     H156918   6.195   0.214   3.776
18892WAT     H256919   6.303   0.143   3.676
18893WAT      O56920   3.688   1.506   9.202
18893WAT     H156921   3.785   1.504   9.226
18893WAT     H256922   3.659   1.602   9.192
18894WAT      O56923   7.357   3.728   4.496
18894WAT     H156924   7.360   3.687   4.405
18894WAT     H256925   7.292   3.679   4.553
18895WAT      O56926   4.470   8.452   4.349
18895WAT     H156927   4.507   8.383   4.412
18895WAT     H256928   4.384   8.487   4.386
18896WAT      O56929   3.078   5.348   5.106
18896WAT     H156930   3.113   5.423   5.162
18896WAT     H256931   3.131   5.340   5.022
18897WAT      O56932   9.520   8.376   0.452
18897WAT     H156933   9.579   8.410   0.526
18897WAT     H256934   9.433   8.346   0.491
18898WAT      O56935   6.868   0.273   8.590
18898WAT     H156936   6.820   0.327   8.660
18898WAT     H256937   6.816   0.275   8.505
18899WAT      O56938   1.455   5.693   7.591
18899WAT     H156939   1.438   5.600   7.557
18899WAT     H256940   1.505   5.745   7.522
18900WAT      O56941   4.696   6.527   6.673
18900WAT     H156942   4.725   6.481   6.590
18900WAT     H256943   4.661   6.618   6.651
18901WAT      O56944   3.708   9.144   5.355
18901WAT     H156945   3.771   9.072   5.325
18901WAT     H256946   3.614   9.112   5.344
18902WAT      O56947   8.299   5.107   4.453
18902WAT     H156948   8.233   5.182   4.465
18902WAT     H256949   8.335   5.080   4.542
18903WAT      O56950   3.501   6.899   5.047
18903WAT     H156951   3.513   6.801   5.030
18903WAT     H256952   3.590   6.941   5.066
18904WAT      O56953   3.777   9.108   8.342
18904WAT     H156954   3.704   9.135   8.280
18904WAT     H256955   3.751   9.024   8.389
18905WAT      O56956   2.913   7.191   3.318
18905WAT     H156957   2.932   7.212   3.414
18905WAT     H256958   2.961   7.106   3.293
18906WAT      O56959   6.099   3.515   4.401
18906WAT     H156960   6.063   3.607   4.416
18906WAT     H256961   6.046   3.450   4.456
18907WAT      O56962   5.222   4.078   2.128
18907WAT     H156963   5.206   4.174   2.105
18907WAT     H256964   5.253   4.071   2.223
18908WAT      O56965   7.389   7.666   4.807
18908WAT     H156966   7.359   7.739   4.745
18908WAT     H256967   7.483   7.682   4.835
18909WAT      O56968   6.288   4.122   8.031
18909WAT     H156969   6.331   4.031   8.033
18909WAT     H256970   6.338   4.180   7.967
18910WAT      O56971   6.362   3.669   3.999
18910WAT     H156972   6.423   3.743   4.025
18910WAT     H256973   6.308   3.640   4.078
18911WAT      O56974   9.743   7.750   7.499
18911WAT     H156975   9.760   7.674   7.436
18911WAT     H256976   9.697   7.716   7.581
18912WAT      O56977   5.643   6.054   9.781
18912WAT     H156978   5.630   6.105   9.866
18912WAT     H256979   5.580   6.089   9.711
18913WAT      O56980   8.589   4.471   5.332
18913WAT     H156981   8.571   4.437   5.240
18913WAT     H256982   8.531   4.550   5.350
18914WAT      O56983   1.508   1.180   9.045
18914WAT     H156984   1.565   1.263   9.048
18914WAT     H256985   1.437   1.191   8.975
18915WAT      O56986   1.861   7.472   7.603
18915WAT     H156987   1.834   7.565   7.625
18915WAT     H256988   1.831   7.410   7.677
18916WAT      O56989   1.497   3.183   4.400
18916WAT     H156990   1.482   3.168   4.498
18916WAT     H256991   1.586   3.145   4.374
18917WAT      O56992   6.794   0.745   6.369
18917WAT     H156993   6.889   0.722   6.348
18917WAT     H256994   6.781   0.745   6.468
18918WAT      O56995   4.249   5.936   8.492
18918WAT     H156996   4.177   5.962   8.556
18918WAT     H256997   4.304   6.016   8.469
18919WAT      O56998   5.646   6.236   9.078
18919WAT     H156999   5.617   6.145   9.107
18919WAT     H257000   5.733   6.229   9.029
18920WAT      O57001   3.634   3.355   6.210
18920WAT     H157002   3.691   3.313   6.139
18920WAT     H257003   3.605   3.446   6.180
18921WAT      O57004   0.042   3.234   3.245
18921WAT     H157005  -0.047   3.218   3.203
18921WAT     H257006   0.113   3.190   3.189
18922WAT      O57007   7.824   5.846   0.590
18922WAT     H157008   7.834   5.825   0.493
18922WAT     H257009   7.844   5.943   0.606
18923WAT      O57010   5.580   7.396   8.488
18923WAT     H157011   5.489   7.359   8.473
18923WAT     H257012   5.577   7.496   8.480
18924WAT      O57013   7.148   8.045   6.338
18924WAT     H157014   7.122   8.113   6.407
18924WAT     H257015   7.213   7.980   6.378
18925WAT      O57016   1.691   5.745   4.388
18925WAT     H157017   1.763   5.688   4.351
18925WAT     H257018   1.682   5.829   4.334
18926WAT      O57019   5.333   5.771   9.355
18926WAT     H157020   5.248   5.777   9.303
18926WAT     H257021   5.375   5.861   9.361
18927WAT      O57022   9.351   1.502   5.329
18927WAT     H157023   9.401   1.418   5.351
18927WAT     H257024   9.262   1.479   5.291
18928WAT      O57025   3.363   7.080   1.354
18928WAT     H157026   3.309   7.042   1.279
18928WAT     H257027   3.412   7.007   1.401
18929WAT      O57028   2.633   9.214   0.184
18929WAT     H157029   2.660   9.181   0.275
18929WAT     H257030   2.703   9.191   0.118
18930WAT      O57031   8.083   9.078   0.940
18930WAT     H157032   8.127   8.990   0.920
18930WAT     H257033   8.145   9.152   0.915
18931WAT      O57034   4.116   2.537   0.259
18931WAT     H157035   4.036   2.505   0.309
18931WAT     H257036   4.088   2.569   0.168
18932WAT      O57037   6.045   2.380   9.118
18932WAT     H157038   5.950   2.410   9.129
18932WAT     H257039   6.101   2.458   9.087
18933WAT      O57040   9.695   7.164   9.194
18933WAT     H157041   9.727   7.127   9.282
18933WAT     H257042   9.731   7.256   9.183
18934WAT      O57043   5.263   1.477   0.318
18934WAT     H157044   5.269   1.389   0.272
18934WAT     H257045   5.333   1.483   0.389
18935WAT      O57046   9.221   1.029   6.812
18935WAT     H157047   9.298   0.966   6.828
18935WAT     H257048   9.219   1.053   6.715
18936WAT      O57049   5.085   2.941   9.191
18936WAT     H157050   4.985   2.944   9.185
18936WAT     H257051   5.121   2.884   9.118
18937WAT      O57052   7.614   3.709   1.534
18937WAT     H157053   7.625   3.797   1.487
18937WAT     H257054   7.694   3.652   1.517
18938WAT      O57055   5.742   6.107   9.435
18938WAT     H157056   5.803   6.089   9.358
18938WAT     H257057   5.701   6.198   9.425
18939WAT      O57058   8.439   0.652   7.750
18939WAT     H157059   8.389   0.630   7.666
18939WAT     H257060   8.467   0.748   7.749
18940WAT      O57061   3.865   6.727   8.043
18940WAT     H157062   3.838   6.631   8.056
18940WAT     H257063   3.868   6.773   8.132
18941WAT      O57064   1.540   9.351   3.666
18941WAT     H157065   1.630   9.360   3.709
18941WAT     H257066   1.512   9.255   3.667
18942WAT      O57067   0.807   1.264   2.860
18942WAT     H157068   0.829   1.216   2.945
18942WAT     H257069   0.776   1.357   2.882
18943WAT      O57070   5.438   9.821   3.475
18943WAT     H157071   5.500   9.871   3.415
18943WAT     H257072   5.344   9.838   3.447
18944WAT      O57073   7.532   5.467   9.833
18944WAT     H157074   7.550   5.556   9.792
18944WAT     H257075   7.537   5.475   9.933
18945WAT      O57076   6.120   8.912   1.325
18945WAT     H157077   6.063   8.914   1.243
18945WAT     H257078   6.129   8.818   1.357
18946WAT      O57079   5.559   7.611   0.336
18946WAT     H157080   5.555   7.707   0.365
18946WAT     H257081   5.469   7.569   0.347
18947WAT      O57082   4.152   1.954   5.356
18947WAT     H157083   4.243   1.996   5.354
18947WAT     H257084   4.143   1.890   5.279
18948WAT      O57085   1.333   9.473   5.227
18948WAT     H157086   1.392   9.538   5.274
18948WAT     H257087   1.276   9.521   5.161
18949WAT      O57088   9.249   1.103   9.211
18949WAT     H157089   9.328   1.043   9.203
18949WAT     H257090   9.165   1.049   9.207
18950WAT      O57091   4.597   3.466   9.091
18950WAT     H157092   4.511   3.516   9.087
18950WAT     H257093   4.584   3.374   9.055
18951WAT      O57094   6.333   6.805   5.150
18951WAT     H157095   6.243   6.801   5.195
18951WAT     H257096   6.339   6.889   5.096
18952WAT      O57097   7.465   1.600   0.613
18952WAT     H157098   7.370   1.617   0.586
18952WAT     H257099   7.493   1.670   0.679
18953WAT      O57100   7.838   1.397   0.136
18953WAT     H157101   7.759   1.413   0.075
18953WAT     H257102   7.893   1.322   0.099
18954WAT      O57103   0.876   2.772   0.519
18954WAT     H157104   0.963   2.805   0.554
18954WAT     H257105   0.802   2.803   0.578
18955WAT      O57106   6.265   1.131   3.459
18955WAT     H157107   6.342   1.095   3.512
18955WAT     H257108   6.298   1.206   3.402
18956WAT      O57109   0.496   7.136   0.789
18956WAT     H157110   0.427   7.204   0.765
18956WAT     H257111   0.495   7.121   0.888
18957WAT      O57112   6.009   8.778   2.301
18957WAT     H157113   5.925   8.826   2.277
18957WAT     H257114   6.037   8.719   2.225
18958WAT      O57115   0.994   1.215   2.597
18958WAT     H157116   1.072   1.249   2.649
18958WAT     H257117   0.937   1.293   2.569
18959WAT      O57118   7.794   5.459   7.353
18959WAT     H157119   7.894   5.457   7.357
18959WAT     H257120   7.761   5.378   7.305
18960WAT      O57121   8.157   5.905   2.143
18960WAT     H157122   8.252   5.918   2.171
18960WAT     H257123   8.121   5.991   2.106
18961WAT      O57124   1.971   9.638   8.997
18961WAT     H157125   2.034   9.616   8.922
18961WAT     H257126   1.978   9.735   9.019
18962WAT      O57127   6.603   8.091   3.103
18962WAT     H157128   6.672   8.028   3.069
18962WAT     H257129   6.551   8.128   3.026
18963WAT      O57130   5.473   8.174   4.498
18963WAT     H157131   5.448   8.197   4.592
18963WAT     H257132   5.483   8.075   4.490
18964WAT      O57133   4.619   9.571   8.760
18964WAT     H157134   4.600   9.534   8.851
18964WAT     H257135   4.569   9.518   8.691
18965WAT      O57136   3.554   2.557   5.207
18965WAT     H157137   3.592   2.469   5.234
18965WAT     H257138   3.456   2.548   5.190
18966WAT      O57139   2.245   1.471   9.354
18966WAT     H157140   2.268   1.565   9.380
18966WAT     H257141   2.325   1.413   9.363
18967WAT      O57142   3.234   0.181   5.726
18967WAT     H157143   3.334   0.187   5.729
18967WAT     H257144   3.195   0.241   5.797
18968WAT      O57145   8.039   8.124   2.669
18968WAT     H157146   7.998   8.053   2.612
18968WAT     H257147   7.967   8.180   2.711
18969WAT      O57148   4.945   3.909   6.601
18969WAT     H157149   4.902   3.944   6.518
18969WAT     H257150   4.966   3.985   6.663
18970WAT      O57151   7.700   7.099   1.512
18970WAT     H157152   7.785   7.059   1.548
18970WAT     H257153   7.639   7.121   1.588
18971WAT      O57154   9.798   4.115   1.143
18971WAT     H157155   9.699   4.103   1.140
18971WAT     H257156   9.824   4.160   1.229
18972WAT      O57157   9.536   7.884   2.526
18972WAT     H157158   9.474   7.812   2.557
18972WAT     H257159   9.506   7.918   2.436
18973WAT      O57160   2.202   5.421   2.215
18973WAT     H157161   2.127   5.483   2.191
18973WAT     H257162   2.168   5.349   2.276
18974WAT      O57163   1.888   8.417   8.616
18974WAT     H157164   1.868   8.320   8.600
18974WAT     H257165   1.942   8.426   8.699
18975WAT      O57166   7.957   7.167   2.112
18975WAT     H157167   7.857   7.176   2.119
18975WAT     H257168   7.996   7.161   2.204
18976WAT      O57169   5.607   5.307   3.590
18976WAT     H157170   5.627   5.228   3.531
18976WAT     H257171   5.690   5.336   3.637
18977WAT      O57172   7.820   4.852   6.357
18977WAT     H157173   7.748   4.873   6.423
18977WAT     H257174   7.803   4.761   6.318
18978WAT      O57175   3.313   0.727   5.110
18978WAT     H157176   3.242   0.673   5.064
18978WAT     H257177   3.317   0.818   5.069
18979WAT      O57178   6.483   1.547   8.929
18979WAT     H157179   6.439   1.621   8.980
18979WAT     H257180   6.420   1.513   8.859
18980WAT      O57181   1.551   4.516   7.685
18980WAT     H157182   1.500   4.430   7.687
18980WAT     H257183   1.511   4.580   7.751
18981WAT      O57184   6.890   4.332   6.827
18981WAT     H157185   6.804   4.368   6.865
18981WAT     H257186   6.957   4.406   6.821
18982WAT      O57187   1.718   2.954   1.087
18982WAT     H157188   1.654   3.000   1.148
18982WAT     H257189   1.680   2.864   1.062
18983WAT      O57190   6.896   4.958   4.597
18983WAT     H157191   6.806   4.998   4.584
18983WAT     H257192   6.899   4.907   4.683
18984WAT      O57193   4.375   2.291   3.278
18984WAT     H157194   4.437   2.230   3.228
18984WAT     H257195   4.425   2.372   3.308
18985WAT      O57196   7.794   9.778   1.580
18985WAT     H157197   7.825   9.868   1.610
18985WAT     H257198   7.703   9.785   1.538
18986WAT      O57199   5.791   2.171   4.057
18986WAT     H157200   5.754   2.264   4.045
18986WAT     H257201   5.888   2.171   4.035
18987WAT      O57202   8.403   6.537   9.381
18987WAT     H157203   8.314   6.511   9.343
18987WAT     H257204   8.416   6.489   9.468
18988WAT      O57205   5.382   2.248   1.772
18988WAT     H157206   5.301   2.248   1.714
18988WAT     H257207   5.391   2.337   1.818
18989WAT      O57208   3.423   4.283   4.434
18989WAT     H157209   3.437   4.191   4.396
18989WAT     H257210   3.496   4.303   4.499
18990WAT      O57211   2.209   7.225   4.923
18990WAT     H157212   2.207   7.171   4.839
18990WAT     H257213   2.218   7.165   5.002
18991WAT      O57214   4.170   5.412   3.324
18991WAT     H157215   4.129   5.391   3.413
18991WAT     H257216   4.186   5.510   3.317
18992WAT      O57217   6.738   9.146   1.883
18992WAT     H157218   6.723   9.198   1.967
18992WAT     H257219   6.713   9.051   1.898
18993WAT      O57220   2.540   5.806   6.339
18993WAT     H157221   2.467   5.739   6.348
18993WAT     H257222   2.501   5.898   6.338
18994WAT      O57223   6.382   4.044   3.964
18994WAT     H157224   6.427   3.954   3.964
18994WAT     H257225   6.441   4.110   4.011
18995WAT      O57226   3.541   0.401   2.360
18995WAT     H157227   3.464   0.450   2.401
18995WAT     H257228   3.512   0.309   2.334
18996WAT      O57229   3.233   6.469   6.395
18996WAT     H157230   3.251   6.488   6.298
18996WAT     H257231   3.305   6.510   6.450
18997WAT      O57232   2.431   8.597   1.461
18997WAT     H157233   2.374   8.562   1.387
18997WAT     H257234   2.526   8.601   1.430
18998WAT      O57235   5.644   7.355   2.798
18998WAT     H157236   5.737   7.318   2.793
18998WAT     H257237   5.578   7.281   2.788
18999WAT      O57238   0.314   0.476   6.982
18999WAT     H157239   0.215   0.483   6.984
18999WAT     H257240   0.341   0.379   6.987
19000WAT      O57241   7.510   9.638   1.748
19000WAT     H157242   7.410   9.641   1.745
19000WAT     H257243   7.545   9.730   1.732
19001WAT      O57244   2.560   0.347   4.690
19001WAT     H157245   2.575   0.405   4.770
19001WAT     H257246   2.468   0.308   4.694
19002WAT      O57247   6.644   2.715   4.625
19002WAT     H157248   6.598   2.627   4.639
19002WAT     H257249   6.588   2.773   4.567
19003WAT      O57250   4.762   8.344   2.559
19003WAT     H157251   4.808   8.420   2.514
19003WAT     H257252   4.698   8.380   2.628
19004WAT      O57253   3.612   5.067   8.052
19004WAT     H157254   3.569   5.138   8.107
19004WAT     H257255   3.668   5.008   8.110
19005WAT      O57256   2.573   8.728   6.221
19005WAT     H157257   2.576   8.660   6.148
19005WAT     H257258   2.480   8.764   6.229
19006WAT      O57259   0.108   1.697   5.658
19006WAT     H157260   0.097   1.784   5.609
19006WAT     H257261   0.178   1.707   5.728
19007WAT      O57262   2.177   2.957   7.214
19007WAT     H157263   2.270   2.992   7.226
19007WAT     H257264   2.155   2.951   7.117
19008WAT      O57265   3.054   6.597   9.850
19008WAT     H157266   2.962   6.564   9.870
19008WAT     H257267   3.120   6.524   9.865
19009WAT      O57268   0.064   6.798   1.297
19009WAT     H157269   0.019   6.713   1.324
19009WAT     H257270  -0.004   6.869   1.280
19010WAT      O57271   2.600   4.150   0.365
19010WAT     H157272   2.563   4.238   0.334
19010WAT     H257273   2.612   4.153   0.464
19011WAT      O57274   0.745   3.310   4.208
19011WAT     H157275   0.816   3.314   4.137
19011WAT     H257276   0.779   3.351   4.292
19012WAT      O57277   1.597   2.309   1.385
19012WAT     H157278   1.670   2.363   1.344
19012WAT     H257279   1.563   2.355   1.467
19013WAT      O57280   9.165   9.420   1.469
19013WAT     H157281   9.153   9.381   1.561
19013WAT     H257282   9.260   9.446   1.456
19014WAT      O57283   5.379   3.355   8.161
19014WAT     H157284   5.439   3.314   8.093
19014WAT     H257285   5.295   3.302   8.168
19015WAT      O57286   5.711   5.791   6.632
19015WAT     H157287   5.625   5.799   6.683
19015WAT     H257288   5.714   5.861   6.560
19016WAT      O57289   5.855   2.146   3.109
19016WAT     H157290   5.800   2.188   3.181
19016WAT     H257291   5.803   2.144   3.024
19017WAT      O57292   3.616   3.829   9.370
19017WAT     H157293   3.558   3.902   9.334
19017WAT     H257294   3.671   3.790   9.296
19018WAT      O57295   8.906   0.875   1.628
19018WAT     H157296   8.813   0.910   1.640
19018WAT     H257297   8.954   0.875   1.715
19019WAT      O57298   1.221   2.440   5.565
19019WAT     H157299   1.237   2.421   5.468
19019WAT     H257300   1.205   2.538   5.578
19020WAT      O57301   6.427   5.675   5.469
19020WAT     H157302   6.437   5.585   5.510
19020WAT     H257303   6.428   5.667   5.369
19021WAT      O57304   1.951   6.551   9.755
19021WAT     H157305   1.945   6.530   9.852
19021WAT     H257306   2.045   6.539   9.724
19022WAT      O57307   2.370   4.349   0.807
19022WAT     H157308   2.463   4.382   0.822
19022WAT     H257309   2.314   4.421   0.767
19023WAT      O57310   8.084   1.179   3.165
19023WAT     H157311   8.121   1.180   3.258
19023WAT     H257312   8.124   1.103   3.114
19024WAT      O57313   5.829   8.654   0.946
19024WAT     H157314   5.853   8.687   0.855
19024WAT     H257315   5.750   8.592   0.939
19025WAT      O57316   1.755   8.793   5.392
19025WAT     H157317   1.722   8.773   5.484
19025WAT     H257318   1.680   8.827   5.337
19026WAT      O57319   5.112   8.689   2.480
19026WAT     H157320   5.170   8.710   2.402
19026WAT     H257321   5.098   8.772   2.535
19027WAT      O57322   2.643   8.516   4.061
19027WAT     H157323   2.705   8.576   4.011
19027WAT     H257324   2.548   8.542   4.041
19028WAT      O57325   2.107   7.422   5.617
19028WAT     H157326   2.027   7.408   5.559
19028WAT     H257327   2.135   7.335   5.658
19029WAT      O57328   8.922   8.108   2.270
19029WAT     H157329   8.992   8.119   2.341
19029WAT     H257330   8.861   8.187   2.272
19030WAT      O57331   4.707   8.959   3.870
19030WAT     H157332   4.639   8.927   3.804
19030WAT     H257333   4.798   8.926   3.842
19031WAT      O57334   9.291   8.269   2.589
19031WAT     H157335   9.235   8.327   2.530
19031WAT     H257336   9.387   8.275   2.561
19032WAT      O57337   7.405   8.859   6.936
19032WAT     H157338   7.484   8.880   6.877
19032WAT     H257339   7.327   8.913   6.906
19033WAT      O57340   3.115   3.312   3.912
19033WAT     H157341   3.187   3.295   3.979
19033WAT     H257342   3.029   3.329   3.960
19034WAT      O57343   4.773   3.519   2.647
19034WAT     H157344   4.774   3.435   2.702
19034WAT     H257345   4.740   3.498   2.555
19035WAT      O57346   8.189   6.837   3.341
19035WAT     H157347   8.257   6.893   3.294
19035WAT     H257348   8.180   6.868   3.436
19036WAT      O57349   2.354   4.156   0.628
19036WAT     H157350   2.342   4.199   0.717
19036WAT     H257351   2.448   4.122   0.620
19037WAT      O57352   0.624   8.364   7.347
19037WAT     H157353   0.583   8.455   7.350
19037WAT     H257354   0.595   8.312   7.427
19038WAT      O57355   0.037   8.108   7.599
19038WAT     H157356  -0.058   8.086   7.576
19038WAT     H257357   0.042   8.203   7.632
19039WAT      O57358   7.574   8.862   4.092
19039WAT     H157359   7.553   8.843   3.996
19039WAT     H257360   7.563   8.779   4.146
19040WAT      O57361   0.949   5.347   3.030
19040WAT     H157362   0.956   5.337   3.130
19040WAT     H257363   0.940   5.443   3.007
19041WAT      O57364   9.777   4.117   6.965
19041WAT     H157365   9.733   4.030   6.988
19041WAT     H257366   9.718   4.192   6.994
19042WAT      O57367   5.932   4.877   3.650
19042WAT     H157368   5.952   4.951   3.586
19042WAT     H257369   5.962   4.903   3.742
19043WAT      O57370   0.140   2.621   6.516
19043WAT     H157371   0.158   2.562   6.595
19043WAT     H257372   0.104   2.566   6.441
19044WAT      O57373   0.159   4.669   4.362
19044WAT     H157374   0.172   4.600   4.434
19044WAT     H257375   0.237   4.665   4.299
19045WAT      O57376   0.237   0.130   4.232
19045WAT     H157377   0.226   0.065   4.156
19045WAT     H257378   0.320   0.108   4.283
19046WAT      O57379   5.140   6.732   6.751
19046WAT     H157380   5.054   6.726   6.802
19046WAT     H257381   5.210   6.678   6.798
19047WAT      O57382   8.367   5.096   1.934
19047WAT     H157383   8.461   5.120   1.961
19047WAT     H257384   8.325   5.174   1.889
19048WAT      O57385   9.219   6.874   3.021
19048WAT     H157386   9.304   6.902   2.977
19048WAT     H257387   9.225   6.778   3.046
19049WAT      O57388   0.488   8.537   3.401
19049WAT     H157389   0.502   8.623   3.451
19049WAT     H257390   0.410   8.548   3.339
19050WAT      O57391   9.066   3.870   5.089
19050WAT     H157392   9.093   3.904   5.179
19050WAT     H257393   9.144   3.878   5.027
19051WAT      O57394   1.944   5.367   9.875
19051WAT     H157395   1.907   5.353   9.967
19051WAT     H257396   1.930   5.283   9.821
19052WAT      O57397   3.821   4.669   7.676
19052WAT     H157398   3.808   4.746   7.738
19052WAT     H257399   3.760   4.594   7.702
19053WAT      O57400   6.460   9.474   1.332
19053WAT     H157401   6.442   9.475   1.431
19053WAT     H257402   6.549   9.432   1.315
19054WAT      O57403   1.502   7.683   2.122
19054WAT     H157404   1.523   7.769   2.169
19054WAT     H257405   1.513   7.695   2.023
19055WAT      O57406   3.032   2.958   8.733
19055WAT     H157407   2.975   3.033   8.699
19055WAT     H257408   3.069   2.907   8.655
19056WAT      O57409   6.586   7.232   2.655
19056WAT     H157410   6.521   7.223   2.580
19056WAT     H257411   6.631   7.144   2.671
19057WAT      O57412   9.620   7.311   1.695
19057WAT     H157413   9.541   7.340   1.640
19057WAT     H257414   9.677   7.390   1.716
19058WAT      O57415   0.111   6.737   0.750
19058WAT     H157416   0.071   6.818   0.795
19058WAT     H257417   0.163   6.685   0.817
19059WAT      O57418   2.263   5.913   7.685
19059WAT     H157419   2.353   5.944   7.656
19059WAT     H257420   2.259   5.813   7.681
19060WAT      O57421   1.829   0.856   4.377
19060WAT     H157422   1.756   0.904   4.427
19060WAT     H257423   1.869   0.918   4.309
19061WAT      O57424   6.408   5.177   2.725
19061WAT     H157425   6.407   5.114   2.647
19061WAT     H257426   6.353   5.140   2.799
19062WAT      O57427   8.999   6.554   0.568
19062WAT     H157428   8.918   6.584   0.516
19062WAT     H257429   9.029   6.465   0.532
19063WAT      O57430   8.288   5.866   7.842
19063WAT     H157431   8.329   5.894   7.756
19063WAT     H257432   8.346   5.894   7.918
19064WAT      O57433   1.912   8.572   1.120
19064WAT     H157434   1.863   8.553   1.035
19064WAT     H257435   1.959   8.490   1.150
19065WAT      O57436   7.778   0.560   8.163
19065WAT     H157437   7.680   0.549   8.183
19065WAT     H257438   7.807   0.485   8.103
19066WAT      O57439   1.955   0.035   4.163
19066WAT     H157440   1.962   0.018   4.261
19066WAT     H257441   1.955  -0.052   4.114
19067WAT      O57442   1.664   7.401   0.483
19067WAT     H157443   1.704   7.491   0.463
19067WAT     H257444   1.580   7.389   0.431
19068WAT      O57445   4.785   5.998   7.258
19068WAT     H157446   4.747   6.022   7.348
19068WAT     H257447   4.737   5.918   7.222
19069WAT      O57448   0.721   1.384   7.612
19069WAT     H157449   0.638   1.410   7.661
19069WAT     H257450   0.708   1.402   7.514
19070WAT      O57451   1.868   1.932   5.680
19070WAT     H157452   1.815   1.903   5.600
19070WAT     H257453   1.914   2.019   5.660
19071WAT      O57454   5.148   0.770   2.036
19071WAT     H157455   5.128   0.820   1.952
19071WAT     H257456   5.198   0.829   2.099
19072WAT      O57457   5.419   3.962   5.908
19072WAT     H157458   5.473   3.957   5.992
19072WAT     H257459   5.436   4.049   5.862
19073WAT      O57460   3.158   1.138   5.924
19073WAT     H157461   3.158   1.046   5.884
19073WAT     H257462   3.233   1.192   5.885
19074WAT      O57463   7.198   5.716   0.994
19074WAT     H157464   7.189   5.702   1.093
19074WAT     H257465   7.180   5.630   0.947
19075WAT      O57466   1.564   1.841   2.075
19075WAT     H157467   1.558   1.901   1.995
19075WAT     H257468   1.655   1.800   2.079
19076WAT      O57469   7.556   0.102   7.675
19076WAT     H157470   7.619   0.025   7.668
19076WAT     H257471   7.465   0.075   7.642
19077WAT      O57472   9.146   9.227   4.724
19077WAT     H157473   9.176   9.302   4.783
19077WAT     H257474   9.167   9.248   4.629
19078WAT      O57475   8.721   4.727   0.367
19078WAT     H157476   8.749   4.686   0.454
19078WAT     H257477   8.719   4.656   0.296
19079WAT      O57478   2.303   8.447   9.077
19079WAT     H157479   2.232   8.476   9.141
19079WAT     H257480   2.331   8.524   9.020
19080WAT      O57481   7.926   3.359   7.127
19080WAT     H157482   7.979   3.283   7.165
19080WAT     H257483   7.982   3.407   7.059
19081WAT      O57484   1.610   3.575   0.368
19081WAT     H157485   1.526   3.569   0.422
19081WAT     H257486   1.689   3.557   0.426
19082WAT      O57487   3.253   4.145   9.591
19082WAT     H157488   3.193   4.156   9.512
19082WAT     H257489   3.288   4.051   9.593
19083WAT      O57490   8.219   3.681   1.257
19083WAT     H157491   8.185   3.587   1.247
19083WAT     H257492   8.183   3.720   1.342
19084WAT      O57493   4.151   7.889   0.698
19084WAT     H157494   4.239   7.858   0.732
19084WAT     H257495   4.160   7.981   0.660
19085WAT      O57496   8.961   9.313   9.661
19085WAT     H157497   8.977   9.256   9.741
19085WAT     H257498   8.869   9.353   9.666
19086WAT      O57499   7.925   5.022   0.843
19086WAT     H157500   7.976   5.069   0.771
19086WAT     H257501   7.919   5.083   0.923
19087WAT      O57502   4.809   8.336   1.200
19087WAT     H157503   4.883   8.268   1.200
19087WAT     H257504   4.754   8.325   1.283
19088WAT      O57505   5.190   9.724   0.115
19088WAT     H157506   5.176   9.730   0.214
19088WAT     H257507   5.103   9.709   0.069
19089WAT      O57508   4.585   4.170   0.967
19089WAT     H157509   4.628   4.101   0.910
19089WAT     H257510   4.571   4.254   0.913
19090WAT      O57511   6.777   2.037   2.379
19090WAT     H157512   6.783   2.122   2.432
19090WAT     H257513   6.688   1.994   2.395
19091WAT      O57514   4.691   6.241   1.196
19091WAT     H157515   4.736   6.331   1.201
19091WAT     H257516   4.666   6.222   1.101
19092WAT      O57517   5.057   5.267   1.939
19092WAT     H157518   5.045   5.295   2.034
19092WAT     H257519   5.044   5.168   1.932
19093WAT      O57520   8.938   6.705   3.792
19093WAT     H157521   9.024   6.686   3.745
19093WAT     H257522   8.910   6.799   3.775
19094WAT      O57523   8.744   7.595   1.061
19094WAT     H157524   8.708   7.680   1.100
19094WAT     H257525   8.834   7.613   1.021
19095WAT      O57526   1.319   6.464   8.761
19095WAT     H157527   1.344   6.561   8.770
19095WAT     H257528   1.379   6.420   8.695
19096WAT      O57529   2.799   5.970   9.812
19096WAT     H157530   2.844   5.980   9.723
19096WAT     H257531   2.812   5.877   9.846
19097WAT      O57532   0.400   5.080   8.309
19097WAT     H157533   0.499   5.081   8.293
19097WAT     H257534   0.376   5.156   8.369
19098WAT      O57535   4.284   5.376   7.977
19098WAT     H157536   4.228   5.334   8.048
19098WAT     H257537   4.300   5.310   7.903
19099WAT      O57538   6.565   2.705   7.219
19099WAT     H157539   6.595   2.620   7.175
19099WAT     H257540   6.465   2.705   7.227
19100WAT      O57541   3.636   1.221   1.039
19100WAT     H157542   3.578   1.279   1.096
19100WAT     H257543   3.590   1.133   1.024
19101WAT      O57544   0.161   0.407   4.143
19101WAT     H157545   0.241   0.462   4.118
19101WAT     H257546   0.191   0.321   4.185
19102WAT      O57547   9.755   2.280   4.298
19102WAT     H157548   9.788   2.188   4.319
19102WAT     H257549   9.753   2.335   4.382
19103WAT      O57550   3.752   0.804   1.117
19103WAT     H157551   3.676   0.742   1.097
19103WAT     H257552   3.753   0.825   1.214
19104WAT      O57553   0.974   0.411   9.205
19104WAT     H157554   1.011   0.427   9.114
19104WAT     H257555   0.976   0.313   9.225
19105WAT      O57556   4.156   7.102   6.686
19105WAT     H157557   4.117   7.160   6.615
19105WAT     H257558   4.216   7.156   6.745
19106WAT      O57559   1.382   5.613   1.534
19106WAT     H157560   1.287   5.645   1.535
19106WAT     H257561   1.386   5.524   1.488
19107WAT      O57562   8.049   8.029   5.356
19107WAT     H157563   8.021   8.094   5.285
19107WAT     H257564   8.040   8.071   5.446
19108WAT      O57565   7.340   8.916   5.268
19108WAT     H157566   7.308   9.005   5.301
19108WAT     H257567   7.262   8.853   5.260
19109WAT      O57568   5.640   5.804   9.845
19109WAT     H157569   5.659   5.902   9.848
19109WAT     H257570   5.629   5.775   9.750
19110WAT      O57571   5.322   9.799   2.143
19110WAT     H157572   5.419   9.804   2.166
19110WAT     H257573   5.299   9.871   2.077
19111WAT      O57574   5.134   8.459   2.998
19111WAT     H157575   5.129   8.511   2.912
19111WAT     H257576   5.136   8.361   2.977
19112WAT      O57577   6.195   2.611   8.467
19112WAT     H157578   6.231   2.617   8.560
19112WAT     H257579   6.135   2.689   8.450
19113WAT      O57580   0.376   1.216   5.344
19113WAT     H157581   0.335   1.255   5.426
19113WAT     H257582   0.469   1.186   5.364
19114WAT      O57583   9.144   8.699   1.056
19114WAT     H157584   9.057   8.723   1.013
19114WAT     H257585   9.177   8.777   1.110
19115WAT      O57586   7.507   8.587   7.570
19115WAT     H157587   7.598   8.583   7.528
19115WAT     H257588   7.465   8.496   7.568
19116WAT      O57589   0.825   9.552   6.069
19116WAT     H157590   0.737   9.563   6.115
19116WAT     H257591   0.829   9.615   5.991
19117WAT      O57592   2.219   9.787   2.149
19117WAT     H157593   2.182   9.721   2.214
19117WAT     H257594   2.253   9.740   2.068
19118WAT      O57595   0.987   1.355   5.195
19118WAT     H157596   0.985   1.433   5.258
19118WAT     H257597   0.931   1.375   5.115
19119WAT      O57598   8.937   3.279   4.101
19119WAT     H157599   8.873   3.205   4.122
19119WAT     H257600   8.996   3.295   4.181
19120WAT      O57601   1.493   3.870   8.555
19120WAT     H157602   1.486   3.920   8.469
19120WAT     H257603   1.544   3.925   8.622
19121WAT      O57604   3.241   6.509   2.573
19121WAT     H157605   3.152   6.522   2.616
19121WAT     H257606   3.300   6.586   2.595
19122WAT      O57607   9.649   2.301   3.282
19122WAT     H157608   9.735   2.251   3.293
19122WAT     H257609   9.630   2.314   3.185
19123WAT      O57610   2.457   5.000   4.447
19123WAT     H157611   2.407   5.044   4.372
19123WAT     H257612   2.453   4.901   4.436
19124WAT      O57613   1.650   6.719   3.568
19124WAT     H157614   1.640   6.794   3.633
19124WAT     H257615   1.572   6.717   3.506
19125WAT      O57616   8.569   0.916   0.189
19125WAT     H157617   8.643   0.963   0.140
19125WAT     H257618   8.546   0.831   0.141
19126WAT      O57619   9.802   8.034   3.049
19126WAT     H157620   9.749   7.985   3.119
19126WAT     H257621   9.771   8.005   2.958
19127WAT      O57622   9.264   8.217   2.226
19127WAT     H157623   9.203   8.178   2.295
19127WAT     H257624   9.276   8.151   2.152
19128WAT      O57625   2.333   7.540   7.444
19128WAT     H157626   2.405   7.602   7.476
19128WAT     H257627   2.249   7.558   7.496
19129WAT      O57628   1.646   5.900   2.585
19129WAT     H157629   1.637   5.807   2.619
19129WAT     H257630   1.689   5.899   2.495
19130WAT      O57631   4.624   0.279   4.715
19130WAT     H157632   4.687   0.246   4.645
19130WAT     H257633   4.594   0.203   4.772
19131WAT      O57634   4.341   0.663   4.359
19131WAT     H157635   4.387   0.664   4.448
19131WAT     H257636   4.410   0.669   4.286
19132WAT      O57637   8.849   3.349   7.165
19132WAT     H157638   8.843   3.336   7.264
19132WAT     H257639   8.931   3.303   7.130
19133WAT      O57640   7.222   7.751   7.359
19133WAT     H157641   7.238   7.849   7.349
19133WAT     H257642   7.124   7.733   7.363
19134WAT      O57643   5.926   6.548   3.961
19134WAT     H157644   5.953   6.492   4.039
19134WAT     H257645   5.886   6.490   3.890
19135WAT      O57646   7.230   1.958   9.518
19135WAT     H157647   7.250   1.863   9.541
19135WAT     H257648   7.193   2.005   9.598
19136WAT      O57649   0.060   7.631   1.863
19136WAT     H157650   0.125   7.633   1.940
19136WAT     H257651   0.055   7.722   1.822
19137WAT      O57652   6.296   2.787   6.143
19137WAT     H157653   6.196   2.784   6.148
19137WAT     H257654   6.325   2.790   6.048
19138WAT      O57655   9.161   3.028   9.330
19138WAT     H157656   9.209   3.055   9.413
19138WAT     H257657   9.212   3.063   9.250
19139WAT      O57658   5.083   0.599   1.644
19139WAT     H157659   5.057   0.507   1.614
19139WAT     H257660   5.002   0.648   1.678
19140WAT      O57661   1.944   8.679   1.886
19140WAT     H157662   1.862   8.692   1.830
19140WAT     H257663   2.016   8.742   1.856
19141WAT      O57664   6.718   1.678   7.737
19141WAT     H157665   6.631   1.630   7.729
19141WAT     H257666   6.722   1.753   7.671
19142WAT      O57667   2.716   9.703   6.350
19142WAT     H157668   2.646   9.772   6.332
19142WAT     H257669   2.672   9.614   6.363
19143WAT      O57670   7.544   6.631   3.196
19143WAT     H157671   7.474   6.689   3.154
19143WAT     H257672   7.622   6.687   3.222
19144WAT      O57673   6.220   2.146   5.767
19144WAT     H157674   6.264   2.202   5.838
19144WAT     H257675   6.249   2.051   5.778
19145WAT      O57676   3.596   9.399   4.130
19145WAT     H157677   3.645   9.472   4.083
19145WAT     H257678   3.632   9.388   4.222
19146WAT      O57679   2.145   3.613   8.905
19146WAT     H157680   2.069   3.660   8.860
19146WAT     H257681   2.154   3.521   8.868
19147WAT      O57682   4.913   7.184   1.827
19147WAT     H157683   4.826   7.142   1.855
19147WAT     H257684   4.941   7.146   1.739
19148WAT      O57685   3.145   7.378   6.075
19148WAT     H157686   3.144   7.478   6.080
19148WAT     H257687   3.089   7.341   6.149
19149WAT      O57688   0.856   2.027   5.663
19149WAT     H157689   0.933   2.091   5.660
19149WAT     H257690   0.813   2.022   5.573
19150WAT      O57691   5.306   9.628   8.185
19150WAT     H157692   5.260   9.705   8.140
19150WAT     H257693   5.252   9.545   8.171
19151WAT      O57694   7.256   2.556   1.001
19151WAT     H157695   7.179   2.576   0.940
19151WAT     H257696   7.282   2.640   1.050
19152WAT      O57697   4.828   6.092   0.095
19152WAT     H157698   4.813   6.158   0.169
19152WAT     H257699   4.894   6.130   0.030
19153WAT      O57700   4.937   2.846   4.713
19153WAT     H157701   4.844   2.826   4.746
19153WAT     H257702   4.942   2.825   4.615
19154WAT      O57703   7.375   4.160   3.054
19154WAT     H157704   7.457   4.183   3.002
19154WAT     H257705   7.295   4.203   3.012
19155WAT      O57706   5.112   3.334   4.886
19155WAT     H157707   5.075   3.250   4.846
19155WAT     H257708   5.051   3.366   4.958
19156WAT      O57709   1.031   8.913   1.566
19156WAT     H157710   0.963   8.954   1.627
19156WAT     H257711   0.989   8.890   1.478
19157WAT      O57712   0.892   6.511   6.100
19157WAT     H157713   0.894   6.518   6.199
19157WAT     H257714   0.980   6.477   6.067
19158WAT      O57715   2.633   7.500   3.826
19158WAT     H157716   2.668   7.568   3.762
19158WAT     H257717   2.672   7.516   3.917
19159WAT      O57718   8.483   3.804   8.230
19159WAT     H157719   8.506   3.725   8.173
19159WAT     H257720   8.438   3.874   8.174
19160WAT      O57721   0.630   9.053   7.294
19160WAT     H157722   0.649   9.120   7.223
19160WAT     H257723   0.532   9.033   7.296
19161WAT      O57724   1.054   2.240   5.632
19161WAT     H157725   1.016   2.284   5.713
19161WAT     H257726   1.114   2.305   5.585
19162WAT      O57727   8.269   5.221   9.807
19162WAT     H157728   8.307   5.210   9.715
19162WAT     H257729   8.237   5.315   9.819
19163WAT      O57730   5.526   3.676   9.080
19163WAT     H157731   5.436   3.693   9.121
19163WAT     H257732   5.562   3.762   9.043
19164WAT      O57733   7.705   3.479   5.585
19164WAT     H157734   7.773   3.434   5.527
19164WAT     H257735   7.668   3.559   5.538
19165WAT      O57736   0.291   2.533   3.793
19165WAT     H157737   0.354   2.512   3.717
19165WAT     H257738   0.231   2.454   3.809
19166WAT      O57739   4.964   4.666   9.845
19166WAT     H157740   5.046   4.620   9.810
19166WAT     H257741   4.971   4.765   9.828
19167WAT      O57742   2.394   2.265   4.265
19167WAT     H157743   2.359   2.260   4.358
19167WAT     H257744   2.360   2.348   4.221
19168WAT      O57745   5.620   5.063   4.358
19168WAT     H157746   5.581   5.144   4.315
19168WAT     H257747   5.713   5.083   4.389
19169WAT      O57748   7.274   4.156   9.449
19169WAT     H157749   7.334   4.138   9.371
19169WAT     H257750   7.294   4.245   9.488
19170WAT      O57751   9.572   1.565   5.985
19170WAT     H157752   9.596   1.563   5.888
19170WAT     H257753   9.650   1.599   6.038
19171WAT      O57754   8.350   3.021   2.294
19171WAT     H157755   8.415   3.064   2.232
19171WAT     H257756   8.360   3.060   2.385
19172WAT      O57757   8.239   6.569   3.994
19172WAT     H157758   8.279   6.498   3.935
19172WAT     H257759   8.255   6.545   4.090
19173WAT      O57760   4.403   0.560   2.706
19173WAT     H157761   4.486   0.575   2.653
19173WAT     H257762   4.410   0.608   2.794
19174WAT      O57763   3.580   5.985   4.368
19174WAT     H157764   3.679   5.988   4.357
19174WAT     H257765   3.556   5.920   4.441
19175WAT      O57766   3.853   5.570   2.715
19175WAT     H157767   3.785   5.599   2.648
19175WAT     H257768   3.837   5.617   2.802
19176WAT      O57769   6.677   1.351   3.331
19176WAT     H157770   6.678   1.256   3.362
19176WAT     H257771   6.699   1.354   3.234
19177WAT      O57772   8.010   4.419   6.289
19177WAT     H157773   8.014   4.368   6.376
19177WAT     H257774   8.029   4.357   6.213
19178WAT      O57775   3.725   1.253   1.852
19178WAT     H157776   3.812   1.278   1.895
19178WAT     H257777   3.735   1.164   1.807
19179WAT      O57778   9.384   2.468   0.319
19179WAT     H157779   9.351   2.377   0.291
19179WAT     H257780   9.411   2.520   0.238
19180WAT      O57781   7.835   3.078   3.309
19180WAT     H157782   7.766   3.008   3.292
19180WAT     H257783   7.923   3.034   3.328
19181WAT      O57784   3.584   6.569   1.323
19181WAT     H157785   3.503   6.520   1.288
19181WAT     H257786   3.652   6.576   1.250
19182WAT      O57787   8.614   8.060   5.016
19182WAT     H157788   8.712   8.045   5.007
19182WAT     H257789   8.567   7.972   5.025
19183WAT      O57790   1.578   4.713   0.988
19183WAT     H157791   1.622   4.651   1.053
19183WAT     H257792   1.615   4.805   1.000
19184WAT      O57793   0.103   4.578   0.143
19184WAT     H157794   0.109   4.663   0.195
19184WAT     H257795   0.019   4.529   0.167
19185WAT      O57796   5.890   2.979   6.165
19185WAT     H157797   5.803   2.979   6.214
19185WAT     H257798   5.878   3.021   6.075
19186WAT      O57799   0.275   2.710   0.248
19186WAT     H157800   0.363   2.758   0.261
19186WAT     H257801   0.285   2.639   0.179
19187WAT      O57802   0.508   5.143   9.185
19187WAT     H157803   0.482   5.159   9.280
19187WAT     H257804   0.566   5.218   9.152
19188WAT      O57805   8.227   3.749   9.157
19188WAT     H157806   8.323   3.743   9.131
19188WAT     H257807   8.214   3.830   9.215
19189WAT      O57808   6.214   9.496   7.629
19189WAT     H157809   6.232   9.424   7.697
19189WAT     H257810   6.118   9.492   7.601
19190WAT      O57811   4.318   0.947   5.917
19190WAT     H157812   4.315   0.878   5.845
19190WAT     H257813   4.329   1.038   5.876
19191WAT      O57814   8.134   7.089   4.627
19191WAT     H157815   8.078   7.011   4.656
19191WAT     H257816   8.091   7.174   4.656
19192WAT      O57817   8.952   9.607   7.462
19192WAT     H157818   8.907   9.677   7.405
19192WAT     H257819   9.034   9.574   7.416
19193WAT      O57820   7.833   7.591   2.739
19193WAT     H157821   7.828   7.520   2.809
19193WAT     H257822   7.928   7.601   2.709
19194WAT      O57823   3.833   4.701   3.372
19194WAT     H157824   3.736   4.700   3.396
19194WAT     H257825   3.860   4.610   3.340
19195WAT      O57826   4.557   3.284   8.457
19195WAT     H157827   4.625   3.302   8.528
19195WAT     H257828   4.467   3.274   8.500
19196WAT      O57829   8.121   6.789   8.290
19196WAT     H157830   8.196   6.726   8.312
19196WAT     H257831   8.034   6.741   8.301
19197WAT      O57832   7.150   2.420   9.041
19197WAT     H157833   7.118   2.345   9.100
19197WAT     H257834   7.083   2.437   8.969
19198WAT      O57835   9.281   0.324   1.582
19198WAT     H157836   9.279   0.239   1.634
19198WAT     H257837   9.374   0.361   1.583
19199WAT      O57838   0.047   7.138   6.371
19199WAT     H157839   0.086   7.047   6.359
19199WAT     H257840   0.116   7.200   6.408
19200WAT      O57841   9.057   4.984   2.018
19200WAT     H157842   9.106   4.932   1.948
19200WAT     H257843   9.061   4.935   2.105
19201WAT      O57844   0.116   1.211   3.085
19201WAT     H157845   0.043   1.247   3.028
19201WAT     H257846   0.155   1.129   3.042
19202WAT      O57847   4.633   8.108   5.597
19202WAT     H157848   4.653   8.192   5.546
19202WAT     H257849   4.604   8.037   5.533
19203WAT      O57850   2.699   3.219   4.825
19203WAT     H157851   2.765   3.287   4.792
19203WAT     H257852   2.623   3.213   4.761
19204WAT      O57853   2.521   3.939   9.110
19204WAT     H157854   2.551   3.882   9.186
19204WAT     H257855   2.579   3.923   9.031
19205WAT      O57856   4.132   0.305   0.060
19205WAT     H157857   4.062   0.233   0.054
19205WAT     H257858   4.092   0.392   0.034
19206WAT      O57859   5.202   9.563   2.108
19206WAT     H157860   5.149   9.553   2.193
19206WAT     H257861   5.228   9.658   2.096
19207WAT      O57862   9.098   0.814   7.774
19207WAT     H157863   9.057   0.880   7.838
19207WAT     H257864   9.101   0.855   7.683
19208WAT      O57865   2.969   5.072   8.661
19208WAT     H157866   2.909   5.058   8.582
19208WAT     H257867   2.918   5.118   8.734
19209WAT      O57868   5.402   0.904   6.241
19209WAT     H157869   5.500   0.894   6.260
19209WAT     H257870   5.364   0.815   6.218
19210WAT      O57871   2.832   4.441   5.154
19210WAT     H157872   2.801   4.347   5.138
19210WAT     H257873   2.813   4.467   5.249
19211WAT      O57874   9.263   8.078   1.217
19211WAT     H157875   9.298   8.070   1.310
19211WAT     H257876   9.318   8.145   1.166
19212WAT      O57877   4.058   0.434   1.549
19212WAT     H157878   4.116   0.388   1.615
19212WAT     H257879   3.964   0.398   1.555
19213WAT      O57880   7.710   5.254   7.201
19213WAT     H157881   7.664   5.300   7.125
19213WAT     H257882   7.721   5.157   7.179
19214WAT      O57883   8.465   8.525   7.744
19214WAT     H157884   8.565   8.521   7.742
19214WAT     H257885   8.435   8.564   7.831
19215WAT      O57886   6.949   8.872   9.712
19215WAT     H157887   7.006   8.908   9.786
19215WAT     H257888   6.956   8.931   9.632
19216WAT      O57889   2.438   2.098   5.514
19216WAT     H157890   2.477   2.157   5.442
19216WAT     H257891   2.446   2.144   5.602
19217WAT      O57892   0.936   7.033   7.846
19217WAT     H157893   1.014   7.042   7.907
19217WAT     H257894   0.929   7.115   7.789
19218WAT      O57895   3.604   0.824   8.799
19218WAT     H157896   3.586   0.792   8.892
19218WAT     H257897   3.693   0.868   8.795
19219WAT      O57898   8.302   7.622   5.356
19219WAT     H157899   8.213   7.586   5.384
19219WAT     H257900   8.303   7.721   5.368
19220WAT      O57901   0.251   0.464   0.578
19220WAT     H157902   0.347   0.445   0.599
19220WAT     H257903   0.246   0.521   0.495
19221WAT      O57904   1.957   3.053   2.351
19221WAT     H157905   1.940   3.020   2.443
19221WAT     H257906   1.900   3.133   2.333
19222WAT      O57907   2.901   3.689   7.717
19222WAT     H157908   2.880   3.597   7.684
19222WAT     H257909   2.820   3.748   7.705
19223WAT      O57910   6.657   1.943   3.463
19223WAT     H157911   6.621   2.036   3.462
19223WAT     H257912   6.678   1.916   3.557
19224WAT      O57913   9.690   1.160   9.045
19224WAT     H157914   9.710   1.156   9.143
19224WAT     H257915   9.744   1.233   9.003
19225WAT      O57916   4.695   1.869   5.657
19225WAT     H157917   4.747   1.892   5.575
19225WAT     H257918   4.635   1.946   5.681
19226WAT      O57919   4.025   0.741   5.657
19226WAT     H157920   3.962   0.667   5.683
19226WAT     H257921   4.115   0.723   5.695
19227WAT      O57922   4.767   0.836   0.911
19227WAT     H157923   4.849   0.868   0.862
19227WAT     H257924   4.707   0.787   0.848
19228WAT      O57925   4.875   6.751   4.741
19228WAT     H157926   4.933   6.670   4.742
19228WAT     H257927   4.869   6.787   4.647
19229WAT      O57928   6.796   4.318   7.608
19229WAT     H157929   6.733   4.364   7.546
19229WAT     H257930   6.776   4.345   7.702
19230WAT      O57931   3.458   2.435   9.855
19230WAT     H157932   3.506   2.425   9.942
19230WAT     H257933   3.360   2.437   9.871
19231WAT      O57934   3.287   5.756   9.388
19231WAT     H157935   3.386   5.770   9.379
19231WAT     H257936   3.249   5.826   9.448
19232WAT      O57937   1.170   8.958   9.186
19232WAT     H157938   1.247   8.894   9.185
19232WAT     H257939   1.175   9.017   9.106
19233WAT      O57940   6.580   5.335   7.209
19233WAT     H157941   6.558   5.380   7.295
19233WAT     H257942   6.648   5.389   7.159
19234WAT      O57943   8.231   6.730   6.891
19234WAT     H157944   8.292   6.718   6.970
19234WAT     H257945   8.203   6.826   6.886
19235WAT      O57946   9.785   0.205   0.934
19235WAT     H157947   9.715   0.276   0.944
19235WAT     H257948   9.845   0.229   0.858
19236WAT      O57949   1.696   4.469   2.991
19236WAT     H157950   1.621   4.461   2.925
19236WAT     H257951   1.716   4.566   3.008
19237WAT      O57952   2.756   8.317   0.649
19237WAT     H157953   2.730   8.395   0.592
19237WAT     H257954   2.696   8.314   0.729
19238WAT      O57955   4.184   6.349   4.652
19238WAT     H157956   4.094   6.313   4.628
19238WAT     H257957   4.173   6.427   4.715
19239WAT      O57958   2.639   3.576   4.678
19239WAT     H157959   2.714   3.511   4.671
19239WAT     H257960   2.580   3.551   4.755
19240WAT      O57961   5.292   9.630   2.465
19240WAT     H157962   5.234   9.675   2.533
19240WAT     H257963   5.237   9.566   2.412
19241WAT      O57964   1.534   7.320   5.680
19241WAT     H157965   1.458   7.257   5.660
19241WAT     H257966   1.498   7.410   5.705
19242WAT      O57967   1.120   9.102   5.588
19242WAT     H157968   1.183   9.165   5.543
19242WAT     H257969   1.123   9.117   5.687
19243WAT      O57970   1.908   4.378   2.578
19243WAT     H157971   1.936   4.291   2.535
19243WAT     H257972   1.823   4.409   2.537
19244WAT      O57973   0.431   1.354   9.333
19244WAT     H157974   0.481   1.322   9.252
19244WAT     H257975   0.341   1.310   9.335
19245WAT      O57976   3.062   1.652   6.170
19245WAT     H157977   3.017   1.655   6.259
19245WAT     H257978   3.158   1.625   6.181
19246WAT      O57979   1.112   8.595   0.461
19246WAT     H157980   1.087   8.503   0.429
19246WAT     H257981   1.078   8.608   0.554
19247WAT      O57982   2.406   1.596   2.535
19247WAT     H157983   2.362   1.561   2.452
19247WAT     H257984   2.495   1.635   2.511
19248WAT      O57985   6.840   6.494   8.910
19248WAT     H157986   6.784   6.424   8.955
19248WAT     H257987   6.792   6.526   8.828
19249WAT      O57988   8.502   1.110   9.558
19249WAT     H157989   8.415   1.133   9.602
19249WAT     H257990   8.529   1.183   9.496
19250WAT      O57991   5.489   9.804   6.255
19250WAT     H157992   5.500   9.827   6.158
19250WAT     H257993   5.398   9.763   6.269
19251WAT      O57994   0.508   8.200   7.549
19251WAT     H157995   0.475   8.192   7.643
19251WAT     H257996   0.430   8.212   7.487
19252WAT      O57997   7.018   9.388   1.960
19252WAT     H157998   7.019   9.288   1.962
19252WAT     H257999   7.013   9.419   1.865
19253WAT      O58000   4.043   3.901   0.049
19253WAT     H158001   4.060   3.945  -0.040
19253WAT     H258002   3.946   3.876   0.055
19254WAT      O58003   3.810   4.515   4.441
19254WAT     H158004   3.859   4.476   4.520
19254WAT     H258005   3.862   4.592   4.405
19255WAT      O58006   2.615   1.405   8.973
19255WAT     H158007   2.658   1.458   8.900
19255WAT     H258008   2.572   1.466   9.039
19256WAT      O58009   5.052   3.215   2.113
19256WAT     H158010   5.058   3.188   2.209
19256WAT     H258011   5.025   3.136   2.058
19257WAT      O58012   6.361   9.562   3.654
19257WAT     H158013   6.341   9.480   3.601
19257WAT     H258014   6.334   9.548   3.749
19258WAT      O58015   0.574   0.168   4.334
19258WAT     H158016   0.656   0.177   4.392
19258WAT     H258017   0.565   0.073   4.305
19259WAT      O58018   1.707   4.428   0.011
19259WAT     H158019   1.773   4.465   0.077
19259WAT     H258020   1.736   4.451  -0.082
19260WAT      O58021   2.781   3.475   1.858
19260WAT     H158022   2.705   3.452   1.920
19260WAT     H258023   2.867   3.442   1.897
19261WAT      O58024   6.780   7.538   0.173
19261WAT     H158025   6.716   7.522   0.248
19261WAT     H258026   6.742   7.605   0.110
19262WAT      O58027   5.548   1.876   7.228
19262WAT     H158028   5.647   1.870   7.229
19262WAT     H258029   5.511   1.814   7.158
19263WAT      O58030   8.246   4.999   5.469
19263WAT     H158031   8.308   5.048   5.407
19263WAT     H258032   8.165   4.969   5.419
19264WAT      O58033   0.575   4.005   4.035
19264WAT     H158034   0.482   4.020   4.070
19264WAT     H258035   0.599   4.079   3.972
19265WAT      O58036   7.851   4.872   9.615
19265WAT     H158037   7.754   4.891   9.630
19265WAT     H258038   7.906   4.913   9.687
19266WAT      O58039   5.206   4.684   6.978
19266WAT     H158040   5.244   4.753   6.917
19266WAT     H258041   5.133   4.724   7.033
19267WAT      O58042   7.900   7.426   3.776
19267WAT     H158043   7.922   7.372   3.857
19267WAT     H258044   7.964   7.503   3.768
19268WAT      O58045   1.337   4.556   5.323
19268WAT     H158046   1.244   4.531   5.349
19268WAT     H258047   1.335   4.623   5.249
19269WAT      O58048   0.831   8.408   9.542
19269WAT     H158049   0.814   8.408   9.443
19269WAT     H258050   0.877   8.493   9.567
19270WAT      O58051   8.778   2.477   2.174
19270WAT     H158052   8.782   2.380   2.152
19270WAT     H258053   8.871   2.515   2.173
19271WAT      O58054   4.281   1.946   2.464
19271WAT     H158055   4.339   2.027   2.477
19271WAT     H258056   4.337   1.868   2.437
19272WAT      O58057   1.204   7.712   4.649
19272WAT     H158058   1.174   7.630   4.698
19272WAT     H258059   1.146   7.727   4.569
19273WAT      O58060   1.136   7.220   6.985
19273WAT     H158061   1.200   7.257   6.918
19273WAT     H258062   1.170   7.132   7.019
19274WAT      O58063   4.642   2.059   6.346
19274WAT     H158064   4.584   2.114   6.286
19274WAT     H258065   4.613   1.963   6.342
19275WAT      O58066   7.433   3.341   4.148
19275WAT     H158067   7.486   3.383   4.222
19275WAT     H258068   7.415   3.246   4.170
19276WAT      O58069   3.144   9.584   6.972
19276WAT     H158070   3.134   9.563   7.069
19276WAT     H258071   3.232   9.551   6.939
19277WAT      O58072   8.761   4.969   5.535
19277WAT     H158073   8.703   4.911   5.592
19277WAT     H258074   8.710   5.051   5.508
19278WAT      O58075   2.593   2.256   8.345
19278WAT     H158076   2.523   2.210   8.290
19278WAT     H258077   2.679   2.206   8.337
19279WAT      O58078   2.635   2.482   0.789
19279WAT     H158079   2.644   2.494   0.888
19279WAT     H258080   2.725   2.492   0.746
19280WAT      O58081   8.729   4.946   7.349
19280WAT     H158082   8.656   4.978   7.408
19280WAT     H258083   8.798   5.018   7.339
19281WAT      O58084   0.479   3.190   7.271
19281WAT     H158085   0.499   3.096   7.246
19281WAT     H258086   0.383   3.210   7.252
19282WAT      O58087   8.446   4.397   1.971
19282WAT     H158088   8.513   4.329   2.001
19282WAT     H258089   8.434   4.466   2.042
19283WAT      O58090   4.835   8.504   8.074
19283WAT     H158091   4.903   8.446   8.029
19283WAT     H258092   4.748   8.498   8.024
19284WAT      O58093   9.445   6.569   4.738
19284WAT     H158094   9.465   6.472   4.727
19284WAT     H258095   9.347   6.585   4.722
19285WAT      O58096   5.518   7.798   1.243
19285WAT     H158097   5.456   7.742   1.297
19285WAT     H258098   5.487   7.799   1.148
19286WAT      O58099   1.192   9.020   8.926
19286WAT     H158100   1.227   9.113   8.914
19286WAT     H258101   1.092   9.021   8.920
19287WAT      O58102   5.606   1.382   7.603
19287WAT     H158103   5.673   1.374   7.530
19287WAT     H258104   5.640   1.338   7.686
19288WAT      O58105   2.987   7.139   5.179
19288WAT     H158106   2.969   7.044   5.204
19288WAT     H258107   2.901   7.189   5.173
19289WAT      O58108   1.145   7.865   1.488
19289WAT     H158109   1.097   7.922   1.555
19289WAT     H258110   1.085   7.851   1.409
19290WAT      O58111   9.675   7.230   3.006
19290WAT     H158112   9.727   7.183   2.935
19290WAT     H258113   9.735   7.293   3.056
19291WAT      O58114   9.562   9.475   8.759
19291WAT     H158115   9.558   9.394   8.701
19291WAT     H258116   9.598   9.552   8.707
19292WAT      O58117   6.584   9.776   8.284
19292WAT     H158118   6.600   9.770   8.186
19292WAT     H258119   6.631   9.700   8.330
19293WAT      O58120   4.482   3.293   5.797
19293WAT     H158121   4.421   3.259   5.726
19293WAT     H258122   4.441   3.276   5.887
19294WAT      O58123   2.418   0.352   4.177
19294WAT     H158124   2.392   0.448   4.191
19294WAT     H258125   2.372   0.317   4.095
19295WAT      O58126   8.175   4.215   9.314
19295WAT     H158127   8.217   4.239   9.401
19295WAT     H258128   8.081   4.249   9.311
19296WAT      O58129   1.643   2.210   7.362
19296WAT     H158130   1.673   2.229   7.456
19296WAT     H258131   1.549   2.177   7.363
19297WAT      O58132   7.648   2.663   1.556
19297WAT     H158133   7.605   2.706   1.635
19297WAT     H258134   7.718   2.599   1.587
19298WAT      O58135   1.626   3.468   5.995
19298WAT     H158136   1.673   3.418   5.922
19298WAT     H258137   1.561   3.406   6.040
19299WAT      O58138   9.851   6.857   8.277
19299WAT     H158139   9.945   6.826   8.264
19299WAT     H258140   9.824   6.913   8.199
19300WAT      O58141   6.789   1.500   0.015
19300WAT     H158142   6.726   1.424  -0.001
19300WAT     H258143   6.883   1.465   0.018
19301WAT      O58144   0.757   2.383   7.929
19301WAT     H158145   0.787   2.297   7.971
19301WAT     H258146   0.666   2.407   7.964
19302WAT      O58147   6.930   0.702   7.740
19302WAT     H158148   6.920   0.749   7.653
19302WAT     H258149   6.852   0.724   7.799
19303WAT      O58150   3.292   4.039   2.597
19303WAT     H158151   3.312   3.961   2.656
19303WAT     H258152   3.195   4.039   2.572
19304WAT      O58153   0.842   1.478   2.425
19304WAT     H158154   0.857   1.567   2.469
19304WAT     H258155   0.902   1.470   2.345
19305WAT      O58156   4.469   2.746   6.839
19305WAT     H158157   4.543   2.681   6.858
19305WAT     H258158   4.465   2.762   6.740
19306WAT      O58159   6.702   6.218   4.941
19306WAT     H158160   6.702   6.170   4.853
19306WAT     H258161   6.637   6.294   4.938
19307WAT      O58162   0.040   0.269   1.706
19307WAT     H158163   0.023   0.284   1.804
19307WAT     H258164   0.138   0.275   1.688
19308WAT      O58165   5.565   5.165   8.780
19308WAT     H158166   5.465   5.161   8.779
19308WAT     H258167   5.597   5.191   8.871
19309WAT      O58168   6.008   1.737   8.080
19309WAT     H158169   5.989   1.733   8.179
19309WAT     H258170   6.103   1.765   8.066
19310WAT      O58171   2.398   0.659   4.209
19310WAT     H158172   2.463   0.626   4.277
19310WAT     H258173   2.420   0.754   4.184
19311WAT      O58174   0.954   9.247   1.086
19311WAT     H158175   0.955   9.162   1.138
19311WAT     H258176   0.883   9.241   1.015
19312WAT      O58177   0.806   2.176   3.642
19312WAT     H158178   0.804   2.275   3.631
19312WAT     H258179   0.857   2.153   3.725
19313WAT      O58180   4.681   1.281   6.759
19313WAT     H158181   4.658   1.263   6.664
19313WAT     H258182   4.666   1.198   6.814
19314WAT      O58183   0.025   7.809   9.070
19314WAT     H158184  -0.007   7.825   9.163
19314WAT     H258185  -0.039   7.850   9.005
19315WAT      O58186   3.945   4.589   1.480
19315WAT     H158187   4.011   4.514   1.474
19315WAT     H258188   3.983   4.663   1.536
19316WAT      O58189   9.185   0.437   3.054
19316WAT     H158190   9.195   0.337   3.047
19316WAT     H258191   9.233   0.480   2.978
19317WAT      O58192   5.885   0.580   7.369
19317WAT     H158193   5.918   0.632   7.448
19317WAT     H258194   5.827   0.505   7.400
19318WAT      O58195   9.538   0.913   0.377
19318WAT     H158196   9.469   0.979   0.404
19318WAT     H258197   9.527   0.892   0.279
19319WAT      O58198   2.844   5.505   3.900
19319WAT     H158199   2.854   5.504   4.000
19319WAT     H258200   2.934   5.515   3.858
19320WAT      O58201   8.381   0.568   3.130
19320WAT     H158202   8.318   0.644   3.146
19320WAT     H258203   8.430   0.548   3.214
19321WAT      O58204   1.213   3.469   8.698
19321WAT     H158205   1.132   3.412   8.692
19321WAT     H258206   1.295   3.412   8.703
19322WAT      O58207   7.162   7.636   6.313
19322WAT     H158208   7.239   7.595   6.265
19322WAT     H258209   7.081   7.633   6.254
19323WAT      O58210   2.481   1.823   4.927
19323WAT     H158211   2.564   1.775   4.955
19323WAT     H258212   2.459   1.895   4.993
19324WAT      O58213   5.179   4.188   5.275
19324WAT     H158214   5.151   4.273   5.320
19324WAT     H258215   5.119   4.114   5.303
19325WAT      O58216   3.353   2.263   5.286
19325WAT     H158217   3.300   2.318   5.350
19325WAT     H258218   3.358   2.309   5.197
19326WAT      O58219   8.173   3.739   4.103
19326WAT     H158220   8.170   3.807   4.176
19326WAT     H258221   8.240   3.668   4.126
19327WAT      O58222   2.536   5.540   0.038
19327WAT     H158223   2.611   5.604   0.020
19327WAT     H258224   2.463   5.555  -0.028
19328WAT      O58225   1.544   1.988   8.113
19328WAT     H158226   1.526   1.923   8.039
19328WAT     H258227   1.608   2.057   8.081
19329WAT      O58228   3.157   2.989   9.158
19329WAT     H158229   3.193   2.898   9.176
19329WAT     H258230   3.076   2.983   9.100
19330WAT      O58231   2.978   7.244   8.567
19330WAT     H158232   2.971   7.339   8.539
19330WAT     H258233   3.056   7.233   8.628
19331WAT      O58234   1.973   5.342   4.231
19331WAT     H158235   2.021   5.323   4.318
19331WAT     H258236   1.894   5.281   4.223
19332WAT      O58237   5.663   4.905   9.108
19332WAT     H158238   5.633   4.962   9.185
19332WAT     H258239   5.745   4.946   9.067
19333WAT      O58240   9.703   3.798   4.153
19333WAT     H158241   9.623   3.753   4.113
19333WAT     H258242   9.782   3.738   4.144
19334WAT      O58243   9.841   2.295   6.186
19334WAT     H158244   9.766   2.229   6.182
19334WAT     H258245   9.860   2.330   6.094
19335WAT      O58246   0.547   6.582   2.392
19335WAT     H158247   0.450   6.601   2.383
19335WAT     H258248   0.569   6.563   2.488
19336WAT      O58249   8.841   8.973   5.269
19336WAT     H158250   8.866   9.011   5.358
19336WAT     H258251   8.756   8.922   5.277
19337WAT      O58252   2.304   2.469   1.166
19337WAT     H158253   2.385   2.501   1.214
19337WAT     H258254   2.292   2.371   1.182
19338WAT      O58255   0.226   2.661   5.967
19338WAT     H158256   0.261   2.715   5.890
19338WAT     H258257   0.271   2.690   6.051
19339WAT      O58258   5.852   9.429   2.470
19339WAT     H158259   5.909   9.411   2.551
19339WAT     H258260   5.905   9.479   2.402
19340WAT      O58261   0.275   8.662   7.061
19340WAT     H158262   0.192   8.717   7.048
19340WAT     H258263   0.273   8.583   7.001
19341WAT      O58264   5.317   0.032   2.906
19341WAT     H158265   5.279   0.113   2.951
19341WAT     H258266   5.378   0.060   2.832
19342WAT      O58267   2.597   6.812   0.292
19342WAT     H158268   2.500   6.837   0.289
19342WAT     H258269   2.629   6.814   0.387
19343WAT      O58270   3.455   0.394   1.269
19343WAT     H158271   3.385   0.455   1.309
19343WAT     H258272   3.433   0.299   1.291
19344WAT      O58273   1.260   9.847   3.907
19344WAT     H158274   1.357   9.830   3.929
19344WAT     H258275   1.233   9.789   3.831
19345WAT      O58276   4.155   4.175   0.502
19345WAT     H158277   4.158   4.149   0.599
19345WAT     H258278   4.128   4.095   0.448
19346WAT      O58279   6.297   6.490   9.157
19346WAT     H158280   6.373   6.532   9.206
19346WAT     H258281   6.294   6.392   9.179
19347WAT      O58282   3.579   0.334   4.678
19347WAT     H158283   3.640   0.397   4.629
19347WAT     H258284   3.589   0.348   4.776
19348WAT      O58285   6.634   1.084   9.490
19348WAT     H158286   6.678   1.036   9.415
19348WAT     H258287   6.697   1.092   9.567
19349WAT      O58288   6.801   6.344   2.561
19349WAT     H158289   6.896   6.322   2.540
19349WAT     H258290   6.792   6.362   2.659
19350WAT      O58291   7.102   2.821   5.805
19350WAT     H158292   7.194   2.798   5.773
19350WAT     H258293   7.105   2.906   5.858
19351WAT      O58294   9.332   1.361   1.715
19351WAT     H158295   9.268   1.416   1.769
19351WAT     H258296   9.402   1.323   1.775
19352WAT      O58297   6.471   5.837   8.436
19352WAT     H158298   6.523   5.920   8.458
19352WAT     H258299   6.534   5.763   8.415
19353WAT      O58300   2.118   9.250   4.630
19353WAT     H158301   2.082   9.188   4.700
19353WAT     H258302   2.057   9.250   4.551
19354WAT      O58303   1.710   6.634   3.857
19354WAT     H158304   1.680   6.729   3.844
19354WAT     H258305   1.806   6.633   3.886
19355WAT      O58306   2.718   5.397   2.832
19355WAT     H158307   2.806   5.364   2.865
19355WAT     H258308   2.700   5.487   2.871
19356WAT      O58309   2.511   7.888   8.048
19356WAT     H158310   2.455   7.969   8.035
19356WAT     H258311   2.517   7.867   8.146
19357WAT      O58312   5.643   5.753   3.336
19357WAT     H158313   5.681   5.734   3.245
19357WAT     H258314   5.609   5.668   3.376
19358WAT      O58315   8.133   0.723   3.918
19358WAT     H158316   8.126   0.626   3.894
19358WAT     H258317   8.225   0.741   3.955
19359WAT      O58318   8.932   2.159   5.207
19359WAT     H158319   8.917   2.179   5.304
19359WAT     H258320   8.848   2.120   5.168
19360WAT      O58321   2.635   8.786   8.194
19360WAT     H158322   2.685   8.707   8.231
19360WAT     H258323   2.546   8.755   8.161
19361WAT      O58324   6.665   5.924   9.190
19361WAT     H158325   6.730   5.999   9.182
19361WAT     H258326   6.661   5.893   9.285
19362WAT      O58327   3.853   9.763   5.124
19362WAT     H158328   3.773   9.708   5.146
19362WAT     H258329   3.825   9.846   5.076
19363WAT      O58330   5.301   0.249   6.835
19363WAT     H158331   5.310   0.165   6.888
19363WAT     H258332   5.205   0.274   6.827
19364WAT      O58333   7.126   1.903   5.713
19364WAT     H158334   7.040   1.853   5.712
19364WAT     H258335   7.113   1.992   5.668
19365WAT      O58336   7.942   0.649   5.131
19365WAT     H158337   7.977   0.567   5.178
19365WAT     H258338   7.893   0.706   5.196
19366WAT      O58339   2.796   8.721   2.844
19366WAT     H158340   2.796   8.712   2.745
19366WAT     H258341   2.783   8.817   2.869
19367WAT      O58342   8.858   1.076   0.497
19367WAT     H158343   8.914   1.059   0.577
19367WAT     H258344   8.907   1.135   0.433
19368WAT      O58345   4.513   7.470   5.987
19368WAT     H158346   4.555   7.509   5.905
19368WAT     H258347   4.431   7.418   5.962
19369WAT      O58348   5.456   6.943   4.207
19369WAT     H158349   5.406   6.991   4.279
19369WAT     H258350   5.467   7.003   4.128
19370WAT      O58351   7.023   9.837   9.093
19370WAT     H158352   7.044   9.739   9.094
19370WAT     H258353   6.951   9.855   9.027
19371WAT      O58354   0.661   1.467   7.346
19371WAT     H158355   0.736   1.438   7.286
19371WAT     H258356   0.589   1.397   7.346
19372WAT      O58357   8.032   1.837   8.452
19372WAT     H158358   7.980   1.824   8.536
19372WAT     H258359   7.974   1.883   8.384
19373WAT      O58360   0.803   1.452   3.940
19373WAT     H158361   0.875   1.407   3.887
19373WAT     H258362   0.824   1.445   4.038
19374WAT      O58363   1.115   9.186   4.859
19374WAT     H158364   1.071   9.104   4.896
19374WAT     H258365   1.076   9.267   4.902
19375WAT      O58366   8.514   7.368   2.045
19375WAT     H158367   8.478   7.367   1.952
19375WAT     H258368   8.527   7.274   2.077
19376WAT      O58369   8.979   4.665   2.078
19376WAT     H158370   9.002   4.580   2.125
19376WAT     H258371   9.046   4.735   2.102
19377WAT      O58372   9.230   3.217   2.051
19377WAT     H158373   9.179   3.290   2.096
19377WAT     H258374   9.322   3.249   2.028
19378WAT      O58375   8.106   9.506   8.838
19378WAT     H158376   8.111   9.457   8.926
19378WAT     H258377   8.035   9.465   8.782
19379WAT      O58378   7.321   8.939   8.077
19379WAT     H158379   7.322   9.003   8.000
19379WAT     H258380   7.239   8.881   8.070
19380WAT      O58381   7.050   1.077   4.713
19380WAT     H158382   6.962   1.030   4.722
19380WAT     H258383   7.085   1.064   4.620
19381WAT      O58384   1.272   8.351   4.966
19381WAT     H158385   1.330   8.270   4.967
19381WAT     H258386   1.219   8.353   4.881
19382WAT      O58387   7.850   6.062   6.220
19382WAT     H158388   7.925   6.127   6.231
19382WAT     H258389   7.765   6.104   6.251
19383WAT      O58390   3.073   1.292   6.623
19383WAT     H158391   3.023   1.255   6.545
19383WAT     H258392   3.171   1.283   6.607
19384WAT      O58393   8.397   1.432   4.192
19384WAT     H158394   8.486   1.465   4.226
19384WAT     H258395   8.350   1.506   4.144
19385WAT      O58396   3.656   0.729   5.389
19385WAT     H158397   3.564   0.766   5.377
19385WAT     H258398   3.723   0.801   5.374
19386WAT      O58399   6.912   8.761   7.913
19386WAT     H158400   6.849   8.828   7.875
19386WAT     H258401   6.924   8.777   8.011
19387WAT      O58402   8.588   7.185   3.460
19387WAT     H158403   8.654   7.110   3.462
19387WAT     H258404   8.619   7.255   3.395
19388WAT      O58405   9.150   6.538   4.653
19388WAT     H158406   9.094   6.620   4.646
19388WAT     H258407   9.148   6.488   4.567
19389WAT      O58408   7.268   1.271   1.784
19389WAT     H158409   7.234   1.279   1.877
19389WAT     H258410   7.308   1.180   1.771
19390WAT      O58411   3.594   5.123   4.830
19390WAT     H158412   3.592   5.145   4.732
19390WAT     H258413   3.516   5.167   4.875
19391WAT      O58414   9.556   1.212   7.327
19391WAT     H158415   9.611   1.141   7.371
19391WAT     H258416   9.615   1.287   7.299
19392WAT      O58417   8.390   5.696   3.288
19392WAT     H158418   8.320   5.649   3.342
19392WAT     H258419   8.445   5.628   3.239
19393WAT      O58420   6.024   2.627   5.614
19393WAT     H158421   6.071   2.598   5.531
19393WAT     H258422   6.071   2.705   5.655
19394WAT      O58423   0.627   6.420   5.246
19394WAT     H158424   0.575   6.498   5.210
19394WAT     H258425   0.721   6.449   5.264
19395WAT      O58426   1.795   6.109   4.002
19395WAT     H158427   1.700   6.135   4.020
19395WAT     H258428   1.812   6.018   4.039
19396WAT      O58429   5.195   5.565   1.138
19396WAT     H158430   5.131   5.588   1.064
19396WAT     H258431   5.169   5.614   1.221
19397WAT      O58432   9.256   5.178   4.182
19397WAT     H158433   9.343   5.187   4.231
19397WAT     H258434   9.196   5.117   4.233
19398WAT      O58435   9.605   2.532   3.379
19398WAT     H158436   9.618   2.439   3.345
19398WAT     H258437   9.618   2.597   3.304
19399WAT      O58438   1.272   4.393   0.694
19399WAT     H158439   1.256   4.341   0.610
19399WAT     H258440   1.343   4.461   0.678
19400WAT      O58441   9.681   3.682   0.468
19400WAT     H158442   9.752   3.635   0.416
19400WAT     H258443   9.672   3.640   0.559
19401WAT      O58444   7.436   8.659   7.843
19401WAT     H158445   7.428   8.662   7.744
19401WAT     H258446   7.514   8.603   7.869
19402WAT      O58447   8.272   8.081   9.294
19402WAT     H158448   8.365   8.108   9.270
19402WAT     H258449   8.269   7.983   9.311
19403WAT      O58450   6.126   6.018   2.582
19403WAT     H158451   6.080   6.017   2.492
19403WAT     H258452   6.212   6.068   2.575
19404WAT      O58453   4.745   3.952   2.818
19404WAT     H158454   4.702   3.862   2.816
19404WAT     H258455   4.824   3.950   2.879
19405WAT      O58456   4.666   7.072   1.871
19405WAT     H158457   4.608   7.150   1.850
19405WAT     H258458   4.658   7.004   1.798
19406WAT      O58459   3.282   4.671   6.754
19406WAT     H158460   3.305   4.674   6.657
19406WAT     H258461   3.277   4.764   6.790
19407WAT      O58462   3.021   9.563   9.824
19407WAT     H158463   3.117   9.540   9.843
19407WAT     H258464   2.962   9.513   9.887
19408WAT      O58465   6.288   7.240   7.272
19408WAT     H158466   6.233   7.159   7.291
19408WAT     H258467   6.238   7.301   7.210
19409WAT      O58468   1.062   0.356   6.841
19409WAT     H158469   1.023   0.411   6.916
19409WAT     H258470   1.033   0.395   6.754
19410WAT      O58471   0.221   2.031   3.939
19410WAT     H158472   0.196   1.967   3.867
19410WAT     H258473   0.320   2.046   3.937
19411WAT      O58474   7.084   5.315   1.111
19411WAT     H158475   6.985   5.302   1.106
19411WAT     H258476   7.113   5.379   1.041
19412WAT      O58477   1.766   3.932   3.690
19412WAT     H158478   1.679   3.904   3.730
19412WAT     H258479   1.764   4.030   3.671
19413WAT      O58480   1.535   5.073   5.878
19413WAT     H158481   1.575   5.008   5.942
19413WAT     H258482   1.526   5.030   5.788
19414WAT      O58483   3.403   6.101   7.509
19414WAT     H158484   3.316   6.083   7.463
19414WAT     H258485   3.419   6.200   7.510
19415WAT      O58486   6.375   8.341   2.042
19415WAT     H158487   6.472   8.357   2.061
19415WAT     H258488   6.325   8.329   2.128
19416WAT      O58489   3.980   0.993   9.713
19416WAT     H158490   4.077   0.969   9.726
19416WAT     H258491   3.930   0.912   9.681
19417WAT      O58492   7.029   5.881   8.917
19417WAT     H158493   6.944   5.842   8.953
19417WAT     H258494   7.088   5.808   8.884
19418WAT      O58495   4.351   7.905   1.500
19418WAT     H158496   4.348   7.884   1.402
19418WAT     H258497   4.300   7.837   1.551
19419WAT      O58498   9.379   8.091   3.667
19419WAT     H158499   9.355   7.996   3.646
19419WAT     H258500   9.296   8.145   3.679
19420WAT      O58501   6.605   9.385   4.869
19420WAT     H158502   6.551   9.432   4.938
19420WAT     H258503   6.585   9.287   4.872
19421WAT      O58504   0.995   6.235   4.265
19421WAT     H158505   1.092   6.221   4.245
19421WAT     H258506   0.964   6.319   4.220
19422WAT      O58507   2.883   7.430   4.552
19422WAT     H158508   2.844   7.419   4.644
19422WAT     H258509   2.938   7.349   4.530
19423WAT      O58510   0.193   2.662   7.077
19423WAT     H158511   0.173   2.701   7.167
19423WAT     H258512   0.132   2.585   7.059
19424WAT      O58513   0.819   6.120   6.013
19424WAT     H158514   0.784   6.029   5.989
19424WAT     H258515   0.899   6.109   6.072
19425WAT      O58516   1.332   5.344   4.282
19425WAT     H158517   1.332   5.367   4.380
19425WAT     H258518   1.252   5.288   4.262
19426WAT      O58519   5.258   4.873   6.237
19426WAT     H158520   5.282   4.828   6.152
19426WAT     H258521   5.329   4.939   6.262
19427WAT      O58522   0.166   8.667   4.435
19427WAT     H158523   0.252   8.714   4.453
19427WAT     H258524   0.153   8.594   4.503
19428WAT      O58525   9.426   0.850   6.814
19428WAT     H158526   9.422   0.778   6.882
19428WAT     H258527   9.432   0.810   6.722
19429WAT      O58528   1.620   6.408   1.470
19429WAT     H158529   1.677   6.422   1.550
19429WAT     H258530   1.524   6.424   1.493
19430WAT      O58531   2.789   2.027   2.127
19430WAT     H158532   2.724   1.954   2.152
19430WAT     H258533   2.752   2.115   2.157
19431WAT      O58534   1.104   1.628   3.446
19431WAT     H158535   1.127   1.618   3.543
19431WAT     H258536   1.133   1.718   3.414
19432WAT      O58537   8.713   6.931   0.821
19432WAT     H158538   8.635   6.894   0.771
19432WAT     H258539   8.682   7.005   0.881
19433WAT      O58540   1.131   2.892   4.619
19433WAT     H158541   1.227   2.893   4.589
19433WAT     H258542   1.099   2.798   4.626
19434WAT      O58543   2.898   6.727   4.011
19434WAT     H158544   2.934   6.658   3.949
19434WAT     H258545   2.813   6.693   4.052
19435WAT      O58546   4.957   7.571   4.530
19435WAT     H158547   5.011   7.529   4.603
19435WAT     H258548   4.882   7.623   4.569
19436WAT      O58549   0.606   8.415   5.452
19436WAT     H158550   0.703   8.432   5.441
19436WAT     H258551   0.566   8.389   5.364
19437WAT      O58552   1.085   8.284   5.402
19437WAT     H158553   1.083   8.187   5.377
19437WAT     H258554   1.137   8.335   5.333
19438WAT      O58555   4.772   3.989   3.533
19438WAT     H158556   4.746   4.059   3.600
19438WAT     H258557   4.691   3.955   3.486
19439WAT      O58558   6.750   3.445   8.919
19439WAT     H158559   6.699   3.528   8.943
19439WAT     H258560   6.717   3.410   8.831
19440WAT      O58561   5.522   9.779   5.239
19440WAT     H158562   5.531   9.779   5.140
19440WAT     H258563   5.530   9.685   5.273
19441WAT      O58564   1.309   3.627   5.630
19441WAT     H158565   1.372   3.563   5.584
19441WAT     H258566   1.296   3.599   5.725
19442WAT      O58567   4.181   5.029   1.190
19442WAT     H158568   4.154   5.121   1.162
19442WAT     H258569   4.273   5.010   1.156
19443WAT      O58570   5.507   5.686   7.274
19443WAT     H158571   5.604   5.705   7.289
19443WAT     H258572   5.462   5.767   7.236
19444WAT      O58573   9.489   4.796   6.134
19444WAT     H158574   9.444   4.882   6.159
19444WAT     H258575   9.496   4.738   6.215
19445WAT      O58576   0.857   2.280   8.957
19445WAT     H158577   0.871   2.218   8.879
19445WAT     H258578   0.870   2.229   9.042
19446WAT      O58579   0.783   3.140   5.327
19446WAT     H158580   0.738   3.141   5.237
19446WAT     H258581   0.878   3.110   5.317
19447WAT      O58582   7.185   4.627   2.400
19447WAT     H158583   7.145   4.660   2.314
19447WAT     H258584   7.126   4.557   2.440
19448WAT      O58585   2.642   7.265   3.614
19448WAT     H158586   2.680   7.308   3.695
19448WAT     H258587   2.597   7.179   3.639
19449WAT      O58588   9.497   4.707   1.161
19449WAT     H158589   9.515   4.641   1.088
19449WAT     H258590   9.428   4.772   1.130
19450WAT      O58591   4.087   8.548   1.288
19450WAT     H158592   3.989   8.531   1.286
19450WAT     H258593   4.128   8.499   1.365
19451WAT      O58594   3.374   9.249   9.090
19451WAT     H158595   3.459   9.224   9.136
19451WAT     H258596   3.394   9.315   9.017
19452WAT      O58597   3.836   6.193   2.004
19452WAT     H158598   3.791   6.216   1.918
19452WAT     H258599   3.879   6.275   2.043
19453WAT      O58600   0.229   2.472   6.738
19453WAT     H158601   0.148   2.505   6.787
19453WAT     H258602   0.311   2.511   6.780
19454WAT      O58603   4.581   9.438   8.990
19454WAT     H158604   4.482   9.431   9.003
19454WAT     H258605   4.624   9.350   9.013
19455WAT      O58606   3.306   6.419   5.943
19455WAT     H158607   3.260   6.344   5.896
19455WAT     H258608   3.297   6.503   5.889
19456WAT      O58609   0.766   2.845   7.556
19456WAT     H158610   0.855   2.800   7.558
19456WAT     H258611   0.776   2.940   7.585
19457WAT      O58612   1.819   2.835   8.416
19457WAT     H158613   1.742   2.856   8.476
19457WAT     H258614   1.836   2.914   8.356
19458WAT      O58615   2.105   4.815   5.896
19458WAT     H158616   2.132   4.860   5.811
19458WAT     H258617   2.006   4.824   5.908
19459WAT      O58618   9.824   4.357   3.921
19459WAT     H158619   9.861   4.272   3.959
19459WAT     H258620   9.821   4.350   3.821
19460WAT      O58621   2.877   4.550   2.229
19460WAT     H158622   2.972   4.520   2.224
19460WAT     H258623   2.867   4.616   2.304
19461WAT      O58624   1.883   5.388   2.871
19461WAT     H158625   1.853   5.376   2.776
19461WAT     H258626   1.803   5.394   2.931
19462WAT      O58627   9.426   3.360   0.026
19462WAT     H158628   9.408   3.434   0.091
19462WAT     H258629   9.519   3.370  -0.011
19463WAT      O58630   5.205   2.395   0.679
19463WAT     H158631   5.282   2.452   0.709
19463WAT     H258632   5.228   2.299   0.691
19464WAT      O58633   6.993   3.634   4.819
19464WAT     H158634   7.073   3.678   4.860
19464WAT     H258635   6.933   3.704   4.781
19465WAT      O58636   7.616   8.678   1.556
19465WAT     H158637   7.710   8.655   1.583
19465WAT     H258638   7.606   8.777   1.554
19466WAT      O58639   5.051   7.525   5.936
19466WAT     H158640   5.139   7.556   5.973
19466WAT     H258641   4.978   7.581   5.974
19467WAT      O58642   0.930   5.603   7.580
19467WAT     H158643   0.869   5.582   7.657
19467WAT     H258644   1.000   5.668   7.610
19468WAT      O58645   4.546   9.656   2.567
19468WAT     H158646   4.485   9.648   2.646
19468WAT     H258647   4.511   9.725   2.505
19469WAT      O58648   0.843   6.223   5.539
19469WAT     H158649   0.828   6.196   5.443
19469WAT     H258650   0.824   6.320   5.550
19470WAT      O58651   2.653   5.881   2.918
19470WAT     H158652   2.677   5.941   2.994
19470WAT     H258653   2.634   5.789   2.952
19471WAT      O58654   1.631   3.955   4.703
19471WAT     H158655   1.631   3.866   4.658
19471WAT     H258656   1.550   4.007   4.675
19472WAT      O58657   9.766   2.215   2.312
19472WAT     H158658   9.861   2.234   2.290
19472WAT     H258659   9.731   2.144   2.251
19473WAT      O58660   9.839   1.609   6.030
19473WAT     H158661   9.933   1.644   6.032
19473WAT     H258662   9.818   1.574   5.939
19474WAT      O58663   9.056   3.902   0.069
19474WAT     H158664   9.065   3.930   0.165
19474WAT     H258665   9.131   3.941   0.016
19475WAT      O58666   8.282   8.329   9.677
19475WAT     H158667   8.361   8.278   9.709
19475WAT     H258668   8.312   8.408   9.623
19476WAT      O58669   8.691   5.562   6.583
19476WAT     H158670   8.732   5.490   6.528
19476WAT     H258671   8.600   5.584   6.546
19477WAT      O58672   8.099   2.856   5.694
19477WAT     H158673   8.149   2.937   5.664
19477WAT     H258674   8.128   2.777   5.641
19478WAT      O58675   1.394   4.293   7.690
19478WAT     H158676   1.357   4.327   7.603
19478WAT     H258677   1.398   4.193   7.687
19479WAT      O58678   8.634   5.590   1.207
19479WAT     H158679   8.548   5.608   1.158
19479WAT     H258680   8.658   5.493   1.196
19480WAT      O58681   4.190   3.625   9.282
19480WAT     H158682   4.099   3.587   9.267
19480WAT     H258683   4.182   3.713   9.330
19481WAT      O58684   8.376   6.700   1.118
19481WAT     H158685   8.456   6.749   1.151
19481WAT     H258686   8.297   6.724   1.174
19482WAT      O58687   9.535   6.816   6.477
19482WAT     H158688   9.596   6.888   6.444
19482WAT     H258689   9.589   6.738   6.507
19483WAT      O58690   8.433   2.656   2.326
19483WAT     H158691   8.372   2.676   2.403
19483WAT     H258692   8.402   2.574   2.279
19484WAT      O58693   0.734   2.866   8.095
19484WAT     H158694   0.669   2.800   8.057
19484WAT     H258695   0.685   2.930   8.155
19485WAT      O58696   5.289   4.125   0.246
19485WAT     H158697   5.212   4.162   0.299
19485WAT     H258698   5.286   4.025   0.247
19486WAT      O58699   8.049   8.558   8.536
19486WAT     H158700   7.996   8.493   8.591
19486WAT     H258701   8.146   8.549   8.559
19487WAT      O58702   5.844   1.719   5.248
19487WAT     H158703   5.876   1.814   5.252
19487WAT     H258704   5.772   1.711   5.180
19488WAT      O58705   5.549   5.834   7.797
19488WAT     H158706   5.471   5.777   7.772
19488WAT     H258707   5.632   5.779   7.796
19489WAT      O58708   4.290   5.560   0.089
19489WAT     H158709   4.203   5.525   0.056
19489WAT     H258710   4.316   5.511   0.172
19490WAT      O58711   3.038   5.251   9.742
19490WAT     H158712   3.045   5.301   9.655
19490WAT     H258713   2.975   5.174   9.731
19491WAT      O58714   2.569   4.946   1.626
19491WAT     H158715   2.559   4.847   1.617
19491WAT     H258716   2.543   4.990   1.539
19492WAT      O58717   7.646   0.228   6.683
19492WAT     H158718   7.731   0.176   6.683
19492WAT     H258719   7.570   0.168   6.656
19493WAT      O58720   2.648   7.998   9.005
19493WAT     H158721   2.601   8.066   8.949
19493WAT     H258722   2.583   7.926   9.031
19494WAT      O58723   9.675   5.800   9.239
19494WAT     H158724   9.582   5.838   9.232
19494WAT     H258725   9.714   5.824   9.328
19495WAT      O58726   4.494   6.016   9.734
19495WAT     H158727   4.538   6.094   9.690
19495WAT     H258728   4.463   5.951   9.665
19496WAT      O58729   0.035   9.050   3.553
19496WAT     H158730  -0.026   9.122   3.587
19496WAT     H258731   0.100   9.090   3.488
19497WAT      O58732   6.728   7.261   3.352
19497WAT     H158733   6.686   7.179   3.390
19497WAT     H258734   6.811   7.237   3.302
19498WAT      O58735   4.930   2.919   5.133
19498WAT     H158736   4.996   2.861   5.085
19498WAT     H258737   4.930   2.897   5.231
19499WAT      O58738   9.664   5.279   2.094
19499WAT     H158739   9.576   5.288   2.048
19499WAT     H258740   9.694   5.183   2.090
19500WAT      O58741   1.018   9.787   5.363
19500WAT     H158742   1.014   9.753   5.457
19500WAT     H258743   0.960   9.730   5.304
19501WAT      O58744   3.775   5.015   9.022
19501WAT     H158745   3.853   5.013   8.959
19501WAT     H258746   3.719   4.933   9.008
19502WAT      O58747   2.620   8.480   3.067
19502WAT     H158748   2.578   8.551   3.010
19502WAT     H258749   2.688   8.522   3.127
19503WAT      O58750   0.550   6.915   6.026
19503WAT     H158751   0.586   6.822   6.017
19503WAT     H258752   0.497   6.939   5.944
19504WAT      O58753   2.533   5.807   0.934
19504WAT     H158754   2.435   5.825   0.943
19504WAT     H258755   2.558   5.729   0.992
19505WAT      O58756   9.009   6.922   1.752
19505WAT     H158757   9.003   6.902   1.655
19505WAT     H258758   8.961   7.008   1.772
19506WAT      O58759   9.864   7.369   1.089
19506WAT     H158760   9.765   7.361   1.103
19506WAT     H258761   9.911   7.299   1.144
19507WAT      O58762   7.133   0.741   8.083
19507WAT     H158763   7.200   0.797   8.132
19507WAT     H258764   7.148   0.752   7.984
19508WAT      O58765   5.578   0.777   5.934
19508WAT     H158766   5.554   0.866   5.894
19508WAT     H258767   5.506   0.711   5.914
19509WAT      O58768   1.033   6.463   2.791
19509WAT     H158769   1.103   6.424   2.731
19509WAT     H258770   1.023   6.560   2.772
19510WAT      O58771   7.972   5.096   8.227
19510WAT     H158772   8.031   5.016   8.221
19510WAT     H258773   8.006   5.157   8.299
19511WAT      O58774   6.969   9.519   3.792
19511WAT     H158775   7.038   9.450   3.769
19511WAT     H258776   7.010   9.589   3.849
19512WAT      O58777   5.332   0.944   2.527
19512WAT     H158778   5.293   1.012   2.589
19512WAT     H258779   5.402   0.987   2.471
19513WAT      O58780   8.603   3.006   1.840
19513WAT     H158781   8.674   2.949   1.798
19513WAT     H258782   8.530   2.948   1.876
19514WAT      O58783   3.238   0.990   1.728
19514WAT     H158784   3.191   1.048   1.794
19514WAT     H258785   3.280   0.912   1.776
19515WAT      O58786   3.062   0.193   1.086
19515WAT     H158787   3.105   0.140   1.013
19515WAT     H258788   3.074   0.145   1.174
19516WAT      O58789   8.686   5.579   2.502
19516WAT     H158790   8.707   5.636   2.581
19516WAT     H258791   8.720   5.486   2.517
19517WAT      O58792   6.484   6.277   0.290
19517WAT     H158793   6.509   6.360   0.239
19517WAT     H258794   6.464   6.301   0.385
19518WAT      O58795   7.621   7.763   9.773
19518WAT     H158796   7.706   7.767   9.720
19518WAT     H258797   7.551   7.715   9.720
19519WAT      O58798   5.968   2.877   0.866
19519WAT     H158799   5.971   2.897   0.768
19519WAT     H258800   6.055   2.901   0.908
19520WAT      O58801   4.998   6.468   4.794
19520WAT     H158802   5.097   6.454   4.800
19520WAT     H258803   4.965   6.437   4.704
19521WAT      O58804   2.966   1.260   4.528
19521WAT     H158805   2.873   1.232   4.549
19521WAT     H258806   2.975   1.276   4.429
19522WAT      O58807   0.629   6.790   6.319
19522WAT     H158808   0.579   6.818   6.237
19522WAT     H258809   0.612   6.693   6.337
19523WAT      O58810   1.244   5.294   3.674
19523WAT     H158811   1.330   5.346   3.677
19523WAT     H258812   1.173   5.345   3.722
19524WAT      O58813   0.870   1.265   0.760
19524WAT     H158814   0.851   1.186   0.702
19524WAT     H258815   0.897   1.343   0.702
19525WAT      O58816   2.102   6.329   2.587
19525WAT     H158817   2.198   6.339   2.613
19525WAT     H258818   2.052   6.286   2.661
19526WAT      O58819   8.838   3.686   2.079
19526WAT     H158820   8.774   3.734   2.139
19526WAT     H258821   8.789   3.650   2.000
19527WAT      O58822   4.519   0.949   8.091
19527WAT     H158823   4.452   1.001   8.038
19527WAT     H258824   4.553   1.007   8.166
19528WAT      O58825   4.534   2.644   3.712
19528WAT     H158826   4.558   2.692   3.628
19528WAT     H258827   4.610   2.587   3.742
19529WAT      O58828   2.280   4.274   0.395
19529WAT     H158829   2.296   4.230   0.483
19529WAT     H258830   2.272   4.205   0.324
19530WAT      O58831   9.251   5.670   8.020
19530WAT     H158832   9.331   5.712   7.977
19530WAT     H258833   9.179   5.659   7.952
19531WAT      O58834   0.581   0.161   3.776
19531WAT     H158835   0.580   0.184   3.873
19531WAT     H258836   0.526   0.079   3.760
19532WAT      O58837   9.166   4.146   1.340
19532WAT     H158838   9.232   4.088   1.387
19532WAT     H258839   9.214   4.217   1.289
19533WAT      O58840   2.578   8.142   4.319
19533WAT     H158841   2.672   8.115   4.342
19533WAT     H258842   2.562   8.127   4.222
19534WAT      O58843   1.209   6.714   5.667
19534WAT     H158844   1.236   6.755   5.755
19534WAT     H258845   1.223   6.616   5.670
19535WAT      O58846   2.231   0.322   8.784
19535WAT     H158847   2.303   0.314   8.716
19535WAT     H258848   2.269   0.356   8.870
19536WAT      O58849   8.099   3.588   8.674
19536WAT     H158850   8.075   3.645   8.752
19536WAT     H258851   8.137   3.646   8.601
19537WAT      O58852   9.384   5.762   4.160
19537WAT     H158853   9.334   5.848   4.165
19537WAT     H258854   9.399   5.726   4.253
19538WAT      O58855   0.596   2.386   8.613
19538WAT     H158856   0.592   2.486   8.616
19538WAT     H258857   0.692   2.356   8.615
19539WAT      O58858   2.468   5.376   8.520
19539WAT     H158859   2.469   5.277   8.529
19539WAT     H258860   2.388   5.413   8.569
19540WAT      O58861   7.668   9.383   2.898
19540WAT     H158862   7.581   9.337   2.880
19540WAT     H258863   7.658   9.442   2.978
19541WAT      O58864   0.180   0.965   0.441
19541WAT     H158865   0.147   0.915   0.521
19541WAT     H258866   0.273   0.936   0.420
19542WAT      O58867   4.710   2.219   5.373
19542WAT     H158868   4.755   2.130   5.380
19542WAT     H258869   4.637   2.214   5.305
19543WAT      O58870   3.977   6.015   8.019
19543WAT     H158871   4.010   5.920   8.015
19543WAT     H258872   3.994   6.053   8.109
19544WAT      O58873   1.350   4.705   0.827
19544WAT     H158874   1.304   4.618   0.843
19544WAT     H258875   1.431   4.711   0.885
19545WAT      O58876   6.029   9.632   6.932
19545WAT     H158877   6.102   9.624   6.999
19545WAT     H258878   5.959   9.563   6.950
19546WAT      O58879   0.782   8.251   6.925
19546WAT     H158880   0.707   8.244   6.859
19546WAT     H258881   0.838   8.168   6.920
19547WAT      O58882   9.104   6.393   3.217
19547WAT     H158883   9.007   6.372   3.224
19547WAT     H258884   9.116   6.486   3.182
19548WAT      O58885   6.448   6.542   7.672
19548WAT     H158886   6.354   6.529   7.640
19548WAT     H258887   6.447   6.573   7.768
19549WAT      O58888   6.873   0.036   4.357
19549WAT     H158889   6.934   0.014   4.433
19549WAT     H258890   6.786  -0.011   4.370
19550WAT      O58891   1.096   4.600   7.643
19550WAT     H158892   1.020   4.621   7.705
19550WAT     H258893   1.068   4.528   7.580
19551WAT      O58894   2.028   1.356   3.585
19551WAT     H158895   2.122   1.326   3.572
19551WAT     H258896   1.982   1.362   3.497
19552WAT      O58897   1.107   9.722   3.272
19552WAT     H158898   1.031   9.663   3.297
19552WAT     H258899   1.138   9.773   3.353
19553WAT      O58900   7.170   9.593   7.430
19553WAT     H158901   7.120   9.508   7.446
19553WAT     H258902   7.142   9.662   7.497
19554WAT      O58903   0.356   0.853   8.541
19554WAT     H158904   0.400   0.916   8.605
19554WAT     H258905   0.300   0.905   8.477
19555WAT      O58906   1.990   9.307   7.844
19555WAT     H158907   1.986   9.211   7.869
19555WAT     H258908   2.017   9.316   7.748
19556WAT      O58909   3.937   6.412   6.819
19556WAT     H158910   3.909   6.376   6.908
19556WAT     H258911   3.867   6.391   6.751
19557WAT      O58912   8.360   7.385   8.898
19557WAT     H158913   8.368   7.479   8.863
19557WAT     H258914   8.385   7.384   8.995
19558WAT      O58915   7.160   8.946   5.754
19558WAT     H158916   7.175   8.867   5.695
19558WAT     H258917   7.082   8.928   5.814
19559WAT      O58918   3.618   8.287   3.236
19559WAT     H158919   3.651   8.193   3.240
19559WAT     H258920   3.667   8.336   3.164
19560WAT      O58921   0.551   5.884   9.145
19560WAT     H158922   0.488   5.878   9.067
19560WAT     H258923   0.593   5.975   9.145
19561WAT      O58924   5.055   1.833   9.142
19561WAT     H158925   4.986   1.867   9.078
19561WAT     H258926   5.142   1.821   9.094
19562WAT      O58927   3.510   4.901   4.453
19562WAT     H158928   3.488   4.918   4.357
19562WAT     H258929   3.516   4.802   4.469
19563WAT      O58930   6.239   6.342   2.350
19563WAT     H158931   6.261   6.282   2.272
19563WAT     H258932   6.267   6.298   2.435
19564WAT      O58933   5.758   3.899   9.300
19564WAT     H158934   5.701   3.906   9.218
19564WAT     H258935   5.714   3.947   9.376
19565WAT      O58936   6.476   8.089   0.274
19565WAT     H158937   6.545   8.018   0.279
19565WAT     H258938   6.436   8.090   0.182
19566WAT      O58939   8.047   7.486   0.937
19566WAT     H158940   8.122   7.467   0.873
19566WAT     H258941   7.980   7.544   0.893
19567WAT      O58942   3.928   0.135   0.100
19567WAT     H158943   3.948   0.085   0.184
19567WAT     H258944   3.833   0.168   0.103
19568WAT      O58945   5.481   7.848   2.602
19568WAT     H158946   5.518   7.875   2.514
19568WAT     H258947   5.553   7.808   2.658
19569WAT      O58948   5.451   4.234   4.637
19569WAT     H158949   5.362   4.195   4.615
19569WAT     H258950   5.513   4.160   4.666
19570WAT      O58951   8.315   9.370   3.705
19570WAT     H158952   8.261   9.286   3.696
19570WAT     H258953   8.278   9.440   3.644
19571WAT      O58954   0.934   0.579   0.010
19571WAT     H158955   0.962   0.675   0.017
19571WAT     H258956   0.987   0.524   0.074
19572WAT      O58957   7.041   8.479   4.517
19572WAT     H158958   7.023   8.573   4.545
19572WAT     H258959   7.133   8.472   4.479
19573WAT      O58960   6.916   8.345   5.502
19573WAT     H158961   6.969   8.369   5.584
19573WAT     H258962   6.836   8.291   5.529
19574WAT      O58963   2.786   2.886   3.565
19574WAT     H158964   2.733   2.814   3.610
19574WAT     H258965   2.753   2.975   3.595
19575WAT      O58966   8.716   2.208   7.793
19575WAT     H158967   8.673   2.120   7.773
19575WAT     H258968   8.796   2.221   7.734
19576WAT      O58969   8.469   7.839   6.731
19576WAT     H158970   8.423   7.750   6.725
19576WAT     H258971   8.544   7.833   6.797
19577WAT      O58972   7.570   2.137   2.868
19577WAT     H158973   7.499   2.206   2.857
19577WAT     H258974   7.611   2.144   2.958
19578WAT      O58975   5.037   0.388   8.683
19578WAT     H158976   5.014   0.444   8.604
19578WAT     H258977   5.136   0.390   8.698
19579WAT      O58978   1.884   4.634   0.928
19579WAT     H158979   1.921   4.543   0.948
19579WAT     H258980   1.872   4.644   0.829
19580WAT      O58981   0.416   3.085   3.871
19580WAT     H158982   0.370   3.112   3.956
19580WAT     H258983   0.348   3.050   3.806
19581WAT      O58984   4.390   6.766   5.989
19581WAT     H158985   4.294   6.738   5.985
19581WAT     H258986   4.440   6.705   6.050
19582WAT      O58987   5.115   6.979   7.296
19582WAT     H158988   5.154   6.896   7.258
19582WAT     H258989   5.079   7.036   7.221
19583WAT      O58990   7.301   9.659   3.118
19583WAT     H158991   7.204   9.662   3.142
19583WAT     H258992   7.344   9.746   3.142
19584WAT      O58993   9.617   7.506   1.283
19584WAT     H158994   9.651   7.558   1.205
19584WAT     H258995   9.616   7.409   1.261
19585WAT      O58996   7.914   3.156   7.916
19585WAT     H158997   7.939   3.244   7.878
19585WAT     H258998   7.994   3.114   7.958
19586WAT      O58999   7.656   5.581   8.642
19586WAT     H159000   7.704   5.668   8.652
19586WAT     H259001   7.715   5.515   8.595
19587WAT      O59002   3.036   7.533   5.306
19587WAT     H159003   3.053   7.631   5.302
19587WAT     H259004   3.029   7.503   5.402
19588WAT      O59005   6.361   6.829   6.382
19588WAT     H159006   6.277   6.786   6.350
19588WAT     H259007   6.432   6.822   6.312
19589WAT      O59008   7.623   6.436   4.213
19589WAT     H159009   7.550   6.500   4.239
19589WAT     H259010   7.702   6.450   4.272
19590WAT      O59011   5.650   9.114   1.955
19590WAT     H159012   5.618   9.035   2.006
19590WAT     H259013   5.650   9.194   2.015
19591WAT      O59014   9.706   9.785   1.412
19591WAT     H159015   9.699   9.850   1.337
19591WAT     H259016   9.744   9.830   1.493
19592WAT      O59017   8.179   1.542   4.454
19592WAT     H159018   8.251   1.608   4.433
19592WAT     H259019   8.187   1.463   4.392
19593WAT      O59020   8.270   0.378   7.814
19593WAT     H159021   8.233   0.389   7.722
19593WAT     H259022   8.369   0.379   7.811
19594WAT      O59023   4.709   9.631   8.344
19594WAT     H159024   4.766   9.679   8.277
19594WAT     H259025   4.626   9.597   8.298
19595WAT      O59026   5.297   6.933   7.729
19595WAT     H159027   5.348   6.987   7.797
19595WAT     H259028   5.279   6.989   7.649
19596WAT      O59029   8.736   2.273   3.451
19596WAT     H159030   8.801   2.311   3.385
19596WAT     H259031   8.643   2.287   3.418
19597WAT      O59032   1.356   6.976   5.320
19597WAT     H159033   1.415   7.048   5.356
19597WAT     H259034   1.285   6.955   5.387
19598WAT      O59035   6.395   4.589   2.851
19598WAT     H159036   6.351   4.653   2.788
19598WAT     H259037   6.494   4.602   2.848
19599WAT      O59038   5.719   3.199   6.636
19599WAT     H159039   5.696   3.101   6.643
19599WAT     H259040   5.671   3.238   6.557
19600WAT      O59041   2.822   7.842   0.911
19600WAT     H159042   2.903   7.892   0.940
19600WAT     H259043   2.768   7.899   0.850
19601WAT      O59044   0.512   3.590   6.955
19601WAT     H159045   0.559   3.561   6.872
19601WAT     H259046   0.560   3.669   6.995
19602WAT      O59047   4.703   1.296   6.133
19602WAT     H159048   4.798   1.325   6.135
19602WAT     H259049   4.696   1.205   6.092
19603WAT      O59050   9.617   9.437   6.811
19603WAT     H159051   9.685   9.426   6.738
19603WAT     H259052   9.573   9.526   6.801
19604WAT      O59053   2.661   4.143   2.198
19604WAT     H159054   2.685   4.211   2.129
19604WAT     H259055   2.728   4.146   2.272
19605WAT      O59056   0.210   5.373   6.496
19605WAT     H159057   0.296   5.330   6.524
19605WAT     H259058   0.209   5.385   6.397
19606WAT      O59059   4.945   9.237   1.345
19606WAT     H159060   5.044   9.227   1.337
19606WAT     H259061   4.910   9.169   1.410
19607WAT      O59062   4.047   8.031   6.672
19607WAT     H159063   4.010   8.094   6.740
19607WAT     H259064   4.026   8.063   6.580
19608WAT      O59065   4.212   5.872   3.980
19608WAT     H159066   4.246   5.796   3.924
19608WAT     H259067   4.287   5.907   4.036
19609WAT      O59068   6.740   6.388   3.663
19609WAT     H159069   6.689   6.324   3.719
19609WAT     H259070   6.820   6.341   3.623
19610WAT      O59071   4.286   7.663   2.873
19610WAT     H159072   4.335   7.749   2.884
19610WAT     H259073   4.197   7.669   2.917
19611WAT      O59074   9.296   7.859   6.250
19611WAT     H159075   9.263   7.938   6.199
19611WAT     H259076   9.359   7.806   6.193
19612WAT      O59077   4.608   1.908   3.846
19612WAT     H159078   4.525   1.909   3.790
19612WAT     H259079   4.586   1.874   3.937
19613WAT      O59080   0.935   8.295   3.787
19613WAT     H159081   0.843   8.329   3.803
19613WAT     H259082   0.941   8.258   3.694
19614WAT      O59083   9.564   4.165   3.868
19614WAT     H159084   9.539   4.234   3.800
19614WAT     H259085   9.585   4.210   3.955
19615WAT      O59086   0.654   1.498   6.477
19615WAT     H159087   0.664   1.449   6.391
19615WAT     H259088   0.744   1.513   6.518
19616WAT      O59089   7.019   2.639   4.585
19616WAT     H159090   7.089   2.607   4.648
19616WAT     H259091   7.025   2.739   4.577
19617WAT      O59092   2.076   1.989   8.695
19617WAT     H159093   2.071   1.922   8.770
19617WAT     H259094   2.016   2.066   8.715
19618WAT      O59095   6.727   5.658   6.762
19618WAT     H159096   6.652   5.633   6.824
19618WAT     H259097   6.694   5.725   6.695
19619WAT      O59098   6.965   8.006   8.524
19619WAT     H159099   7.050   7.979   8.569
19619WAT     H259100   6.986   8.049   8.436
19620WAT      O59101   5.252   9.668   1.367
19620WAT     H159102   5.207   9.710   1.445
19620WAT     H259103   5.279   9.574   1.390
19621WAT      O59104   9.065   2.437   4.957
19621WAT     H159105   8.977   2.429   4.911
19621WAT     H259106   9.108   2.347   4.962
19622WAT      O59107   0.175   1.257   0.700
19622WAT     H159108   0.202   1.229   0.608
19622WAT     H259109   0.109   1.332   0.693
19623WAT      O59110   4.139   9.798   8.462
19623WAT     H159111   4.227   9.751   8.450
19623WAT     H259112   4.068   9.730   8.484
19624WAT      O59113   0.492   9.543   4.535
19624WAT     H159114   0.578   9.524   4.583
19624WAT     H259115   0.426   9.584   4.598
19625WAT      O59116   4.433   6.967   1.152
19625WAT     H159117   4.364   6.906   1.192
19625WAT     H259118   4.391   7.056   1.133
19626WAT      O59119   9.358   2.423   5.143
19626WAT     H159120   9.287   2.359   5.173
19626WAT     H259121   9.365   2.497   5.210
19627WAT      O59122   2.297   6.599   2.911
19627WAT     H159123   2.206   6.640   2.900
19627WAT     H259124   2.364   6.672   2.927
19628WAT      O59125   9.544   0.650   2.424
19628WAT     H159126   9.499   0.711   2.490
19628WAT     H259127   9.643   0.658   2.435
19629WAT      O59128   2.947   7.579   7.890
19629WAT     H159129   2.893   7.495   7.895
19629WAT     H259130   2.971   7.597   7.794
19630WAT      O59131   7.607   6.136   6.332
19630WAT     H159132   7.579   6.091   6.417
19630WAT     H259133   7.532   6.134   6.267
19631WAT      O59134   4.473   1.678   3.562
19631WAT     H159135   4.535   1.690   3.485
19631WAT     H259136   4.445   1.767   3.598
19632WAT      O59137   5.201   0.848   0.202
19632WAT     H159138   5.251   0.925   0.240
19632WAT     H259139   5.124   0.882   0.147
19633WAT      O59140   2.564   6.421   9.654
19633WAT     H159141   2.553   6.348   9.587
19633WAT     H259142   2.572   6.383   9.745
19634WAT      O59143   6.470   9.709   1.190
19634WAT     H159144   6.471   9.637   1.260
19634WAT     H259145   6.526   9.680   1.112
19635WAT      O59146   2.779   9.443   0.828
19635WAT     H159147   2.807   9.349   0.808
19635WAT     H259148   2.797   9.501   0.749
19636WAT      O59149   9.099   9.163   0.594
19636WAT     H159150   9.009   9.207   0.583
19636WAT     H259151   9.164   9.204   0.530
19637WAT      O59152   3.146   6.083   2.953
19637WAT     H159153   3.108   6.081   3.046
19637WAT     H259154   3.195   6.169   2.939
19638WAT      O59155   2.862   8.871   2.201
19638WAT     H159156   2.840   8.922   2.117
19638WAT     H259157   2.891   8.778   2.177
19639WAT      O59158   7.760   8.838   8.762
19639WAT     H159159   7.843   8.847   8.707
19639WAT     H259160   7.681   8.864   8.707
19640WAT      O59161   1.808   0.444   0.305
19640WAT     H159162   1.803   0.535   0.264
19640WAT     H259163   1.734   0.387   0.267
19641WAT      O59164   9.310   4.841   6.846
19641WAT     H159165   9.265   4.760   6.808
19641WAT     H259166   9.306   4.838   6.946
19642WAT      O59167   9.641   7.189   2.050
19642WAT     H159168   9.622   7.111   1.989
19642WAT     H259169   9.556   7.238   2.068
19643WAT      O59170   2.712   4.372   7.198
19643WAT     H159171   2.677   4.307   7.130
19643WAT     H259172   2.811   4.382   7.186
19644WAT      O59173   7.984   1.001   2.331
19644WAT     H159174   8.043   1.017   2.252
19644WAT     H259175   8.007   0.913   2.373
19645WAT      O59176   8.586   5.644   0.807
19645WAT     H159177   8.545   5.598   0.728
19645WAT     H259178   8.664   5.590   0.839
19646WAT      O59179   5.778   4.007   4.526
19646WAT     H159180   5.813   4.092   4.567
19646WAT     H259181   5.703   3.972   4.581
19647WAT      O59182   5.780   4.187   0.453
19647WAT     H159183   5.701   4.170   0.395
19647WAT     H259184   5.786   4.285   0.474
19648WAT      O59185   2.418   3.447   8.771
19648WAT     H159186   2.377   3.522   8.719
19648WAT     H259187   2.443   3.480   8.862
19649WAT      O59188   9.833   0.778   2.036
19649WAT     H159189   9.821   0.874   2.059
19649WAT     H259190   9.857   0.770   1.939
19650WAT      O59191   6.423   4.655   4.568
19650WAT     H159192   6.339   4.602   4.565
19650WAT     H259193   6.493   4.604   4.619
19651WAT      O59194   6.975   2.836   9.069
19651WAT     H159195   6.880   2.865   9.055
19651WAT     H259196   6.990   2.815   9.165
19652WAT      O59197   2.023   6.583   2.508
19652WAT     H159198   1.936   6.614   2.545
19652WAT     H259199   2.033   6.484   2.524
19653WAT      O59200   4.663   3.257   8.919
19653WAT     H159201   4.755   3.239   8.954
19653WAT     H259202   4.615   3.170   8.907
19654WAT      O59203   5.857   8.593   1.408
19654WAT     H159204   5.936   8.652   1.389
19654WAT     H259205   5.775   8.649   1.420
19655WAT      O59206   8.832   3.406   9.849
19655WAT     H159207   8.858   3.327   9.794
19655WAT     H259208   8.836   3.488   9.793
19656WAT      O59209   0.007   6.342   6.453
19656WAT     H159210   0.000   6.258   6.508
19656WAT     H259211  -0.012   6.320   6.357
19657WAT      O59212   8.253   9.618   0.087
19657WAT     H159213   8.268   9.629  -0.011
19657WAT     H259214   8.194   9.692   0.120
19658WAT      O59215   9.441   8.015   4.430
19658WAT     H159216   9.465   7.992   4.336
19658WAT     H259217   9.441   8.115   4.440
19659WAT      O59218   3.541   7.407   7.472
19659WAT     H159219   3.527   7.486   7.531
19659WAT     H259220   3.491   7.419   7.386
19660WAT      O59221   0.907   3.748   0.532
19660WAT     H159222   0.813   3.741   0.565
19660WAT     H259223   0.926   3.843   0.507
19661WAT      O59224   0.470   0.353   4.012
19661WAT     H159225   0.556   0.309   4.036
19661WAT     H259226   0.450   0.426   4.078
19662WAT      O59227   5.386   9.285   8.999
19662WAT     H159228   5.448   9.239   8.934
19662WAT     H259229   5.296   9.241   8.996
19663WAT      O59230   6.127   5.187   7.157
19663WAT     H159231   6.131   5.191   7.058
19663WAT     H259232   6.152   5.276   7.196
19664WAT      O59233   8.769   4.173   5.641
19664WAT     H159234   8.775   4.074   5.630
19664WAT     H259235   8.699   4.210   5.581
19665WAT      O59236   0.473   4.883   3.022
19665WAT     H159237   0.433   4.936   3.097
19665WAT     H259238   0.520   4.802   3.059
19666WAT      O59239   0.595   7.739   1.792
19666WAT     H159240   0.544   7.659   1.762
19666WAT     H259241   0.538   7.795   1.852
19667WAT      O59242   6.589   6.161   7.823
19667WAT     H159243   6.687   6.179   7.833
19667WAT     H259244   6.574   6.063   7.812
19668WAT      O59245   2.591   4.533   3.683
19668WAT     H159246   2.492   4.528   3.695
19668WAT     H259247   2.635   4.467   3.744
19669WAT      O59248   1.697   7.588   8.342
19669WAT     H159249   1.734   7.618   8.430
19669WAT     H259250   1.766   7.535   8.293
19670WAT      O59251   1.787   0.832   7.812
19670WAT     H159252   1.852   0.789   7.875
19670WAT     H259253   1.696   0.832   7.854
19671WAT      O59254   1.860   5.458   8.035
19671WAT     H159255   1.916   5.524   8.084
19671WAT     H259256   1.778   5.438   8.089
19672WAT      O59257   1.406   2.705   6.946
19672WAT     H159258   1.428   2.743   7.036
19672WAT     H259259   1.364   2.775   6.889
19673WAT      O59260   3.196   3.482   9.608
19673WAT     H159261   3.278   3.457   9.556
19673WAT     H259262   3.221   3.542   9.683
19674WAT      O59263   5.839   2.218   7.995
19674WAT     H159264   5.863   2.123   7.971
19674WAT     H259265   5.742   2.221   8.020
19675WAT      O59266   6.003   4.345   5.492
19675WAT     H159267   6.038   4.344   5.586
19675WAT     H259268   5.942   4.266   5.478
19676WAT      O59269   2.903   1.181   1.253
19676WAT     H159270   2.878   1.184   1.350
19676WAT     H259271   3.002   1.182   1.244
19677WAT      O59272   3.786   0.402   1.386
19677WAT     H159273   3.808   0.320   1.333
19677WAT     H259274   3.774   0.376   1.482
19678WAT      O59275   3.094   9.009   6.149
19678WAT     H159276   3.144   9.082   6.194
19678WAT     H259277   3.111   8.922   6.196
19679WAT      O59278   0.943   9.565   7.250
19679WAT     H159279   0.928   9.484   7.307
19679WAT     H259280   0.895   9.555   7.163
19680WAT      O59281   8.139   7.643   2.829
19680WAT     H159282   8.091   7.689   2.905
19680WAT     H259283   8.183   7.712   2.772
19681WAT      O59284   6.578   2.091   5.787
19681WAT     H159285   6.662   2.088   5.843
19681WAT     H259286   6.603   2.099   5.691
19682WAT      O59287   8.328   0.290   1.054
19682WAT     H159288   8.391   0.213   1.047
19682WAT     H259289   8.358   0.351   1.127
19683WAT      O59290   1.736   4.048   7.089
19683WAT     H159291   1.707   4.118   7.024
19683WAT     H259292   1.824   4.009   7.060
19684WAT      O59293   1.363   7.551   9.216
19684WAT     H159294   1.335   7.621   9.150
19684WAT     H259295   1.372   7.463   9.170
19685WAT      O59296   0.223   0.614   6.078
19685WAT     H159297   0.252   0.663   6.160
19685WAT     H259298   0.289   0.630   6.005
19686WAT      O59299   8.691   2.492   0.070
19686WAT     H159300   8.666   2.398   0.046
19686WAT     H259301   8.789   2.496   0.088
19687WAT      O59302   7.826   5.449   5.909
19687WAT     H159303   7.773   5.395   5.843
19687WAT     H259304   7.817   5.408   6.000
19688WAT      O59305   7.785   3.072   2.091
19688WAT     H159306   7.787   3.170   2.111
19688WAT     H259307   7.737   3.056   2.005
19689WAT      O59308   0.213   8.454   4.906
19689WAT     H159309   0.149   8.527   4.927
19689WAT     H259310   0.306   8.482   4.932
19690WAT      O59311   6.797   2.113   7.468
19690WAT     H159312   6.733   2.138   7.395
19690WAT     H259313   6.782   2.172   7.548
19691WAT      O59314   9.699   2.323   6.890
19691WAT     H159315   9.659   2.322   6.798
19691WAT     H259316   9.771   2.253   6.895
19692WAT      O59317   1.109   3.631   8.949
19692WAT     H159318   1.122   3.583   8.862
19692WAT     H259319   1.015   3.667   8.953
19693WAT      O59320   5.207   7.937   6.692
19693WAT     H159321   5.113   7.966   6.676
19693WAT     H259322   5.240   7.885   6.612
19694WAT      O59323   1.263   6.382   7.971
19694WAT     H159324   1.207   6.456   7.933
19694WAT     H259325   1.330   6.419   8.035
19695WAT      O59326   1.771   4.878   5.320
19695WAT     H159327   1.737   4.835   5.403
19695WAT     H259328   1.836   4.816   5.274
19696WAT      O59329   0.550   2.653   9.416
19696WAT     H159330   0.605   2.627   9.495
19696WAT     H259331   0.575   2.598   9.337
19697WAT      O59332   1.000   9.249   4.239
19697WAT     H159333   1.051   9.333   4.219
19697WAT     H259334   1.060   9.170   4.229
19698WAT      O59335   9.493   3.147   8.203
19698WAT     H159336   9.584   3.110   8.226
19698WAT     H259337   9.501   3.245   8.186
19699WAT      O59338   0.154   4.622   2.641
19699WAT     H159339   0.221   4.690   2.612
19699WAT     H259340   0.062   4.656   2.620
19700WAT      O59341   1.220   8.716   7.617
19700WAT     H159342   1.181   8.678   7.533
19700WAT     H259343   1.164   8.689   7.695
19701WAT      O59344   5.199   7.332   1.204
19701WAT     H159345   5.140   7.260   1.170
19701WAT     H259346   5.186   7.415   1.150
19702WAT      O59347   1.190   6.650   0.377
19702WAT     H159348   1.156   6.602   0.458
19702WAT     H259349   1.289   6.661   0.384
19703WAT      O59350   6.367   7.239   9.543
19703WAT     H159351   6.338   7.145   9.524
19703WAT     H259352   6.306   7.302   9.496
19704WAT      O59353   1.503   1.484   8.075
19704WAT     H159354   1.521   1.512   8.170
19704WAT     H259355   1.544   1.395   8.059
19705WAT      O59356   0.375   0.075   3.019
19705WAT     H159357   0.313   0.150   3.041
19705WAT     H259358   0.426   0.097   2.935
19706WAT      O59359   2.760   7.812   1.984
19706WAT     H159360   2.747   7.713   1.973
19706WAT     H259361   2.758   7.856   1.894
19707WAT      O59362   8.371   4.481   8.095
19707WAT     H159363   8.394   4.457   8.001
19707WAT     H259364   8.455   4.493   8.148
19708WAT      O59365   3.520   5.616   6.766
19708WAT     H159366   3.559   5.635   6.676
19708WAT     H259367   3.566   5.671   6.835
19709WAT      O59368   5.740   6.041   4.707
19709WAT     H159369   5.824   6.011   4.752
19709WAT     H259370   5.721   5.981   4.629
19710WAT      O59371   0.756   1.261   9.873
19710WAT     H159372   0.745   1.179   9.928
19710WAT     H259373   0.839   1.310   9.902
19711WAT      O59374   8.328   2.763   6.432
19711WAT     H159375   8.302   2.809   6.347
19711WAT     H259376   8.404   2.701   6.414
19712WAT      O59377   5.689   0.574   0.606
19712WAT     H159378   5.599   0.551   0.642
19712WAT     H259379   5.748   0.605   0.681
19713WAT      O59380   0.732   5.924   2.662
19713WAT     H159381   0.714   6.021   2.675
19713WAT     H259382   0.721   5.877   2.750
19714WAT      O59383   2.320   8.409   6.761
19714WAT     H159384   2.408   8.363   6.760
19714WAT     H259385   2.266   8.375   6.839
19715WAT      O59386   5.741   9.594   8.421
19715WAT     H159387   5.752   9.520   8.487
19715WAT     H259388   5.643   9.612   8.406
19716WAT      O59389   4.063   6.494   1.403
19716WAT     H159390   3.964   6.492   1.389
19716WAT     H259391   4.093   6.407   1.441
19717WAT      O59392   5.836   5.668   7.017
19717WAT     H159393   5.860   5.737   6.948
19717WAT     H259394   5.902   5.593   7.014
19718WAT      O59395   7.777   2.440   7.719
19718WAT     H159396   7.783   2.341   7.710
19718WAT     H259397   7.686   2.470   7.690
19719WAT      O59398   9.683   6.178   8.634
19719WAT     H159399   9.659   6.120   8.712
19719WAT     H259400   9.743   6.252   8.664
19720WAT      O59401   8.536   6.062   1.456
19720WAT     H159402   8.543   6.122   1.535
19720WAT     H259403   8.625   6.022   1.436
19721WAT      O59404   0.019   8.047   8.706
19721WAT     H159405  -0.023   7.956   8.715
19721WAT     H259406   0.114   8.043   8.737
19722WAT      O59407   4.030   2.341   7.335
19722WAT     H159408   4.015   2.242   7.344
19722WAT     H259409   4.038   2.364   7.238
19723WAT      O59410   8.154   4.713   7.538
19723WAT     H159411   8.055   4.703   7.529
19723WAT     H259412   8.178   4.717   7.635
19724WAT      O59413   5.576   7.981   3.283
19724WAT     H159414   5.508   7.908   3.292
19724WAT     H259415   5.632   7.985   3.365
19725WAT      O59416   3.571   4.543   6.803
19725WAT     H159417   3.560   4.495   6.890
19725WAT     H259418   3.482   4.578   6.773
19726WAT      O59419   1.272   4.853   8.226
19726WAT     H159420   1.328   4.918   8.174
19726WAT     H259421   1.231   4.787   8.162
19727WAT      O59422   9.077   9.238   1.648
19727WAT     H159423   9.094   9.141   1.664
19727WAT     H259424   9.039   9.280   1.730
19728WAT      O59425   3.986   7.417   0.154
19728WAT     H159426   4.010   7.444   0.061
19728WAT     H259427   3.956   7.322   0.154
19729WAT      O59428   2.182   6.849   4.607
19729WAT     H159429   2.095   6.832   4.653
19729WAT     H259430   2.241   6.769   4.618
19730WAT      O59431   9.613   8.553   3.988
19730WAT     H159432   9.633   8.457   3.972
19730WAT     H259433   9.649   8.608   3.912
19731WAT      O59434   8.457   0.478   0.879
19731WAT     H159435   8.403   0.433   0.951
19731WAT     H259436   8.403   0.552   0.839
19732WAT      O59437   2.284   6.663   0.723
19732WAT     H159438   2.316   6.652   0.817
19732WAT     H259439   2.279   6.573   0.679
19733WAT      O59440   2.606   5.959   7.871
19733WAT     H159441   2.602   5.886   7.803
19733WAT     H259442   2.702   5.982   7.888
19734WAT      O59443   2.719   3.978   5.447
19734WAT     H159444   2.674   3.948   5.363
19734WAT     H259445   2.722   3.902   5.512
19735WAT      O59446   0.125   2.119   9.620
19735WAT     H159447   0.031   2.155   9.619
19735WAT     H259448   0.123   2.021   9.639
19736WAT      O59449   9.465   0.474   8.049
19736WAT     H159450   9.454   0.569   8.079
19736WAT     H259451   9.484   0.416   8.128
19737WAT      O59452   9.745   0.271   9.615
19737WAT     H159453   9.802   0.286   9.533
19737WAT     H259454   9.683   0.194   9.598
19738WAT      O59455   3.409   2.418   2.754
19738WAT     H159456   3.421   2.369   2.840
19738WAT     H259457   3.314   2.411   2.724
19739WAT      O59458   3.311   9.243   6.215
19739WAT     H159459   3.410   9.252   6.200
19739WAT     H259460   3.266   9.329   6.190
19740WAT      O59461   8.747   1.359   7.468
19740WAT     H159462   8.694   1.441   7.491
19740WAT     H259463   8.758   1.354   7.369
19741WAT      O59464   3.059   1.698   1.826
19741WAT     H159465   2.975   1.738   1.790
19741WAT     H259466   3.038   1.641   1.905
19742WAT      O59467   0.249   3.185   3.027
19742WAT     H159468   0.295   3.104   2.990
19742WAT     H259469   0.200   3.232   2.953
19743WAT      O59470   8.954   3.947   8.605
19743WAT     H159471   9.042   3.903   8.589
19743WAT     H259472   8.881   3.890   8.569
19744WAT      O59473   3.123   3.502   5.386
19744WAT     H159474   3.097   3.411   5.353
19744WAT     H259475   3.115   3.568   5.311
19745WAT      O59476   4.908   1.032   7.011
19745WAT     H159477   4.971   0.963   7.047
19745WAT     H259478   4.819   1.020   7.055
19746WAT      O59479   7.428   9.359   2.129
19746WAT     H159480   7.442   9.380   2.033
19746WAT     H259481   7.334   9.328   2.143
19747WAT      O59482   4.153   4.836   7.971
19747WAT     H159483   4.132   4.739   7.982
19747WAT     H259484   4.140   4.862   7.875
19748WAT      O59485   5.522   6.512   6.397
19748WAT     H159486   5.488   6.429   6.352
19748WAT     H259487   5.510   6.590   6.336
19749WAT      O59488   1.997   8.444   6.376
19749WAT     H159489   2.064   8.426   6.303
19749WAT     H259490   2.041   8.497   6.449
19750WAT      O59491   3.192   1.414   5.175
19750WAT     H159492   3.272   1.368   5.135
19750WAT     H259493   3.223   1.483   5.241
19751WAT      O59494   7.294   1.126   1.495
19751WAT     H159495   7.264   1.221   1.497
19751WAT     H259496   7.392   1.121   1.516
19752WAT      O59497   6.992   0.581   0.126
19752WAT     H159498   6.950   0.503   0.080
19752WAT     H259499   7.067   0.617   0.070
19753WAT      O59500   7.709   8.933   1.001
19753WAT     H159501   7.771   8.999   0.959
19753WAT     H259502   7.643   8.901   0.933
19754WAT      O59503   4.125   6.458   2.704
19754WAT     H159504   4.216   6.498   2.695
19754WAT     H259505   4.064   6.524   2.749
19755WAT      O59506   7.210   8.749   0.718
19755WAT     H159507   7.172   8.756   0.626
19755WAT     H259508   7.182   8.829   0.772
19756WAT      O59509   8.804   7.502   9.524
19756WAT     H159510   8.815   7.500   9.424
19756WAT     H259511   8.761   7.589   9.550
19757WAT      O59512   1.490   8.683   6.080
19757WAT     H159513   1.514   8.780   6.079
19757WAT     H259514   1.556   8.632   6.025
19758WAT      O59515   1.226   7.683   2.133
19758WAT     H159516   1.325   7.692   2.122
19758WAT     H259517   1.195   7.600   2.085
19759WAT      O59518   7.274   5.713   4.041
19759WAT     H159519   7.284   5.780   3.968
19759WAT     H259520   7.179   5.680   4.044
19760WAT      O59521   6.802   4.318   6.265
19760WAT     H159522   6.787   4.373   6.347
19760WAT     H259523   6.718   4.268   6.243
19761WAT      O59524   0.921   5.479   9.784
19761WAT     H159525   0.973   5.546   9.838
19761WAT     H259526   0.824   5.487   9.805
19762WAT      O59527   0.390   2.686   6.897
19762WAT     H159528   0.317   2.657   6.959
19762WAT     H259529   0.410   2.783   6.911
19763WAT      O59530   6.129   0.292   5.702
19763WAT     H159531   6.040   0.331   5.680
19763WAT     H259532   6.191   0.365   5.731
19764WAT      O59533   8.588   7.523   2.717
19764WAT     H159534   8.672   7.485   2.755
19764WAT     H259535   8.510   7.496   2.774
19765WAT      O59536   9.797   8.576   2.068
19765WAT     H159537   9.861   8.580   1.990
19765WAT     H259538   9.775   8.480   2.088
19766WAT      O59539   7.020   0.727   5.644
19766WAT     H159540   7.020   0.808   5.584
19766WAT     H259541   6.925   0.698   5.659
19767WAT      O59542   6.747   1.624   3.365
19767WAT     H159543   6.835   1.627   3.412
19767WAT     H259544   6.717   1.529   3.355
19768WAT      O59545   8.133   4.386   4.966
19768WAT     H159546   8.167   4.370   4.874
19768WAT     H259547   8.133   4.484   4.985
19769WAT      O59548   1.440   9.191   5.151
19769WAT     H159549   1.424   9.162   5.056
19769WAT     H259550   1.390   9.275   5.169
19770WAT      O59551   0.060   0.529   9.597
19770WAT     H159552  -0.005   0.453   9.610
19770WAT     H259553   0.110   0.544   9.682
19771WAT      O59554   6.651   7.934   2.616
19771WAT     H159555   6.605   7.854   2.578
19771WAT     H259556   6.584   8.000   2.648
19772WAT      O59557   7.576   6.776   5.192
19772WAT     H159558   7.578   6.693   5.136
19772WAT     H259559   7.620   6.757   5.280
19773WAT      O59560   6.927   9.207   6.204
19773WAT     H159561   6.827   9.200   6.198
19773WAT     H259562   6.955   9.217   6.299
19774WAT      O59563   2.842   0.439   1.519
19774WAT     H159564   2.927   0.386   1.510
19774WAT     H259565   2.810   0.466   1.428
19775WAT      O59566   1.264   3.736   8.202
19775WAT     H159567   1.277   3.766   8.296
19775WAT     H259568   1.335   3.669   8.178
19776WAT      O59569   5.145   9.421   4.949
19776WAT     H159570   5.164   9.344   5.010
19776WAT     H259571   5.100   9.387   4.866
19777WAT      O59572   6.679   1.716   9.806
19777WAT     H159573   6.717   1.633   9.846
19777WAT     H259574   6.692   1.793   9.869
19778WAT      O59575   1.841   7.251   7.776
19778WAT     H159576   1.894   7.271   7.858
19778WAT     H259577   1.860   7.157   7.747
19779WAT      O59578   4.646   2.164   1.898
19779WAT     H159579   4.745   2.169   1.905
19779WAT     H259580   4.604   2.197   1.983
19780WAT      O59581   7.361   1.467   5.186
19780WAT     H159582   7.326   1.387   5.235
19780WAT     H259583   7.445   1.499   5.229
19781WAT      O59584   8.443   8.331   6.565
19781WAT     H159585   8.501   8.323   6.646
19781WAT     H259586   8.409   8.241   6.540
19782WAT      O59587   4.782   9.345   5.777
19782WAT     H159588   4.774   9.401   5.694
19782WAT     H259589   4.867   9.292   5.773
19783WAT      O59590   8.136   2.205   3.483
19783WAT     H159591   8.193   2.124   3.498
19783WAT     H259592   8.040   2.180   3.494
19784WAT      O59593   2.148   1.462   8.974
19784WAT     H159594   2.063   1.482   8.925
19784WAT     H259595   2.214   1.535   8.956
19785WAT      O59596   9.070   6.737   5.667
19785WAT     H159597   9.098   6.643   5.649
19785WAT     H259598   9.086   6.758   5.763
19786WAT      O59599   1.509   8.867   5.343
19786WAT     H159600   1.428   8.899   5.294
19786WAT     H259601   1.500   8.888   5.440
19787WAT      O59602   2.283   4.767   9.646
19787WAT     H159603   2.250   4.852   9.605
19787WAT     H259604   2.241   4.755   9.736
19788WAT      O59605   8.955   6.931   7.768
19788WAT     H159606   8.944   6.938   7.867
19788WAT     H259607   9.052   6.919   7.746
19789WAT      O59608   7.074   1.389   1.044
19789WAT     H159609   7.122   1.465   1.088
19789WAT     H259610   7.039   1.419   0.956
19790WAT      O59611   2.725   2.373   4.711
19790WAT     H159612   2.759   2.286   4.747
19790WAT     H259613   2.631   2.388   4.742
19791WAT      O59614   5.085   1.302   0.746
19791WAT     H159615   5.040   1.275   0.831
19791WAT     H259616   5.149   1.230   0.719
19792WAT      O59617   9.854   8.613   4.112
19792WAT     H159618   9.778   8.585   4.053
19792WAT     H259619   9.881   8.706   4.090
19793WAT      O59620   0.460   6.092   6.773
19793WAT     H159621   0.468   6.172   6.714
19793WAT     H259622   0.490   6.011   6.723
19794WAT      O59623   6.258   8.836   9.589
19794WAT     H159624   6.188   8.855   9.657
19794WAT     H259625   6.234   8.881   9.503
19795WAT      O59626   6.887   6.087   7.350
19795WAT     H159627   6.789   6.090   7.329
19795WAT     H259628   6.909   6.158   7.417
19796WAT      O59629   7.481   6.963   9.128
19796WAT     H159630   7.505   7.047   9.177
19796WAT     H259631   7.492   6.884   9.189
19797WAT      O59632   9.289   8.004   2.052
19797WAT     H159633   9.328   7.944   1.982
19797WAT     H259634   9.232   7.950   2.113
19798WAT      O59635   7.858   0.785   9.865
19798WAT     H159636   7.873   0.717   9.793
19798WAT     H259637   7.821   0.739   9.946
19799WAT      O59638   5.342   7.168   5.973
19799WAT     H159639   5.312   7.108   5.899
19799WAT     H259640   5.398   7.242   5.935
19800WAT      O59641   3.684   7.721   7.123
19800WAT     H159642   3.681   7.622   7.106
19800WAT     H259643   3.593   7.759   7.110
19801WAT      O59644   6.990   0.764   8.440
19801WAT     H159645   7.085   0.793   8.453
19801WAT     H259646   6.944   0.829   8.379
19802WAT      O59647   5.026   2.720   4.483
19802WAT     H159648   4.983   2.652   4.425
19802WAT     H259649   5.108   2.681   4.525
19803WAT      O59650   9.005   9.691   5.294
19803WAT     H159651   8.992   9.615   5.357
19803WAT     H259652   8.917   9.737   5.278
19804WAT      O59653   4.714   3.426   6.575
19804WAT     H159654   4.762   3.448   6.490
19804WAT     H259655   4.759   3.472   6.652
19805WAT      O59656   0.004   2.272   5.394
19805WAT     H159657  -0.077   2.215   5.381
19805WAT     H259658   0.028   2.275   5.491
19806WAT      O59659   8.095   5.919   3.337
19806WAT     H159660   8.111   5.995   3.400
19806WAT     H259661   8.061   5.840   3.389
19807WAT      O59662   6.253   3.925   6.849
19807WAT     H159663   6.230   3.945   6.754
19807WAT     H259664   6.345   3.959   6.869
19808WAT      O59665   2.816   8.983   4.573
19808WAT     H159666   2.834   9.066   4.626
19808WAT     H259667   2.751   8.926   4.622
19809WAT      O59668   4.988   4.625   1.655
19809WAT     H159669   5.084   4.607   1.678
19809WAT     H259670   4.984   4.694   1.583
19810WAT      O59671   1.906   8.075   4.172
19810WAT     H159672   1.889   8.157   4.118
19810WAT     H259673   1.938   8.101   4.263
19811WAT      O59674   0.526   8.110   5.440
19811WAT     H159675   0.479   8.194   5.414
19811WAT     H259676   0.597   8.130   5.508
19812WAT      O59677   4.423   5.604   2.219
19812WAT     H159678   4.483   5.525   2.207
19812WAT     H259679   4.365   5.614   2.138
19813WAT      O59680   6.723   2.235   4.438
19813WAT     H159681   6.714   2.279   4.349
19813WAT     H259682   6.770   2.298   4.501
19814WAT      O59683   0.193   6.675   5.647
19814WAT     H159684   0.171   6.707   5.739
19814WAT     H259685   0.109   6.654   5.598
19815WAT      O59686   8.232   0.064   2.779
19815WAT     H159687   8.141   0.089   2.815
19815WAT     H259688   8.302   0.107   2.836
19816WAT      O59689   7.371   5.808   4.293
19816WAT     H159690   7.360   5.800   4.194
19816WAT     H259691   7.364   5.904   4.320
19817WAT      O59692   2.474   5.179   8.164
19817WAT     H159693   2.510   5.259   8.214
19817WAT     H259694   2.377   5.194   8.144
19818WAT      O59695   0.074   3.944   0.303
19818WAT     H159696   0.136   3.987   0.368
19818WAT     H259697   0.110   3.957   0.210
19819WAT      O59698   0.278   6.396   4.637
19819WAT     H159699   0.218   6.378   4.560
19819WAT     H259700   0.365   6.432   4.603
19820WAT      O59701   7.006   7.210   4.211
19820WAT     H159702   6.918   7.216   4.258
19820WAT     H259703   7.065   7.145   4.258
19821WAT      O59704   0.852   1.779   6.450
19821WAT     H159705   0.890   1.866   6.483
19821WAT     H259706   0.783   1.797   6.380
19822WAT      O59707   1.813   3.644   0.013
19822WAT     H159708   1.837   3.676  -0.079
19822WAT     H259709   1.857   3.556   0.030
19823WAT      O59710   9.566   0.755   0.857
19823WAT     H159711   9.469   0.743   0.879
19823WAT     H259712   9.614   0.790   0.937
19824WAT      O59713   3.285   1.851   8.993
19824WAT     H159714   3.242   1.761   9.004
19824WAT     H259715   3.224   1.910   8.940
19825WAT      O59716   5.410   7.161   1.896
19825WAT     H159717   5.493   7.120   1.858
19825WAT     H259718   5.336   7.155   1.829
19826WAT      O59719   2.840   4.767   1.051
19826WAT     H159720   2.830   4.864   1.030
19826WAT     H259721   2.768   4.715   1.005
19827WAT      O59722   0.632   1.441   0.386
19827WAT     H159723   0.607   1.476   0.296
19827WAT     H259724   0.647   1.343   0.381
19828WAT      O59725   1.061   7.095   8.968
19828WAT     H159726   1.025   7.140   9.050
19828WAT     H259727   1.033   7.146   8.887
19829WAT      O59728   0.944   8.552   7.719
19829WAT     H159729   0.988   8.466   7.693
19829WAT     H259730   0.915   8.547   7.814
19830WAT      O59731   7.876   5.585   0.237
19830WAT     H159732   7.955   5.532   0.267
19830WAT     H259733   7.794   5.527   0.238
19831WAT      O59734   6.760   8.911   4.621
19831WAT     H159735   6.815   8.925   4.703
19831WAT     H259736   6.769   8.991   4.561
19832WAT      O59737   4.395   9.005   7.310
19832WAT     H159738   4.356   8.937   7.248
19832WAT     H259739   4.360   8.990   7.403
19833WAT      O59740   9.455   8.645   3.579
19833WAT     H159741   9.362   8.610   3.593
19833WAT     H259742   9.513   8.573   3.543
19834WAT      O59743   8.263   7.066   5.915
19834WAT     H159744   8.176   7.018   5.926
19834WAT     H259745   8.267   7.143   5.979
19835WAT      O59746   4.879   7.889   5.328
19835WAT     H159747   4.938   7.823   5.282
19835WAT     H259748   4.935   7.950   5.384
19836WAT      O59749   2.703   0.282   4.964
19836WAT     H159750   2.632   0.243   5.023
19836WAT     H259751   2.679   0.376   4.940
19837WAT      O59752   8.263   4.582   2.310
19837WAT     H159753   8.356   4.589   2.275
19837WAT     H259754   8.208   4.658   2.276
19838WAT      O59755   0.369   1.988   8.610
19838WAT     H159756   0.350   1.965   8.705
19838WAT     H259757   0.285   2.016   8.564
19839WAT      O59758   8.325   1.260   0.464
19839WAT     H159759   8.287   1.294   0.378
19839WAT     H259760   8.302   1.164   0.475
19840WAT      O59761   6.172   6.811   0.894
19840WAT     H159762   6.185   6.851   0.985
19840WAT     H259763   6.161   6.712   0.902
19841WAT      O59764   0.847   6.439   7.357
19841WAT     H159765   0.889   6.385   7.430
19841WAT     H259766   0.778   6.500   7.396
19842WAT      O59767   5.638   8.048   5.546
19842WAT     H159768   5.675   8.052   5.639
19842WAT     H259769   5.554   8.102   5.541
19843WAT      O59770   2.045   2.790   0.349
19843WAT     H159771   2.121   2.851   0.327
19843WAT     H259772   1.966   2.843   0.380
19844WAT      O59773   6.437   5.455   8.113
19844WAT     H159774   6.504   5.462   8.039
19844WAT     H259775   6.478   5.489   8.198
19845WAT      O59776   1.110   0.454   0.198
19845WAT     H159777   1.095   0.360   0.229
19845WAT     H259778   1.168   0.454   0.116
19846WAT      O59779   4.849   0.844   9.603
19846WAT     H159780   4.929   0.883   9.648
19846WAT     H259781   4.815   0.908   9.533
19847WAT      O59782   3.605   4.245   4.653
19847WAT     H159783   3.550   4.258   4.736
19847WAT     H259784   3.632   4.150   4.646
19848WAT      O59785   4.074   9.315   8.772
19848WAT     H159786   4.135   9.392   8.756
19848WAT     H259787   4.065   9.261   8.688
19849WAT      O59788   9.450   7.414   4.498
19849WAT     H159789   9.491   7.503   4.514
19849WAT     H259790   9.487   7.348   4.564
19850WAT      O59791   6.942   9.423   0.966
19850WAT     H159792   7.040   9.418   0.985
19850WAT     H259793   6.926   9.407   0.868
19851WAT      O59794   0.928   3.043   1.132
19851WAT     H159795   1.016   3.032   1.086
19851WAT     H259796   0.928   2.987   1.215
19852WAT      O59797   9.100   2.824   0.140
19852WAT     H159798   9.020   2.863   0.095
19852WAT     H259799   9.159   2.781   0.072
19853WAT      O59800   0.741   1.086   7.601
19853WAT     H159801   0.670   1.040   7.546
19853WAT     H259802   0.729   1.185   7.592
19854WAT      O59803   4.133   7.466   0.366
19854WAT     H159804   4.083   7.428   0.443
19854WAT     H259805   4.082   7.450   0.282
19855WAT      O59806   5.267   0.074   7.677
19855WAT     H159807   5.234   0.159   7.718
19855WAT     H259808   5.235  -0.003   7.733
19856WAT      O59809   0.383   3.248   4.437
19856WAT     H159810   0.328   3.179   4.389
19856WAT     H259811   0.437   3.300   4.371
19857WAT      O59812   9.390   0.641   6.996
19857WAT     H159813   9.307   0.585   7.005
19857WAT     H259814   9.415   0.677   7.086
19858WAT      O59815   5.743   9.063   0.772
19858WAT     H159816   5.691   8.982   0.799
19858WAT     H259817   5.811   9.084   0.842
19859WAT      O59818   0.533   7.274   2.402
19859WAT     H159819   0.633   7.274   2.406
19859WAT     H259820   0.497   7.238   2.488
19860WAT      O59821   3.916   9.173   8.105
19860WAT     H159822   3.873   9.122   8.179
19860WAT     H259823   4.015   9.164   8.111
19861WAT      O59824   4.422   5.168   2.276
19861WAT     H159825   4.486   5.242   2.255
19861WAT     H259826   4.469   5.098   2.330
19862WAT      O59827   4.629   9.130   6.192
19862WAT     H159828   4.682   9.116   6.109
19862WAT     H259829   4.586   9.044   6.220
19863WAT      O59830   2.627   0.461   8.470
19863WAT     H159831   2.564   0.535   8.496
19863WAT     H259832   2.597   0.421   8.384
19864WAT      O59833   6.844   2.316   7.039
19864WAT     H159834   6.936   2.350   7.016
19864WAT     H259835   6.825   2.235   6.984
19865WAT      O59836   1.894   6.903   7.888
19865WAT     H159837   1.897   6.935   7.794
19865WAT     H259838   1.839   6.819   7.893
19866WAT      O59839   5.467   6.441   6.680
19866WAT     H159840   5.544   6.389   6.717
19866WAT     H259841   5.459   6.424   6.582
19867WAT      O59842   0.020   2.846   2.128
19867WAT     H159843  -0.021   2.762   2.091
19867WAT     H259844   0.070   2.893   2.056
19868WAT      O59845   7.822   9.007   3.204
19868WAT     H159846   7.851   9.060   3.125
19868WAT     H259847   7.759   9.061   3.261
19869WAT      O59848   3.787   3.262   2.276
19869WAT     H159849   3.785   3.340   2.212
19869WAT     H259850   3.749   3.290   2.364
19870WAT      O59851   0.227   4.479   3.856
19870WAT     H159852   0.149   4.418   3.865
19870WAT     H259853   0.216   4.536   3.775
19871WAT      O59854   3.805   1.030   1.668
19871WAT     H159855   3.880   0.977   1.628
19871WAT     H259856   3.762   0.978   1.741
19872WAT      O59857   2.599   4.618   7.167
19872WAT     H159858   2.670   4.684   7.193
19872WAT     H259859   2.628   4.526   7.193
19873WAT      O59860   9.082   3.922   0.379
19873WAT     H159861   9.167   3.968   0.404
19873WAT     H259862   9.063   3.849   0.444
19874WAT      O59863   6.576   7.078   1.639
19874WAT     H159864   6.548   7.153   1.579
19874WAT     H259865   6.674   7.062   1.627
19875WAT      O59866   6.726   8.452   9.001
19875WAT     H159867   6.819   8.433   9.035
19875WAT     H259868   6.712   8.404   8.915
19876WAT      O59869   4.357   9.461   8.220
19876WAT     H159870   4.262   9.437   8.241
19876WAT     H259871   4.376   9.442   8.124
19877WAT      O59872   0.541   4.485   2.440
19877WAT     H159873   0.472   4.426   2.396
19877WAT     H259874   0.531   4.479   2.540
19878WAT      O59875   9.621   0.726   6.109
19878WAT     H159876   9.697   0.774   6.064
19878WAT     H259877   9.595   0.647   6.054
19879WAT      O59878   2.696   7.237   0.339
19879WAT     H159879   2.619   7.178   0.362
19879WAT     H259880   2.669   7.301   0.266
19880WAT      O59881   1.026   7.822   4.447
19880WAT     H159882   0.937   7.776   4.439
19880WAT     H259883   1.048   7.867   4.361
19881WAT      O59884   7.759   4.126   6.079
19881WAT     H159885   7.681   4.180   6.110
19881WAT     H259886   7.840   4.185   6.073
19882WAT      O59887   8.165   3.252   6.210
19882WAT     H159888   8.108   3.317   6.160
19882WAT     H259889   8.191   3.177   6.150
19883WAT      O59890   7.245   6.069   8.633
19883WAT     H159891   7.300   5.985   8.631
19883WAT     H259892   7.221   6.094   8.539
19884WAT      O59893   4.075   5.623   0.472
19884WAT     H159894   4.037   5.641   0.381
19884WAT     H259895   4.001   5.599   0.535
19885WAT      O59896   5.732   3.747   9.853
19885WAT     H159897   5.750   3.733   9.756
19885WAT     H259898   5.702   3.662   9.895
19886WAT      O59899   5.986   7.481   2.120
19886WAT     H159900   6.039   7.500   2.203
19886WAT     H259901   5.964   7.567   2.075
19887WAT      O59902   5.179   9.325   0.104
19887WAT     H159903   5.100   9.381   0.129
19887WAT     H259904   5.262   9.366   0.142
19888WAT      O59905   5.052   3.687   0.352
19888WAT     H159906   5.096   3.599   0.373
19888WAT     H259907   5.078   3.715   0.259
19889WAT      O59908   7.432   6.780   9.372
19889WAT     H159909   7.479   6.694   9.391
19889WAT     H259910   7.336   6.773   9.399
19890WAT      O59911   9.267   7.165   0.412
19890WAT     H159912   9.256   7.080   0.464
19890WAT     H259913   9.179   7.213   0.409
19891WAT      O59914   9.157   4.684   5.685
19891WAT     H159915   9.137   4.606   5.626
19891WAT     H259916   9.112   4.671   5.773
19892WAT      O59917   1.849   2.563   5.150
19892WAT     H159918   1.941   2.526   5.146
19892WAT     H259919   1.800   2.541   5.066
19893WAT      O59920   7.330   7.775   3.715
19893WAT     H159921   7.377   7.862   3.728
19893WAT     H259922   7.232   7.791   3.706
19894WAT      O59923   8.203   7.548   0.168
19894WAT     H159924   8.205   7.631   0.112
19894WAT     H259925   8.249   7.566   0.255
19895WAT      O59926   0.878   7.366   1.024
19895WAT     H159927   0.897   7.292   0.959
19895WAT     H259928   0.876   7.453   0.975
19896WAT      O59929   4.675   7.769   0.851
19896WAT     H159930   4.656   7.762   0.753
19896WAT     H259931   4.773   7.787   0.865
19897WAT      O59932   4.570   1.422   4.932
19897WAT     H159933   4.529   1.415   4.842
19897WAT     H259934   4.557   1.514   4.969
19898WAT      O59935   5.592   8.995   6.339
19898WAT     H159936   5.621   9.070   6.398
19898WAT     H259937   5.623   8.908   6.376
19899WAT      O59938   8.472   3.282   7.785
19899WAT     H159939   8.406   3.356   7.795
19899WAT     H259940   8.425   3.198   7.758
19900WAT      O59941   4.522   8.602   8.592
19900WAT     H159942   4.514   8.600   8.492
19900WAT     H259943   4.584   8.530   8.622
19901WAT      O59944   0.708   4.520   5.935
19901WAT     H159945   0.684   4.614   5.910
19901WAT     H259946   0.799   4.498   5.900
19902WAT      O59947   5.968   9.089   9.178
19902WAT     H159948   5.894   9.125   9.121
19902WAT     H259949   6.056   9.116   9.139
19903WAT      O59950   8.033   0.133   1.069
19903WAT     H159951   8.101   0.123   0.996
19903WAT     H259952   7.996   0.043   1.092
19904WAT      O59953   6.571   7.302   1.477
19904WAT     H159954   6.486   7.299   1.426
19904WAT     H259955   6.628   7.378   1.444
19905WAT      O59956   4.975   3.186   1.072
19905WAT     H159957   5.048   3.237   1.026
19905WAT     H259958   5.015   3.126   1.141
19906WAT      O59959   2.877   5.482   4.172
19906WAT     H159960   2.962   5.490   4.225
19906WAT     H259961   2.819   5.411   4.212
19907WAT      O59962   9.735   6.669   7.963
19907WAT     H159963   9.691   6.632   8.045
19907WAT     H259964   9.696   6.625   7.882
19908WAT      O59965   7.262   3.500   5.858
19908WAT     H159966   7.341   3.552   5.828
19908WAT     H259967   7.209   3.554   5.924
19909WAT      O59968   4.920   8.174   9.850
19909WAT     H159969   4.882   8.254   9.898
19909WAT     H259970   4.865   8.156   9.768
19910WAT      O59971   1.521   9.758   6.776
19910WAT     H159972   1.502   9.816   6.697
19910WAT     H259973   1.436   9.716   6.807
19911WAT      O59974   1.171   5.416   8.846
19911WAT     H159975   1.234   5.486   8.879
19911WAT     H259976   1.155   5.427   8.748
19912WAT      O59977   4.648   0.494   3.325
19912WAT     H159978   4.571   0.558   3.324
19912WAT     H259979   4.728   0.538   3.367
19913WAT      O59980   8.787   0.214   1.616
19913WAT     H159981   8.798   0.295   1.559
19913WAT     H259982   8.802   0.238   1.712
19914WAT      O59983   7.738   9.825   3.647
19914WAT     H159984   7.750   9.899   3.714
19914WAT     H259985   7.680   9.754   3.687
19915WAT      O59986   6.612   0.261   4.369
19915WAT     H159987   6.688   0.200   4.389
19915WAT     H259988   6.535   0.241   4.429
19916WAT      O59989   8.514   0.938   7.688
19916WAT     H159990   8.593   0.890   7.725
19916WAT     H259991   8.512   0.927   7.589
19917WAT      O59992   3.038   6.617   0.571
19917WAT     H159993   3.024   6.583   0.664
19917WAT     H259994   3.041   6.540   0.508
19918WAT      O59995   0.852   0.909   6.786
19918WAT     H159996   0.913   0.859   6.724
19918WAT     H259997   0.766   0.928   6.741
19919WAT      O59998   7.363   4.238   4.743
19919WAT     H159999   7.365   4.273   4.649
19919WAT     H260000   7.450   4.195   4.765
19920WAT      O60001   8.681   0.338   1.184
19920WAT     H160002   8.680   0.385   1.096
19920WAT     H260003   8.752   0.267   1.183
19921WAT      O60004   9.277   2.584   1.929
19921WAT     H160005   9.355   2.530   1.961
19921WAT     H260006   9.294   2.617   1.837
19922WAT      O60007   4.992   1.885   7.190
19922WAT     H160008   5.040   1.800   7.167
19922WAT     H260009   5.030   1.924   7.273
19923WAT      O60010   1.628   3.296   1.723
19923WAT     H160011   1.569   3.373   1.700
19923WAT     H260012   1.575   3.225   1.769
19924WAT      O60013   7.798   6.714   8.966
19924WAT     H160014   7.782   6.617   8.945
19924WAT     H260015   7.732   6.770   8.916
19925WAT      O60016   6.167   4.377   9.369
19925WAT     H160017   6.131   4.292   9.407
19925WAT     H260018   6.106   4.452   9.393
19926WAT      O60019   8.538   2.567   8.131
19926WAT     H160020   8.533   2.468   8.120
19926WAT     H260021   8.601   2.590   8.205
19927WAT      O60022   1.131   2.276   8.456
19927WAT     H160023   1.111   2.237   8.366
19927WAT     H260024   1.061   2.342   8.480
19928WAT      O60025   8.542   2.061   7.079
19928WAT     H160026   8.587   2.146   7.103
19928WAT     H260027   8.570   2.032   6.987
19929WAT      O60028   2.619   7.984   2.184
19929WAT     H160029   2.682   7.941   2.119
19929WAT     H260030   2.530   7.939   2.179
19930WAT      O60031   1.970   8.331   9.111
19930WAT     H160032   1.897   8.264   9.121
19930WAT     H260033   2.011   8.350   9.201
19931WAT      O60034   8.673   7.348   8.261
19931WAT     H160035   8.627   7.437   8.258
19931WAT     H260036   8.626   7.288   8.326
19932WAT      O60037   2.894   6.304   1.477
19932WAT     H160038   2.969   6.258   1.525
19932WAT     H260039   2.901   6.287   1.379
19933WAT      O60040   5.247   5.538   5.156
19933WAT     H160041   5.268   5.631   5.187
19933WAT     H260042   5.194   5.490   5.226
19934WAT      O60043   9.574   8.060   8.526
19934WAT     H160044   9.556   7.962   8.533
19934WAT     H260045   9.667   8.074   8.491
19935WAT      O60046   5.105   1.121   3.761
19935WAT     H160047   5.133   1.214   3.739
19935WAT     H260048   5.093   1.111   3.860
19936WAT      O60049   6.405   6.123   7.301
19936WAT     H160050   6.316   6.168   7.294
19936WAT     H260051   6.477   6.186   7.271
19937WAT      O60052   7.505   1.857   2.507
19937WAT     H160053   7.451   1.774   2.500
19937WAT     H260054   7.446   1.934   2.532
19938WAT      O60055   6.644   3.409   5.860
19938WAT     H160056   6.609   3.501   5.839
19938WAT     H260057   6.609   3.380   5.949
19939WAT      O60058   2.436   7.694   0.359
19939WAT     H160059   2.344   7.714   0.393
19939WAT     H260060   2.467   7.607   0.397
19940WAT      O60061   4.211   1.451   5.125
19940WAT     H160062   4.229   1.471   5.222
19940WAT     H260063   4.141   1.514   5.091
19941WAT      O60064   6.670   8.249   5.587
19941WAT     H160065   6.631   8.271   5.676
19941WAT     H260066   6.707   8.156   5.589
19942WAT      O60067   8.047   7.495   0.422
19942WAT     H160068   8.094   7.526   0.339
19942WAT     H260069   8.065   7.560   0.496
19943WAT      O60070   6.913   4.466   2.353
19943WAT     H160071   6.893   4.446   2.257
19943WAT     H260072   6.841   4.526   2.390
19944WAT      O60073   6.882   4.208   0.040
19944WAT     H160074   6.874   4.114   0.071
19944WAT     H260075   6.978   4.230   0.023
19945WAT      O60076   8.337   6.271   3.106
19945WAT     H160077   8.238   6.267   3.093
19945WAT     H260078   8.380   6.193   3.061
19946WAT      O60079   2.559   3.420   6.413
19946WAT     H160080   2.557   3.322   6.395
19946WAT     H260081   2.652   3.447   6.439
19947WAT      O60082   8.388   3.187   0.393
19947WAT     H160083   8.426   3.141   0.473
19947WAT     H260084   8.370   3.283   0.415
19948WAT      O60085   7.786   9.201   2.585
19948WAT     H160086   7.729   9.121   2.607
19948WAT     H260087   7.870   9.198   2.639
19949WAT      O60088   3.190   0.550   7.333
19949WAT     H160089   3.186   0.451   7.351
19949WAT     H260090   3.114   0.595   7.381
19950WAT      O60091   2.678   3.242   8.217
19950WAT     H160092   2.730   3.159   8.239
19950WAT     H260093   2.605   3.253   8.285
19951WAT      O60094   2.462   7.949   7.596
19951WAT     H160095   2.552   7.970   7.632
19951WAT     H260096   2.467   7.869   7.537
19952WAT      O60097   9.254   5.290   8.398
19952WAT     H160098   9.189   5.340   8.342
19952WAT     H260099   9.337   5.272   8.345
19953WAT      O60100   6.215   9.440   2.830
19953WAT     H160101   6.127   9.484   2.846
19953WAT     H260102   6.289   9.507   2.840
19954WAT      O60103   0.460   8.760   1.252
19954WAT     H160104   0.485   8.774   1.156
19954WAT     H260105   0.540   8.728   1.302
19955WAT      O60106   3.919   2.612   4.609
19955WAT     H160107   3.964   2.583   4.525
19955WAT     H260108   3.883   2.532   4.657
19956WAT      O60109   8.966   8.326   7.915
19956WAT     H160110   8.875   8.292   7.936
19956WAT     H260111   9.007   8.366   7.997
19957WAT      O60112   0.887   3.751   6.569
19957WAT     H160113   0.819   3.680   6.549
19957WAT     H260114   0.976   3.708   6.586
19958WAT      O60115   1.058   1.943   1.989
19958WAT     H160116   1.080   2.028   1.941
19958WAT     H260117   1.033   1.872   1.922
19959WAT      O60118   1.603   3.133   7.526
19959WAT     H160119   1.532   3.065   7.506
19959WAT     H260120   1.692   3.088   7.532
19960WAT      O60121   2.346   1.337   2.241
19960WAT     H160122   2.323   1.243   2.216
19960WAT     H260123   2.270   1.397   2.216
19961WAT      O60124   9.612   0.036   9.611
19961WAT     H160125   9.585  -0.035   9.546
19961WAT     H260126   9.586   0.009   9.703
19962WAT      O60127   1.091   8.284   7.730
19962WAT     H160128   1.065   8.221   7.656
19962WAT     H260129   1.181   8.260   7.765
19963WAT      O60130   7.339   3.580   8.395
19963WAT     H160131   7.354   3.572   8.297
19963WAT     H260132   7.244   3.556   8.417
19964WAT      O60133   7.753   2.203   5.011
19964WAT     H160134   7.763   2.226   5.108
19964WAT     H260135   7.835   2.231   4.961
19965WAT      O60136   3.874   0.966   3.543
19965WAT     H160137   3.823   0.894   3.589
19965WAT     H260138   3.876   1.048   3.601
19966WAT      O60139   0.417   5.536   2.587
19966WAT     H160140   0.433   5.535   2.685
19966WAT     H260141   0.361   5.615   2.562
19967WAT      O60142   7.729   0.079   5.506
19967WAT     H160143   7.743   0.172   5.471
19967WAT     H260144   7.767   0.013   5.441
19968WAT      O60145   3.900   2.462   0.467
19968WAT     H160146   3.900   2.373   0.421
19968WAT     H260147   3.906   2.448   0.566
19969WAT      O60148   3.958   3.506   8.644
19969WAT     H160149   3.911   3.421   8.622
19969WAT     H260150   4.027   3.525   8.574
19970WAT      O60151   7.888   3.351   4.750
19970WAT     H160152   7.836   3.268   4.729
19970WAT     H260153   7.845   3.430   4.705
19971WAT      O60154   2.018   9.703   1.527
19971WAT     H160155   1.986   9.795   1.548
19971WAT     H260156   2.078   9.670   1.600
19972WAT      O60157   1.416   1.084   1.244
19972WAT     H160158   1.442   1.179   1.261
19972WAT     H260159   1.445   1.057   1.153
19973WAT      O60160   3.069   1.611   4.995
19973WAT     H160161   3.095   1.552   5.072
19973WAT     H260162   3.143   1.612   4.928
19974WAT      O60163   4.362   9.312   2.977
19974WAT     H160164   4.291   9.341   2.912
19974WAT     H260165   4.375   9.384   3.045
19975WAT      O60166   3.134   4.431   0.105
19975WAT     H160167   3.132   4.526   0.136
19975WAT     H260168   3.131   4.428   0.005
19976WAT      O60169   7.943   8.585   6.822
19976WAT     H160170   7.978   8.615   6.733
19976WAT     H260171   8.007   8.521   6.864
19977WAT      O60172   8.603   0.415   9.510
19977WAT     H160173   8.694   0.385   9.481
19977WAT     H260174   8.541   0.415   9.431
19978WAT      O60175   1.382   8.499   8.909
19978WAT     H160176   1.370   8.489   8.810
19978WAT     H260177   1.445   8.430   8.942
19979WAT      O60178   8.197   3.063   5.355
19979WAT     H160179   8.108   3.042   5.396
19979WAT     H260180   8.201   3.159   5.330
19980WAT      O60181   2.541   0.283   8.852
19980WAT     H160182   2.492   0.303   8.767
19980WAT     H260183   2.624   0.231   8.831
19981WAT      O60184   7.984   7.228   5.623
19981WAT     H160185   8.027   7.205   5.711
19981WAT     H260186   8.054   7.236   5.553
19982WAT      O60187   9.551   7.426   7.925
19982WAT     H160188   9.503   7.343   7.896
19982WAT     H260189   9.486   7.502   7.929
19983WAT      O60190   6.584   3.142   6.438
19983WAT     H160191   6.506   3.098   6.393
19983WAT     H260192   6.551   3.206   6.507
19984WAT      O60193   3.967   5.771   0.241
19984WAT     H160194   3.904   5.817   0.179
19984WAT     H260195   4.058   5.811   0.232
19985WAT      O60196   7.750   8.136   4.241
19985WAT     H160197   7.679   8.071   4.267
19985WAT     H260198   7.793   8.106   4.156
19986WAT      O60199   2.232   5.767   8.450
19986WAT     H160200   2.298   5.734   8.383
19986WAT     H260201   2.149   5.710   8.445
19987WAT      O60202   7.648   5.395   5.703
19987WAT     H160203   7.706   5.410   5.623
19987WAT     H260204   7.559   5.363   5.673
19988WAT      O60205   3.460   2.051   5.739
19988WAT     H160206   3.397   2.121   5.707
19988WAT     H260207   3.409   1.970   5.768
19989WAT      O60208   4.326   7.820   3.972
19989WAT     H160209   4.344   7.856   3.881
19989WAT     H260210   4.335   7.893   4.040
19990WAT      O60211   9.198   7.117   8.741
19990WAT     H160212   9.163   7.177   8.814
19990WAT     H260213   9.158   7.026   8.751
19991WAT      O60214   0.012   7.661   6.670
19991WAT     H160215   0.009   7.587   6.603
19991WAT     H260216   0.094   7.651   6.727
19992WAT      O60217   7.001   1.962   2.213
19992WAT     H160218   6.918   1.952   2.268
19992WAT     H260219   6.986   2.032   2.143
19993WAT      O60220   4.906   4.251   7.824
19993WAT     H160221   4.860   4.210   7.902
19993WAT     H260222   4.951   4.180   7.770
19994WAT      O60223   3.456   3.764   5.347
19994WAT     H160224   3.430   3.759   5.444
19994WAT     H260225   3.379   3.799   5.294
19995WAT      O60226   6.775   6.084   4.710
19995WAT     H160227   6.827   6.002   4.734
19995WAT     H260228   6.832   6.145   4.656
19996WAT      O60229   8.278   3.083   9.890
19996WAT     H160230   8.368   3.127   9.892
19996WAT     H260231   8.289   2.984   9.882
19997WAT      O60232   5.471   7.948   0.659
19997WAT     H160233   5.399   8.005   0.619
19997WAT     H260234   5.434   7.858   0.682
19998WAT      O60235   7.463   7.845   7.647
19998WAT     H160236   7.417   7.928   7.614
19998WAT     H260237   7.396   7.772   7.658
19999WAT      O60238   6.837   4.860   9.555
19999WAT     H160239   6.832   4.825   9.462
19999WAT     H260240   6.805   4.790   9.619
20000WAT      O60241   1.897   0.048   3.017
20000WAT     H160242   1.963  -0.009   2.966
20000WAT     H260243   1.818   0.066   2.959
20001WAT      O60244   8.788   7.193   6.722
20001WAT     H160245   8.778   7.144   6.809
20001WAT     H260246   8.698   7.205   6.680
20002WAT      O60247   2.711   0.989   7.101
20002WAT     H160248   2.655   0.980   7.183
20002WAT     H260249   2.690   0.915   7.038
20003WAT      O60250   4.986   2.427   4.655
20003WAT     H160251   5.084   2.428   4.636
20003WAT     H260252   4.946   2.515   4.631
20004WAT      O60253   1.491   7.072   1.545
20004WAT     H160254   1.500   7.152   1.486
20004WAT     H260255   1.423   7.009   1.506
20005WAT      O60256   1.452   0.755   9.705
20005WAT     H160257   1.373   0.739   9.646
20005WAT     H260258   1.462   0.853   9.723
20006WAT      O60259   4.652   2.762   4.772
20006WAT     H160260   4.560   2.728   4.755
20006WAT     H260261   4.652   2.818   4.855
20007WAT      O60262   3.331   3.734   8.570
20007WAT     H160263   3.281   3.768   8.490
20007WAT     H260264   3.362   3.641   8.553
20008WAT      O60265   0.381   9.735   2.244
20008WAT     H160266   0.354   9.641   2.266
20008WAT     H260267   0.423   9.737   2.154
20009WAT      O60268   1.260   9.517   3.256
20009WAT     H160269   1.207   9.600   3.242
20009WAT     H260270   1.348   9.524   3.208
20010WAT      O60271   7.501   9.673   6.638
20010WAT     H160272   7.584   9.631   6.675
20010WAT     H260273   7.438   9.601   6.607
20011WAT      O60274   0.470   4.126   9.851
20011WAT     H160275   0.470   4.048   9.788
20011WAT     H260276   0.497   4.208   9.802
20012WAT      O60277   7.465   7.464   8.141
20012WAT     H160278   7.370   7.431   8.136
20012WAT     H260279   7.491   7.502   8.053
20013WAT      O60280   9.038   3.235   3.178
20013WAT     H160281   8.999   3.290   3.104
20013WAT     H260282   9.084   3.156   3.140
20014WAT      O60283   8.914   5.130   2.376
20014WAT     H160284   8.997   5.075   2.386
20014WAT     H260285   8.840   5.073   2.341
20015WAT      O60286   0.670   2.955   9.120
20015WAT     H160287   0.720   2.871   9.098
20015WAT     H260288   0.734   3.031   9.131
20016WAT      O60289   8.721   8.690   2.136
20016WAT     H160290   8.700   8.621   2.067
20016WAT     H260291   8.644   8.753   2.145
20017WAT      O60292   0.819   6.112   2.017
20017WAT     H160293   0.784   6.063   2.097
20017WAT     H260294   0.919   6.103   2.013
20018WAT      O60295   1.679   8.516   1.899
20018WAT     H160296   1.643   8.508   1.991
20018WAT     H260297   1.684   8.613   1.873
20019WAT      O60298   6.625   6.433   1.735
20019WAT     H160299   6.674   6.517   1.714
20019WAT     H260300   6.671   6.356   1.691
20020WAT      O60301   9.422   2.919   1.766
20020WAT     H160302   9.505   2.964   1.799
20020WAT     H260303   9.445   2.850   1.698
20021WAT      O60304   1.420   1.093   4.765
20021WAT     H160305   1.379   1.113   4.676
20021WAT     H260306   1.396   1.000   4.792
20022WAT      O60307   0.283   8.045   0.116
20022WAT     H160308   0.295   7.953   0.078
20022WAT     H260309   0.255   8.038   0.212
20023WAT      O60310   7.504   8.240   9.863
20023WAT     H160311   7.521   8.263   9.768
20023WAT     H260312   7.540   8.148   9.882
20024WAT      O60313   8.419   9.060   6.540
20024WAT     H160314   8.331   9.064   6.493
20024WAT     H260315   8.459   8.969   6.528
20025WAT      O60316   2.329   8.160   1.946
20025WAT     H160317   2.398   8.099   1.908
20025WAT     H260318   2.279   8.112   2.019
20026WAT      O60319   4.949   8.980   9.013
20026WAT     H160320   4.940   9.045   9.089
20026WAT     H260321   4.888   8.903   9.028
20027WAT      O60322   4.809   6.006   9.574
20027WAT     H160323   4.902   6.022   9.607
20027WAT     H260324   4.760   5.947   9.639
20028WAT      O60325   9.320   1.804   1.717
20028WAT     H160326   9.235   1.823   1.667
20028WAT     H260327   9.309   1.719   1.770
20029WAT      O60328   4.852   9.630   6.601
20029WAT     H160329   4.789   9.555   6.580
20029WAT     H260330   4.940   9.592   6.629
20030WAT      O60331   1.408   0.965   7.728
20030WAT     H160332   1.325   1.010   7.763
20030WAT     H260333   1.471   0.949   7.804
20031WAT      O60334   2.056   0.756   5.055
20031WAT     H160335   2.087   0.709   4.973
20031WAT     H260336   1.978   0.706   5.095
20032WAT      O60337   4.606   2.476   8.313
20032WAT     H160338   4.634   2.474   8.217
20032WAT     H260339   4.605   2.383   8.349
20033WAT      O60340   9.872   8.738   7.699
20033WAT     H160341   9.900   8.832   7.679
20033WAT     H260342   9.923   8.705   7.779
20034WAT      O60343   2.428   6.876   9.214
20034WAT     H160344   2.513   6.850   9.260
20034WAT     H260345   2.399   6.801   9.154
20035WAT      O60346   3.631   9.549   5.218
20035WAT     H160347   3.539   9.570   5.254
20035WAT     H260348   3.625   9.529   5.121
20036WAT      O60349   0.367   3.820   6.403
20036WAT     H160350   0.367   3.907   6.452
20036WAT     H260351   0.378   3.744   6.468
20037WAT      O60352   9.638   8.838   6.185
20037WAT     H160353   9.717   8.887   6.223
20037WAT     H260354   9.623   8.754   6.238
20038WAT      O60355   8.107   2.609   5.443
20038WAT     H160356   8.111   2.509   5.453
20038WAT     H260357   8.181   2.651   5.494
20039WAT      O60358   4.653   9.730   2.026
20039WAT     H160359   4.740   9.683   2.036
20039WAT     H260360   4.664   9.810   1.967
20040WAT      O60361   6.364   6.472   3.610
20040WAT     H160362   6.266   6.477   3.632
20040WAT     H260363   6.414   6.536   3.669
20041WAT      O60364   0.127   0.026   8.045
20041WAT     H160365   0.217  -0.008   8.073
20041WAT     H260366   0.132   0.125   8.032
20042WAT      O60367   6.899   0.456   3.497
20042WAT     H160368   6.834   0.511   3.444
20042WAT     H260369   6.991   0.469   3.459
20043WAT      O60370   0.553   9.588   0.525
20043WAT     H160371   0.599   9.666   0.568
20043WAT     H260372   0.614   9.546   0.458
20044WAT      O60373   2.289   3.431   6.541
20044WAT     H160374   2.376   3.434   6.491
20044WAT     H260375   2.307   3.404   6.636
20045WAT      O60376   5.756   1.891   6.033
20045WAT     H160377   5.671   1.912   6.081
20045WAT     H260378   5.741   1.813   5.972
20046WAT      O60379   1.384   5.587   6.465
20046WAT     H160380   1.326   5.562   6.387
20046WAT     H260381   1.479   5.563   6.445
20047WAT      O60382   1.522   0.634   2.457
20047WAT     H160383   1.429   0.602   2.439
20047WAT     H260384   1.524   0.734   2.454
20048WAT      O60385   5.108   5.953   6.709
20048WAT     H160386   5.137   6.003   6.790
20048WAT     H260387   5.009   5.961   6.698
20049WAT      O60388   6.568   6.306   8.083
20049WAT     H160389   6.479   6.329   8.043
20049WAT     H260390   6.641   6.335   8.022
20050WAT      O60391   4.140   0.225   6.655
20050WAT     H160392   4.105   0.228   6.561
20050WAT     H260393   4.075   0.175   6.713
20051WAT      O60394   3.323   7.298   5.675
20051WAT     H160395   3.374   7.328   5.594
20051WAT     H260396   3.310   7.199   5.672
20052WAT      O60397   2.341   6.351   1.833
20052WAT     H160398   2.390   6.391   1.911
20052WAT     H260399   2.352   6.411   1.753
20053WAT      O60400   9.110   4.517   5.443
20053WAT     H160401   9.040   4.507   5.372
20053WAT     H260402   9.184   4.452   5.425
20054WAT      O60403   7.511   5.185   4.788
20054WAT     H160404   7.529   5.238   4.705
20054WAT     H260405   7.523   5.244   4.868
20055WAT      O60406   8.958   6.963   0.748
20055WAT     H160407   9.014   6.956   0.830
20055WAT     H260408   8.862   6.949   0.771
20056WAT      O60409   7.731   2.399   9.491
20056WAT     H160410   7.750   2.385   9.394
20056WAT     H260411   7.764   2.321   9.543
20057WAT      O60412   4.200   2.304   9.243
20057WAT     H160413   4.222   2.355   9.326
20057WAT     H260414   4.123   2.348   9.197
20058WAT      O60415   9.354   1.712   1.134
20058WAT     H160416   9.355   1.630   1.076
20058WAT     H260417   9.310   1.690   1.221
20059WAT      O60418   1.533   8.323   6.645
20059WAT     H160419   1.605   8.278   6.697
20059WAT     H260420   1.457   8.346   6.706
20060WAT      O60421   2.058   7.750   0.103
20060WAT     H160422   2.048   7.839   0.148
20060WAT     H260423   2.003   7.749   0.020
20061WAT      O60424   3.560   8.494   9.183
20061WAT     H160425   3.642   8.436   9.184
20061WAT     H260426   3.493   8.456   9.120
20062WAT      O60427   0.880   2.347   8.591
20062WAT     H160428   0.876   2.446   8.603
20062WAT     H260429   0.848   2.323   8.499
20063WAT      O60430   8.427   3.980   4.905
20063WAT     H160431   8.443   3.934   4.992
20063WAT     H260432   8.343   4.033   4.911
20064WAT      O60433   6.499   0.434   4.178
20064WAT     H160434   6.460   0.379   4.105
20064WAT     H260435   6.534   0.375   4.250
20065WAT      O60436   2.222   7.932   5.722
20065WAT     H160437   2.146   7.908   5.661
20065WAT     H260438   2.236   7.859   5.788
20066WAT      O60439   6.416   9.416   7.449
20066WAT     H160440   6.433   9.323   7.483
20066WAT     H260441   6.347   9.459   7.506
20067WAT      O60442   0.416   0.563   3.424
20067WAT     H160443   0.345   0.521   3.366
20067WAT     H260444   0.461   0.492   3.478
20068WAT      O60445   6.114   7.947   8.453
20068WAT     H160446   6.092   8.006   8.376
20068WAT     H260447   6.204   7.904   8.438
20069WAT      O60448   7.238   9.720   7.179
20069WAT     H160449   7.232   9.811   7.220
20069WAT     H260450   7.214   9.651   7.247
20070WAT      O60451   8.635   4.460   9.385
20070WAT     H160452   8.683   4.379   9.418
20070WAT     H260453   8.666   4.482   9.292
20071WAT      O60454   8.679   1.302   6.163
20071WAT     H160455   8.682   1.260   6.254
20071WAT     H260456   8.748   1.374   6.158
20072WAT      O60457   1.544   0.995   6.120
20072WAT     H160458   1.638   1.010   6.150
20072WAT     H260459   1.543   0.968   6.024
20073WAT      O60460   2.483   2.976   5.328
20073WAT     H160461   2.549   2.905   5.355
20073WAT     H260462   2.529   3.065   5.325
20074WAT      O60463   8.533   6.295   6.929
20074WAT     H160464   8.520   6.341   6.841
20074WAT     H260465   8.493   6.351   7.002
20075WAT      O60466   5.022   8.517   5.952
20075WAT     H160467   5.058   8.427   5.976
20075WAT     H260468   5.047   8.584   6.022
20076WAT      O60469   4.205   1.607   2.710
20076WAT     H160470   4.133   1.557   2.757
20076WAT     H260471   4.263   1.543   2.660
20077WAT      O60472   7.704   8.103   7.230
20077WAT     H160473   7.779   8.161   7.198
20077WAT     H260474   7.637   8.091   7.157
20078WAT      O60475   2.019   3.378   1.979
20078WAT     H160476   2.025   3.280   1.965
20078WAT     H260477   2.091   3.424   1.926
20079WAT      O60478   7.372   7.023   2.535
20079WAT     H160479   7.367   7.069   2.624
20079WAT     H260480   7.468   7.012   2.509
20080WAT      O60481   5.126   3.139   8.739
20080WAT     H160482   5.060   3.067   8.759
20080WAT     H260483   5.097   3.223   8.785
20081WAT      O60484   8.266   6.883   1.363
20081WAT     H160485   8.280   6.960   1.300
20081WAT     H260486   8.309   6.903   1.451
20082WAT      O60487   4.952   4.590   6.858
20082WAT     H160488   4.995   4.587   6.768
20082WAT     H260489   5.021   4.614   6.927
20083WAT      O60490   1.460   3.772   3.461
20083WAT     H160491   1.518   3.849   3.487
20083WAT     H260492   1.480   3.746   3.366
20084WAT      O60493   5.469   0.502   2.569
20084WAT     H160494   5.431   0.445   2.497
20084WAT     H260495   5.397   0.560   2.608
20085WAT      O60496   7.668   8.121   4.712
20085WAT     H160497   7.615   8.200   4.745
20085WAT     H260498   7.764   8.147   4.702
20086WAT      O60499   0.399   5.782   2.953
20086WAT     H160500   0.374   5.686   2.964
20086WAT     H260501   0.398   5.827   3.043
20087WAT      O60502   2.228   7.183   5.667
20087WAT     H160503   2.229   7.123   5.748
20087WAT     H260504   2.317   7.178   5.621
20088WAT      O60505   1.954   7.814   3.259
20088WAT     H160506   1.965   7.776   3.351
20088WAT     H260507   2.043   7.817   3.213
20089WAT      O60508   9.047   0.131   9.186
20089WAT     H160509   8.975   0.064   9.207
20089WAT     H260510   9.076   0.119   9.091
20090WAT      O60511   8.646   0.870   6.218
20090WAT     H160512   8.564   0.820   6.245
20090WAT     H260513   8.620   0.954   6.170
20091WAT      O60514   2.573   1.090   3.126
20091WAT     H160515   2.568   1.184   3.158
20091WAT     H260516   2.604   1.031   3.201
20092WAT      O60517   6.798   2.133   9.050
20092WAT     H160518   6.783   2.090   9.139
20092WAT     H260519   6.893   2.116   9.021
20093WAT      O60520   1.764   4.129   3.225
20093WAT     H160521   1.821   4.158   3.149
20093WAT     H260522   1.668   4.133   3.199
20094WAT      O60523   3.814   3.410   3.592
20094WAT     H160524   3.814   3.317   3.557
20094WAT     H260525   3.878   3.466   3.540
20095WAT      O60526   3.618   1.595   1.201
20095WAT     H160527   3.692   1.642   1.152
20095WAT     H260528   3.650   1.567   1.291
20096WAT      O60529   7.948   6.219   7.111
20096WAT     H160530   7.950   6.224   7.011
20096WAT     H260531   7.901   6.135   7.139
20097WAT      O60532   3.743   3.975   0.492
20097WAT     H160533   3.778   4.034   0.565
20097WAT     H260534   3.783   3.884   0.500
20098WAT      O60535   7.687   2.582   1.020
20098WAT     H160536   7.715   2.496   1.062
20098WAT     H260537   7.642   2.640   1.089
20099WAT      O60538   4.495   2.760   7.239
20099WAT     H160539   4.447   2.822   7.177
20099WAT     H260540   4.593   2.780   7.236
20100WAT      O60541   4.325   8.021   4.274
20100WAT     H160542   4.386   8.022   4.195
20100WAT     H260543   4.261   8.097   4.267
20101WAT      O60544   8.548   6.534   7.180
20101WAT     H160545   8.565   6.564   7.274
20101WAT     H260546   8.451   6.510   7.169
20102WAT      O60547   7.104   2.436   6.977
20102WAT     H160548   7.139   2.529   6.984
20102WAT     H260549   7.118   2.402   6.884
20103WAT      O60550   0.113   3.225   4.089
20103WAT     H160551   0.061   3.270   4.161
20103WAT     H260552   0.056   3.219   4.006
20104WAT      O60553   5.745   0.093   4.359
20104WAT     H160554   5.670   0.048   4.310
20104WAT     H260555   5.709   0.139   4.440
20105WAT      O60556   0.748   0.086   8.689
20105WAT     H160557   0.793   0.127   8.768
20105WAT     H260558   0.746   0.151   8.614
20106WAT      O60559   7.243   2.879   1.808
20106WAT     H160560   7.251   2.809   1.879
20106WAT     H260561   7.162   2.861   1.753
20107WAT      O60562   9.492   5.046   3.003
20107WAT     H160563   9.579   5.043   2.954
20107WAT     H260564   9.493   4.980   3.078
20108WAT      O60565   9.411   9.368   1.916
20108WAT     H160566   9.470   9.433   1.964
20108WAT     H260567   9.383   9.296   1.979
20109WAT      O60568   9.357   3.122   2.471
20109WAT     H160569   9.419   3.052   2.508
20109WAT     H260570   9.263   3.090   2.478
20110WAT      O60571   7.259   5.555   4.280
20110WAT     H160572   7.277   5.653   4.278
20110WAT     H260573   7.329   5.507   4.227
20111WAT      O60574   1.539   1.609   8.741
20111WAT     H160575   1.469   1.617   8.813
20111WAT     H260576   1.517   1.532   8.681
20112WAT      O60577   3.714   1.697   9.712
20112WAT     H160578   3.764   1.667   9.631
20112WAT     H260579   3.765   1.672   9.794
20113WAT      O60580   5.913   2.024   5.301
20113WAT     H160581   6.001   1.978   5.287
20113WAT     H260582   5.928   2.123   5.310
20114WAT      O60583   2.727   2.675   7.798
20114WAT     H160584   2.766   2.717   7.880
20114WAT     H260585   2.788   2.603   7.766
20115WAT      O60586   0.208   0.848   2.734
20115WAT     H160587   0.299   0.834   2.695
20115WAT     H260588   0.217   0.869   2.832
20116WAT      O60589   7.797   0.595   6.471
20116WAT     H160590   7.770   0.501   6.491
20116WAT     H260591   7.717   0.648   6.441
20117WAT      O60592   4.526   5.341   6.083
20117WAT     H160593   4.518   5.424   6.028
20117WAT     H260594   4.476   5.267   6.039
20118WAT      O60595   2.685   7.038   9.359
20118WAT     H160596   2.690   6.944   9.324
20118WAT     H260597   2.595   7.055   9.398
20119WAT      O60598   3.347   3.253   8.124
20119WAT     H160599   3.307   3.301   8.046
20119WAT     H260600   3.322   3.156   8.120
20120WAT      O60601   0.593   3.875   5.306
20120WAT     H160602   0.573   3.972   5.322
20120WAT     H260603   0.544   3.844   5.225
20121WAT      O60604   3.597   3.494   8.795
20121WAT     H160605   3.646   3.416   8.833
20121WAT     H260606   3.571   3.474   8.700
20122WAT      O60607   5.538   8.412   8.318
20122WAT     H160608   5.564   8.448   8.229
20122WAT     H260609   5.512   8.487   8.379
20123WAT      O60610   5.659   7.488   6.217
20123WAT     H160611   5.583   7.435   6.255
20123WAT     H260612   5.644   7.585   6.236
20124WAT      O60613   9.619   8.761   2.544
20124WAT     H160614   9.705   8.770   2.494
20124WAT     H260615   9.567   8.846   2.536
20125WAT      O60616   6.682   7.516   5.021
20125WAT     H160617   6.765   7.522   4.966
20125WAT     H260618   6.699   7.459   5.102
20126WAT      O60619   3.357   4.062   6.039
20126WAT     H160620   3.375   4.144   6.094
20126WAT     H260621   3.384   4.079   5.944
20127WAT      O60622   2.717   3.959   8.916
20127WAT     H160623   2.762   3.926   8.999
20127WAT     H260624   2.761   4.044   8.887
20128WAT      O60625   5.633   1.156   2.847
20128WAT     H160626   5.537   1.184   2.845
20128WAT     H260627   5.639   1.058   2.868
20129WAT      O60628   0.391   1.666   8.894
20129WAT     H160629   0.346   1.612   8.823
20129WAT     H260630   0.352   1.643   8.983
20130WAT      O60631   3.564   9.329   3.384
20130WAT     H160632   3.555   9.332   3.484
20130WAT     H260633   3.646   9.277   3.360
20131WAT      O60634   9.172   5.330   2.270
20131WAT     H160635   9.117   5.360   2.348
20131WAT     H260636   9.243   5.267   2.301
20132WAT      O60637   0.460   5.525   2.140
20132WAT     H160638   0.476   5.436   2.097
20132WAT     H260639   0.438   5.593   2.070
20133WAT      O60640   8.447   1.125   5.269
20133WAT     H160641   8.499   1.058   5.215
20133WAT     H260642   8.450   1.213   5.223
20134WAT      O60643   2.875   0.403   0.385
20134WAT     H160644   2.869   0.380   0.288
20134WAT     H260645   2.810   0.477   0.405
20135WAT      O60646   0.752   5.602   1.456
20135WAT     H160647   0.824   5.532   1.464
20135WAT     H260648   0.665   5.558   1.437
20136WAT      O60649   5.320   4.780   5.608
20136WAT     H160650   5.368   4.856   5.565
20136WAT     H260651   5.247   4.815   5.666
20137WAT      O60652   3.066   8.608   0.806
20137WAT     H160653   3.052   8.588   0.903
20137WAT     H260654   3.162   8.589   0.783
20138WAT      O60655   8.874   1.288   7.218
20138WAT     H160656   8.938   1.295   7.141
20138WAT     H260657   8.859   1.191   7.240
20139WAT      O60658   9.229   6.668   0.590
20139WAT     H160659   9.143   6.619   0.579
20139WAT     H260660   9.305   6.604   0.590
20140WAT      O60661   2.774   8.727   2.581
20140WAT     H160662   2.822   8.805   2.543
20140WAT     H260663   2.751   8.663   2.508
20141WAT      O60664   0.987   0.623   5.449
20141WAT     H160665   1.063   0.650   5.507
20141WAT     H260666   0.904   0.669   5.479
20142WAT      O60667   1.476   9.675   5.312
20142WAT     H160668   1.549   9.741   5.333
20142WAT     H260669   1.399   9.723   5.270
20143WAT      O60670   2.640   2.179   9.781
20143WAT     H160671   2.602   2.263   9.744
20143WAT     H260672   2.566   2.113   9.796
20144WAT      O60673   0.330   2.388   1.565
20144WAT     H160674   0.413   2.427   1.607
20144WAT     H260675   0.265   2.365   1.637
20145WAT      O60676   2.322   6.368   9.315
20145WAT     H160677   2.295   6.304   9.242
20145WAT     H260678   2.297   6.461   9.289
20146WAT      O60679   1.269   7.136   3.373
20146WAT     H160680   1.304   7.140   3.280
20146WAT     H260681   1.328   7.079   3.429
20147WAT      O60682   6.196   5.619   1.888
20147WAT     H160683   6.282   5.661   1.861
20147WAT     H260684   6.158   5.568   1.811
20148WAT      O60685   6.821   2.908   1.426
20148WAT     H160686   6.836   2.983   1.363
20148WAT     H260687   6.782   2.830   1.376
20149WAT      O60688   0.090   8.382   4.001
20149WAT     H160689   0.145   8.336   4.071
20149WAT     H260690   0.080   8.479   4.024
20150WAT      O60691   4.812   5.082   8.355
20150WAT     H160692   4.810   4.989   8.318
20150WAT     H260693   4.731   5.096   8.412
20151WAT      O60694   2.946   6.274   0.588
20151WAT     H160695   2.859   6.250   0.545
20151WAT     H260696   3.001   6.327   0.523
20152WAT      O60697   5.026   5.358   2.192
20152WAT     H160698   5.118   5.397   2.193
20152WAT     H260699   4.969   5.407   2.259
20153WAT      O60700   2.316   0.432   1.790
20153WAT     H160701   2.332   0.334   1.775
20153WAT     H260702   2.322   0.452   1.888
20154WAT      O60703   8.287   1.621   1.855
20154WAT     H160704   8.259   1.664   1.769
20154WAT     H260705   8.206   1.588   1.904
20155WAT      O60706   8.019   7.247   1.099
20155WAT     H160707   8.005   7.344   1.078
20155WAT     H260708   7.968   7.191   1.034
20156WAT      O60709   2.584   7.587   5.167
20156WAT     H160710   2.680   7.589   5.195
20156WAT     H260711   2.578   7.591   5.068
20157WAT      O60712   9.130   5.456   6.682
20157WAT     H160713   9.044   5.504   6.699
20157WAT     H260714   9.171   5.431   6.770
20158WAT      O60715   6.442   2.928   2.241
20158WAT     H160716   6.522   2.988   2.237
20158WAT     H260717   6.420   2.896   2.148
20159WAT      O60718   9.167   1.506   6.235
20159WAT     H160719   9.205   1.578   6.294
20159WAT     H260720   9.213   1.508   6.146
20160WAT      O60721   8.250   9.532   8.290
20160WAT     H160722   8.238   9.456   8.353
20160WAT     H260723   8.164   9.583   8.283
20161WAT      O60724   9.029   9.821   0.856
20161WAT     H160725   9.061   9.774   0.938
20161WAT     H260726   8.976   9.758   0.799
20162WAT      O60727   2.009   4.671   7.791
20162WAT     H160728   2.011   4.744   7.723
20162WAT     H260729   1.950   4.597   7.758
20163WAT      O60730   0.841   0.765   7.012
20163WAT     H160731   0.926   0.766   7.065
20163WAT     H260732   0.851   0.822   6.931
20164WAT      O60733   9.316   8.411   0.184
20164WAT     H160734   9.327   8.501   0.142
20164WAT     H260735   9.406   8.370   0.200
20165WAT      O60736   8.429   2.420   6.211
20165WAT     H160737   8.341   2.442   6.169
20165WAT     H260738   8.415   2.390   6.305
20166WAT      O60739   3.094   5.067   8.295
20166WAT     H160740   3.105   5.166   8.282
20166WAT     H260741   3.149   5.018   8.228
20167WAT      O60742   5.238   1.487   7.309
20167WAT     H160743   5.325   1.512   7.350
20167WAT     H260744   5.232   1.388   7.301
20168WAT      O60745   3.626   7.251   0.041
20168WAT     H160746   3.593   7.292  -0.044
20168WAT     H260747   3.587   7.159   0.051
20169WAT      O60748   1.537   4.281   7.934
20169WAT     H160749   1.479   4.290   7.853
20169WAT     H260750   1.620   4.335   7.922
20170WAT      O60751   4.567   5.262   3.976
20170WAT     H160752   4.582   5.333   3.907
20170WAT     H260753   4.534   5.179   3.931
20171WAT      O60754   6.513   8.705   2.482
20171WAT     H160755   6.574   8.756   2.421
20171WAT     H260756   6.431   8.679   2.431
20172WAT      O60757   2.291   1.023   4.060
20172WAT     H160758   2.304   0.994   3.965
20172WAT     H260759   2.362   0.981   4.117
20173WAT      O60760   8.022   6.169   2.346
20173WAT     H160761   8.045   6.261   2.378
20173WAT     H260762   7.929   6.146   2.375
20174WAT      O60763   3.634   4.514   5.858
20174WAT     H160764   3.604   4.423   5.830
20174WAT     H260765   3.665   4.565   5.778
20175WAT      O60766   2.702   8.688   5.443
20175WAT     H160767   2.755   8.703   5.359
20175WAT     H260768   2.621   8.634   5.422
20176WAT      O60769   6.726   1.043   6.474
20176WAT     H160770   6.794   0.978   6.508
20176WAT     H260771   6.697   1.104   6.547
20177WAT      O60772   2.387   4.354   8.375
20177WAT     H160773   2.380   4.271   8.431
20177WAT     H260774   2.301   4.368   8.325
20178WAT      O60775   2.035   0.396   2.905
20178WAT     H160776   2.041   0.443   2.817
20178WAT     H260777   1.939   0.383   2.929
20179WAT      O60778   2.122   5.790   2.983
20179WAT     H160779   2.106   5.721   2.913
20179WAT     H260780   2.166   5.747   3.062
20180WAT      O60781   1.858   1.557   0.413
20180WAT     H160782   1.882   1.460   0.409
20180WAT     H260783   1.831   1.581   0.506
20181WAT      O60784   8.152   3.022   0.602
20181WAT     H160785   8.153   2.937   0.550
20181WAT     H260786   8.121   3.004   0.695
20182WAT      O60787   7.686   7.180   0.318
20182WAT     H160788   7.679   7.280   0.307
20182WAT     H260789   7.782   7.152   0.314
20183WAT      O60790   2.409   0.129   9.023
20183WAT     H160791   2.430   0.144   9.120
20183WAT     H260792   2.460   0.195   8.968
20184WAT      O60793   0.735   2.185   5.017
20184WAT     H160794   0.802   2.137   4.960
20184WAT     H260795   0.782   2.239   5.086
20185WAT      O60796   5.111   3.883   7.120
20185WAT     H160797   5.118   3.783   7.108
20185WAT     H260798   5.035   3.918   7.065
20186WAT      O60799   1.515   0.153   7.560
20186WAT     H160800   1.580   0.088   7.521
20186WAT     H260801   1.518   0.148   7.660
20187WAT      O60802   8.849   5.490   0.790
20187WAT     H160803   8.912   5.454   0.722
20187WAT     H260804   8.866   5.587   0.804
20188WAT      O60805   6.248   2.331   1.136
20188WAT     H160806   6.343   2.323   1.167
20188WAT     H260807   6.247   2.363   1.041
20189WAT      O60808   3.175   1.473   9.814
20189WAT     H160809   3.273   1.472   9.795
20189WAT     H260810   3.160   1.491   9.911
20190WAT      O60811   2.037   1.756   7.660
20190WAT     H160812   2.031   1.818   7.582
20190WAT     H260813   2.085   1.673   7.633
20191WAT      O60814   9.133   0.132   2.017
20191WAT     H160815   9.185   0.217   2.017
20191WAT     H260816   9.157   0.078   2.097
20192WAT      O60817   0.114   9.441   8.611
20192WAT     H160818   0.184   9.393   8.663
20192WAT     H260819   0.080   9.381   8.538
20193WAT      O60820   7.872   3.758   2.143
20193WAT     H160821   7.787   3.705   2.144
20193WAT     H260822   7.860   3.841   2.197
20194WAT      O60823   1.869   2.196   9.589
20194WAT     H160824   1.884   2.295   9.583
20194WAT     H260825   1.947   2.154   9.635
20195WAT      O60826   2.834   8.291   4.063
20195WAT     H160827   2.774   8.368   4.083
20195WAT     H260828   2.899   8.279   4.138
20196WAT      O60829   3.561   9.391   3.006
20196WAT     H160830   3.627   9.466   2.995
20196WAT     H260831   3.605   9.314   3.052
20197WAT      O60832   8.099   6.303   5.310
20197WAT     H160833   8.144   6.284   5.397
20197WAT     H260834   8.166   6.341   5.246
20198WAT      O60835   7.962   4.579   3.720
20198WAT     H160836   7.909   4.661   3.738
20198WAT     H260837   8.053   4.604   3.687
20199WAT      O60838   4.840   1.865   6.976
20199WAT     H160839   4.894   1.878   7.059
20199WAT     H260840   4.872   1.783   6.928
20200WAT      O60841   7.239   0.363   7.583
20200WAT     H160842   7.145   0.398   7.589
20200WAT     H260843   7.303   0.439   7.577
20201WAT      O60844   3.982   6.422   0.924
20201WAT     H160845   3.965   6.338   0.872
20201WAT     H260846   3.909   6.488   0.905
20202WAT      O60847   8.187   2.347   4.451
20202WAT     H160848   8.263   2.287   4.476
20202WAT     H260849   8.208   2.394   4.365
20203WAT      O60850   4.947   3.915   8.764
20203WAT     H160851   5.038   3.954   8.759
20203WAT     H260852   4.893   3.945   8.685
20204WAT      O60853   3.701   4.307   8.762
20204WAT     H160854   3.654   4.242   8.703
20204WAT     H260855   3.673   4.292   8.857
20205WAT      O60856   3.680   7.826   9.059
20205WAT     H160857   3.601   7.882   9.035
20205WAT     H260858   3.651   7.731   9.069
20206WAT      O60859   1.812   1.634   0.687
20206WAT     H160860   1.830   1.537   0.706
20206WAT     H260861   1.713   1.650   0.686
20207WAT      O60862   8.988   7.940   8.532
20207WAT     H160863   8.957   7.851   8.564
20207WAT     H260864   8.916   7.983   8.477
20208WAT      O60865   3.324   8.336   4.297
20208WAT     H160866   3.353   8.348   4.392
20208WAT     H260867   3.405   8.324   4.239
20209WAT      O60868   4.290   8.027   9.006
20209WAT     H160869   4.245   8.115   8.995
20209WAT     H260870   4.351   8.011   8.929
20210WAT      O60871   0.595   2.347   9.678
20210WAT     H160872   0.529   2.305   9.615
20210WAT     H260873   0.685   2.350   9.635
20211WAT      O60874   7.217   4.507   4.058
20211WAT     H160875   7.298   4.450   4.072
20211WAT     H260876   7.179   4.534   4.146
20212WAT      O60877   6.163   4.980   1.913
20212WAT     H160878   6.216   4.978   1.828
20212WAT     H260879   6.077   4.930   1.900
20213WAT      O60880   5.340   1.507   0.036
20213WAT     H160881   5.336   1.589  -0.022
20213WAT     H260882   5.331   1.534   0.132
20214WAT      O60883   2.941   3.176   3.696
20214WAT     H160884   3.005   3.207   3.767
20214WAT     H260885   2.855   3.148   3.739
20215WAT      O60886   8.147   3.071   1.079
20215WAT     H160887   8.220   3.020   1.126
20215WAT     H260888   8.151   3.167   1.104
20216WAT      O60889   4.692   4.655   6.980
20216WAT     H160890   4.628   4.727   6.953
20216WAT     H260891   4.752   4.634   6.903
20217WAT      O60892   3.169   5.863   2.628
20217WAT     H160893   3.189   5.776   2.583
20217WAT     H260894   3.152   5.848   2.726
20218WAT      O60895   8.408   3.496   7.511
20218WAT     H160896   8.470   3.470   7.584
20218WAT     H260897   8.439   3.582   7.470
20219WAT      O60898   8.302   8.625   1.771
20219WAT     H160899   8.288   8.613   1.673
20219WAT     H260900   8.294   8.536   1.817
20220WAT      O60901   3.246   9.432   4.832
20220WAT     H160902   3.272   9.419   4.737
20220WAT     H260903   3.150   9.405   4.845
20221WAT      O60904   1.566   8.607   5.049
20221WAT     H160905   1.566   8.565   5.140
20221WAT     H260906   1.647   8.665   5.039
20222WAT      O60907   4.727   2.978   1.707
20222WAT     H160908   4.814   3.025   1.718
20222WAT     H260909   4.652   3.044   1.715
20223WAT      O60910   0.564   7.856   6.596
20223WAT     H160911   0.560   7.823   6.691
20223WAT     H260912   0.634   7.805   6.546
20224WAT      O60913   0.460   0.209   7.033
20224WAT     H160914   0.404   0.187   7.114
20224WAT     H260915   0.513   0.129   7.007
20225WAT      O60916   0.097   0.385   1.950
20225WAT     H160917   0.175   0.441   1.923
20225WAT     H260918   0.052   0.427   2.029
20226WAT      O60919   8.710   2.561   9.166
20226WAT     H160920   8.716   2.526   9.073
20226WAT     H260921   8.738   2.490   9.230
20227WAT      O60922   2.219   6.778   2.151
20227WAT     H160923   2.206   6.679   2.152
20227WAT     H260924   2.133   6.823   2.173
20228WAT      O60925   3.404   2.623   1.199
20228WAT     H160926   3.447   2.573   1.274
20228WAT     H260927   3.433   2.719   1.202
20229WAT      O60928   9.027   5.398   9.338
20229WAT     H160929   9.086   5.406   9.258
20229WAT     H260930   9.015   5.302   9.362
20230WAT      O60931   3.555   4.168   0.188
20230WAT     H160932   3.504   4.166   0.101
20230WAT     H260933   3.510   4.109   0.254
20231WAT      O60934   8.902   7.671   5.437
20231WAT     H160935   8.890   7.639   5.343
20231WAT     H260936   8.908   7.771   5.437
20232WAT      O60937   4.670   8.004   8.129
20232WAT     H160938   4.599   8.073   8.115
20232WAT     H260939   4.631   7.913   8.112
20233WAT      O60940   3.643   1.645   4.406
20233WAT     H160941   3.596   1.569   4.361
20233WAT     H260942   3.611   1.732   4.368
20234WAT      O60943   0.466   6.500   7.871
20234WAT     H160944   0.487   6.405   7.891
20234WAT     H260945   0.542   6.541   7.821
20235WAT      O60946   3.457   6.427   4.482
20235WAT     H160947   3.491   6.378   4.401
20235WAT     H260948   3.516   6.406   4.560
20236WAT      O60949   8.665   5.528   2.089
20236WAT     H160950   8.724   5.456   2.126
20236WAT     H260951   8.716   5.579   2.019
20237WAT      O60952   5.518   5.030   6.800
20237WAT     H160953   5.617   5.035   6.817
20237WAT     H260954   5.502   5.017   6.702
20238WAT      O60955   1.051   2.484   3.418
20238WAT     H160956   1.000   2.569   3.401
20238WAT     H260957   1.144   2.493   3.382
20239WAT      O60958   4.137   8.515   3.510
20239WAT     H160959   4.158   8.588   3.445
20239WAT     H260960   4.103   8.555   3.595
20240WAT      O60961   6.455   6.902   3.764
20240WAT     H160962   6.363   6.889   3.727
20240WAT     H260963   6.453   6.974   3.833
20241WAT      O60964   4.386   4.295   3.918
20241WAT     H160965   4.485   4.286   3.922
20241WAT     H260966   4.346   4.268   4.006
20242WAT      O60967   5.965   8.547   4.720
20242WAT     H160968   5.891   8.612   4.704
20242WAT     H260969   5.985   8.497   4.636
20243WAT      O60970   2.775   7.688   4.069
20243WAT     H160971   2.834   7.769   4.077
20243WAT     H260972   2.705   7.692   4.140
20244WAT      O60973   4.116   4.884   6.762
20244WAT     H160974   4.067   4.830   6.694
20244WAT     H260975   4.208   4.848   6.773
20245WAT      O60976   2.522   0.537   0.718
20245WAT     H160977   2.498   0.442   0.696
20245WAT     H260978   2.591   0.537   0.791
20246WAT      O60979   5.467   7.402   2.514
20246WAT     H160980   5.418   7.487   2.529
20246WAT     H260981   5.417   7.326   2.556
20247WAT      O60982   4.964   1.016   3.021
20247WAT     H160983   4.958   0.926   3.064
20247WAT     H260984   4.896   1.023   2.948
20248WAT      O60985   5.310   2.663   7.100
20248WAT     H160986   5.359   2.729   7.042
20248WAT     H260987   5.228   2.632   7.052
20249WAT      O60988   2.940   6.095   5.176
20249WAT     H160989   2.894   6.007   5.187
20249WAT     H260990   3.038   6.080   5.161
20250WAT      O60991   3.971   6.008   2.707
20250WAT     H160992   3.995   5.972   2.797
20250WAT     H260993   4.051   6.005   2.647
20251WAT      O60994   1.376   2.446   5.034
20251WAT     H160995   1.319   2.528   5.029
20251WAT     H260996   1.361   2.389   4.953
20252WAT      O60997   2.426   4.529   5.728
20252WAT     H160998   2.385   4.533   5.637
20252WAT     H260999   2.466   4.618   5.750
20253WAT      O61000   9.205   4.979   6.616
20253WAT     H161001   9.234   4.946   6.706
20253WAT     H261002   9.281   4.970   6.551
20254WAT      O61003   7.362   6.049   5.926
20254WAT     H161004   7.418   6.085   5.852
20254WAT     H261005   7.377   5.951   5.934
20255WAT      O61006   3.305   2.757   0.805
20255WAT     H161007   3.327   2.804   0.890
20255WAT     H261008   3.326   2.816   0.727
20256WAT      O61009   0.924   8.017   8.450
20256WAT     H161010   0.845   7.958   8.466
20256WAT     H261011   0.927   8.044   8.354
20257WAT      O61012   1.402   5.361   1.482
20257WAT     H161013   1.500   5.342   1.482
20257WAT     H261014   1.356   5.297   1.421
20258WAT      O61015   3.032   4.311   5.931
20258WAT     H161016   3.044   4.366   6.013
20258WAT     H261017   3.094   4.342   5.859
20259WAT      O61018   7.461   8.712   5.450
20259WAT     H161019   7.440   8.762   5.366
20259WAT     H261020   7.508   8.773   5.514
20260WAT      O61021   9.284   1.058   6.330
20260WAT     H161022   9.206   1.081   6.271
20260WAT     H261023   9.340   0.988   6.286
20261WAT      O61024   6.687   6.128   4.303
20261WAT     H161025   6.610   6.122   4.367
20261WAT     H261026   6.689   6.219   4.262
20262WAT      O61027   7.418   1.071   3.183
20262WAT     H161028   7.515   1.093   3.193
20262WAT     H261029   7.408   0.998   3.116
20263WAT      O61030   9.209   9.500   7.393
20263WAT     H161031   9.242   9.546   7.310
20263WAT     H261032   9.173   9.410   7.369
20264WAT      O61033   9.755   1.373   8.846
20264WAT     H161034   9.779   1.454   8.793
20264WAT     H261035   9.765   1.291   8.789
20265WAT      O61036   0.048   8.449   1.622
20265WAT     H161037   0.141   8.486   1.616
20265WAT     H261038   0.051   8.350   1.629
20266WAT      O61039   7.312   3.894   6.090
20266WAT     H161040   7.283   3.989   6.101
20266WAT     H261041   7.405   3.891   6.053
20267WAT      O61042   0.335   7.126   0.100
20267WAT     H161043   0.305   7.219   0.123
20267WAT     H261044   0.279   7.090   0.026
20268WAT      O61045   4.956   1.463   1.086
20268WAT     H161046   5.004   1.545   1.054
20268WAT     H261047   4.862   1.487   1.111
20269WAT      O61048   2.452   2.270   2.121
20269WAT     H161049   2.357   2.298   2.139
20269WAT     H261050   2.482   2.307   2.034
20270WAT      O61051   3.151   3.823   2.241
20270WAT     H161052   3.225   3.833   2.307
20270WAT     H261053   3.074   3.776   2.284
20271WAT      O61054   0.188   5.578   2.781
20271WAT     H161055   0.182   5.648   2.710
20271WAT     H261056   0.159   5.490   2.743
20272WAT      O61057   8.437   1.401   1.218
20272WAT     H161058   8.466   1.415   1.312
20272WAT     H261059   8.433   1.303   1.198
20273WAT      O61060   7.918   7.079   4.886
20273WAT     H161061   7.945   6.998   4.834
20273WAT     H261062   7.874   7.050   4.971
20274WAT      O61063   3.106   2.235   9.082
20274WAT     H161064   3.139   2.274   9.168
20274WAT     H261065   3.019   2.279   9.057
20275WAT      O61066   8.982   0.143   6.508
20275WAT     H161067   8.999   0.136   6.410
20275WAT     H261068   9.056   0.098   6.558
20276WAT      O61069   6.518   4.554   5.142
20276WAT     H161070   6.544   4.544   5.238
20276WAT     H261071   6.548   4.644   5.109
20277WAT      O61072   1.502   7.177   5.392
20277WAT     H161073   1.482   7.248   5.324
20277WAT     H261074   1.588   7.197   5.437
20278WAT      O61075   7.772   9.068   1.425
20278WAT     H161076   7.844   8.999   1.424
20278WAT     H261077   7.809   9.155   1.457
20279WAT      O61078   7.553   9.018   0.468
20279WAT     H161079   7.592   9.071   0.543
20279WAT     H261080   7.565   9.067   0.382
20280WAT      O61081   3.631   1.906   0.049
20280WAT     H161082   3.684   1.861  -0.022
20280WAT     H261083   3.543   1.936   0.012
20281WAT      O61084   1.918   1.585   3.708
20281WAT     H161085   1.990   1.642   3.747
20281WAT     H261086   1.956   1.498   3.677
20282WAT      O61087   0.862   9.122   2.380
20282WAT     H161088   0.901   9.030   2.370
20282WAT     H261089   0.777   9.129   2.327
20283WAT      O61090   2.895   6.701   2.409
20283WAT     H161091   2.817   6.762   2.420
20283WAT     H261092   2.864   6.607   2.399
20284WAT      O61093   5.682   3.809   1.594
20284WAT     H161094   5.673   3.803   1.694
20284WAT     H261095   5.696   3.718   1.556
20285WAT      O61096   0.216   8.908   3.247
20285WAT     H161097   0.123   8.875   3.227
20285WAT     H261098   0.236   8.891   3.344
20286WAT      O61099   4.949   2.494   8.132
20286WAT     H161100   4.943   2.413   8.190
20286WAT     H261101   4.971   2.574   8.187
20287WAT      O61102   5.453   6.596   0.734
20287WAT     H161103   5.375   6.643   0.692
20287WAT     H261104   5.523   6.580   0.665
20288WAT      O61105   7.025   5.209   2.574
20288WAT     H161106   7.045   5.252   2.486
20288WAT     H261107   7.057   5.114   2.573
20289WAT      O61108   7.201   6.801   2.602
20289WAT     H161109   7.215   6.755   2.690
20289WAT     H261110   7.259   6.883   2.598
20290WAT      O61111   3.320   7.312   9.201
20290WAT     H161112   3.291   7.366   9.280
20290WAT     H261113   3.411   7.273   9.218
20291WAT      O61114   7.859   9.108   5.881
20291WAT     H161115   7.802   9.176   5.834
20291WAT     H261116   7.954   9.139   5.883
20292WAT      O61117   9.719   6.474   9.344
20292WAT     H161118   9.800   6.524   9.376
20292WAT     H261119   9.667   6.532   9.282
20293WAT      O61120   9.300   5.058   8.036
20293WAT     H161121   9.333   5.006   7.958
20293WAT     H261122   9.338   5.151   8.034
20294WAT      O61123   2.169   0.519   6.853
20294WAT     H161124   2.245   0.455   6.868
20294WAT     H261125   2.083   0.468   6.851
20295WAT      O61126   2.619   6.941   7.371
20295WAT     H161127   2.680   6.927   7.449
20295WAT     H261128   2.604   6.854   7.324
20296WAT      O61129   2.449   9.124   0.569
20296WAT     H161130   2.529   9.111   0.628
20296WAT     H261131   2.381   9.053   0.587
20297WAT      O61132   3.260   8.133   1.967
20297WAT     H161133   3.168   8.173   1.966
20297WAT     H261134   3.253   8.035   1.952
20298WAT      O61135   5.076   9.745   4.121
20298WAT     H161136   5.132   9.826   4.101
20298WAT     H261137   4.994   9.747   4.065
20299WAT      O61138   9.049   0.874   2.818
20299WAT     H161139   9.054   0.864   2.917
20299WAT     H261140   9.036   0.970   2.795
20300WAT      O61141   8.449   7.222   5.182
20300WAT     H161142   8.448   7.227   5.083
20300WAT     H261143   8.483   7.308   5.220
20301WAT      O61144   1.720   0.247   9.536
20301WAT     H161145   1.787   0.297   9.590
20301WAT     H261146   1.660   0.196   9.597
20302WAT      O61147   8.506   6.229   1.677
20302WAT     H161148   8.418   6.229   1.723
20302WAT     H261149   8.557   6.311   1.703
20303WAT      O61150   6.592   4.917   8.445
20303WAT     H161151   6.579   4.821   8.423
20303WAT     H261152   6.688   4.942   8.429
20304WAT      O61153   8.165   1.934   9.417
20304WAT     H161154   8.125   1.973   9.499
20304WAT     H261155   8.257   1.901   9.437
20305WAT      O61156   2.349   5.611   2.819
20305WAT     H161157   2.360   5.523   2.865
20305WAT     H261158   2.255   5.621   2.787
20306WAT      O61159   0.083   3.926   9.513
20306WAT     H161160   0.081   4.008   9.571
20306WAT     H261161   0.013   3.933   9.442
20307WAT      O61162   1.763   3.402   0.532
20307WAT     H161163   1.721   3.326   0.581
20307WAT     H261164   1.840   3.438   0.584
20308WAT      O61165   5.570   4.910   7.229
20308WAT     H161166   5.572   4.999   7.185
20308WAT     H261167   5.490   4.904   7.289
20309WAT      O61168   4.527   5.493   5.302
20309WAT     H161169   4.572   5.426   5.242
20309WAT     H261170   4.536   5.464   5.397
20310WAT      O61171   5.020   1.923   7.471
20310WAT     H161172   4.972   1.951   7.554
20310WAT     H261173   5.051   1.828   7.481
20311WAT      O61174   3.938   3.268   3.223
20311WAT     H161175   4.004   3.212   3.174
20311WAT     H261176   3.847   3.256   3.182
20312WAT      O61177   8.638   5.944   6.460
20312WAT     H161178   8.621   5.849   6.434
20312WAT     H261179   8.587   5.965   6.543
20313WAT      O61180   5.048   9.570   8.953
20313WAT     H161181   4.985   9.535   8.883
20313WAT     H261182   5.020   9.662   8.980
20314WAT      O61183   3.629   7.199   4.910
20314WAT     H161184   3.628   7.162   4.818
20314WAT     H261185   3.537   7.233   4.933
20315WAT      O61186   3.378   3.910   4.582
20315WAT     H161187   3.330   3.826   4.607
20315WAT     H261188   3.315   3.972   4.534
20316WAT      O61189   1.459   4.695   5.871
20316WAT     H161190   1.441   4.597   5.879
20316WAT     H261191   1.508   4.713   5.786
20317WAT      O61192   6.768   9.560   4.453
20317WAT     H161193   6.830   9.537   4.528
20317WAT     H261194   6.735   9.654   4.465
20318WAT      O61195   3.953   1.622   9.584
20318WAT     H161196   4.003   1.675   9.515
20318WAT     H261197   4.011   1.610   9.665
20319WAT      O61198   4.863   9.242   5.378
20319WAT     H161199   4.876   9.214   5.283
20319WAT     H261200   4.838   9.163   5.433
20320WAT      O61201   8.290   8.968   2.092
20320WAT     H161202   8.214   9.027   2.121
20320WAT     H261203   8.344   9.016   2.023
20321WAT      O61204   3.697   6.833   9.773
20321WAT     H161205   3.636   6.804   9.698
20321WAT     H261206   3.681   6.774   9.853
20322WAT      O61207   7.510   0.768   3.527
20322WAT     H161208   7.411   0.781   3.533
20322WAT     H261209   7.538   0.768   3.431
20323WAT      O61210   7.797   5.934   9.226
20323WAT     H161211   7.820   5.951   9.322
20323WAT     H261212   7.751   6.015   9.188
20324WAT      O61213   4.390   1.396   2.038
20324WAT     H161214   4.357   1.489   2.021
20324WAT     H261215   4.346   1.332   1.976
20325WAT      O61216   5.196   9.455   7.788
20325WAT     H161217   5.193   9.426   7.883
20325WAT     H261218   5.225   9.551   7.783
20326WAT      O61219   9.732   4.938   1.254
20326WAT     H161220   9.813   4.880   1.262
20326WAT     H261221   9.650   4.881   1.266
20327WAT      O61222   9.883   6.088   4.830
20327WAT     H161223   9.900   6.176   4.873
20327WAT     H261224   9.818   6.099   4.754
20328WAT      O61225   0.147   8.585   9.435
20328WAT     H161226   0.196   8.505   9.470
20328WAT     H261227   0.049   8.575   9.454
20329WAT      O61228   4.443   2.625   8.468
20329WAT     H161229   4.506   2.583   8.403
20329WAT     H261230   4.378   2.683   8.418
20330WAT      O61231   1.113   3.246   6.467
20330WAT     H161232   1.115   3.225   6.564
20330WAT     H261233   1.024   3.284   6.442
20331WAT      O61234   1.044   9.309   6.425
20331WAT     H161235   0.977   9.245   6.388
20331WAT     H261236   1.037   9.397   6.377
20332WAT      O61237   1.090   8.512   6.061
20332WAT     H161238   1.133   8.598   6.032
20332WAT     H261239   1.141   8.475   6.139
20333WAT      O61240   6.943   6.644   2.083
20333WAT     H161241   6.850   6.673   2.104
20333WAT     H261242   6.982   6.703   2.012
20334WAT      O61243   5.619   3.822   6.209
20334WAT     H161244   5.632   3.760   6.132
20334WAT     H261245   5.539   3.793   6.262
20335WAT      O61246   7.562   3.457   3.429
20335WAT     H161247   7.576   3.541   3.482
20335WAT     H261248   7.464   3.446   3.411
20336WAT      O61249   9.418   6.219   6.576
20336WAT     H161250   9.450   6.291   6.637
20336WAT     H261251   9.328   6.243   6.541
20337WAT      O61252   2.092   3.466   1.100
20337WAT     H161253   2.026   3.482   1.174
20337WAT     H261254   2.050   3.406   1.031
20338WAT      O61255   4.180   5.126   4.475
20338WAT     H161256   4.123   5.109   4.394
20338WAT     H261257   4.138   5.196   4.532
20339WAT      O61258   3.060   3.071   3.235
20339WAT     H161259   3.050   3.165   3.202
20339WAT     H261260   3.097   3.072   3.327
20340WAT      O61261   7.087   5.661   2.187
20340WAT     H161262   7.173   5.692   2.227
20340WAT     H261263   7.047   5.590   2.246
20341WAT      O61264   9.169   6.556   1.758
20341WAT     H161265   9.091   6.508   1.798
20341WAT     H261266   9.207   6.619   1.825
20342WAT      O61267   3.450   5.243   2.622
20342WAT     H161268   3.375   5.306   2.603
20342WAT     H261269   3.537   5.288   2.603
20343WAT      O61270   6.334   1.797   9.690
20343WAT     H161271   6.356   1.701   9.675
20343WAT     H261272   6.299   1.837   9.605
20344WAT      O61273   8.773   6.506   9.428
20344WAT     H161274   8.745   6.415   9.457
20344WAT     H261275   8.756   6.517   9.330
20345WAT      O61276   3.579   5.729   8.942
20345WAT     H161277   3.621   5.769   9.024
20345WAT     H261278   3.512   5.794   8.904
20346WAT      O61279   0.224   5.249   2.991
20346WAT     H161280   0.279   5.333   2.995
20346WAT     H261281   0.225   5.213   2.897
20347WAT      O61282   8.626   4.899   0.187
20347WAT     H161283   8.669   4.835   0.250
20347WAT     H261284   8.615   4.988   0.232
20348WAT      O61285   6.081   4.124   9.470
20348WAT     H161286   5.985   4.144   9.492
20348WAT     H261287   6.100   4.028   9.490
20349WAT      O61288   7.992   6.080   7.829
20349WAT     H161289   7.928   6.032   7.889
20349WAT     H261290   8.014   6.023   7.750
20350WAT      O61291   0.533   8.259   2.209
20350WAT     H161292   0.533   8.167   2.250
20350WAT     H261293   0.553   8.252   2.112
20351WAT      O61294   2.478   4.375   1.321
20351WAT     H161295   2.401   4.311   1.315
20351WAT     H261296   2.476   4.437   1.243
20352WAT      O61297   4.045   4.596   3.959
20352WAT     H161298   4.140   4.572   3.942
20352WAT     H261299   4.019   4.568   4.051
20353WAT      O61300   1.041   4.857   6.258
20353WAT     H161301   0.976   4.868   6.183
20353WAT     H261302   1.001   4.799   6.329
20354WAT      O61303   1.255   4.805   6.011
20354WAT     H161304   1.332   4.782   5.952
20354WAT     H261305   1.236   4.903   6.004
20355WAT      O61306   8.816   8.251   1.378
20355WAT     H161307   8.741   8.188   1.399
20355WAT     H261308   8.781   8.328   1.325
20356WAT      O61309   8.557   2.646   4.425
20356WAT     H161310   8.596   2.584   4.493
20356WAT     H261311   8.630   2.702   4.385
20357WAT      O61312   0.459   2.442   0.454
20357WAT     H161313   0.449   2.467   0.358
20357WAT     H261314   0.497   2.519   0.505
20358WAT      O61315   3.984   3.736   7.137
20358WAT     H161316   3.961   3.792   7.057
20358WAT     H261317   4.040   3.658   7.108
20359WAT      O61318   4.914   4.584   8.768
20359WAT     H161319   4.947   4.558   8.859
20359WAT     H261320   4.983   4.560   8.699
20360WAT      O61321   5.394   1.536   0.569
20360WAT     H161322   5.356   1.528   0.661
20360WAT     H261323   5.435   1.626   0.557
20361WAT      O61324   5.450   5.660   0.075
20361WAT     H161325   5.437   5.684   0.171
20361WAT     H261326   5.514   5.725   0.032
20362WAT      O61327   4.048   7.773   3.023
20362WAT     H161328   4.052   7.755   3.121
20362WAT     H261329   3.956   7.801   2.997
20363WAT      O61330   0.494   4.258   7.817
20363WAT     H161331   0.559   4.198   7.771
20363WAT     H261332   0.412   4.268   7.761
20364WAT      O61333   8.879   0.285   9.763
20364WAT     H161334   8.850   0.197   9.800
20364WAT     H261335   8.978   0.294   9.772
20365WAT      O61336   8.248   1.098   1.707
20365WAT     H161337   8.288   1.050   1.785
20365WAT     H261338   8.269   1.048   1.623
20366WAT      O61339   4.308   0.728   5.736
20366WAT     H161340   4.324   0.766   5.645
20366WAT     H261341   4.393   0.692   5.773
20367WAT      O61342   5.462   7.711   0.757
20367WAT     H161343   5.497   7.651   0.685
20367WAT     H261344   5.492   7.677   0.846
20368WAT      O61345   4.832   1.577   2.216
20368WAT     H161346   4.873   1.502   2.164
20368WAT     H261347   4.897   1.610   2.284
20369WAT      O61348   0.183   1.642   5.214
20369WAT     H161349   0.242   1.688   5.280
20369WAT     H261350   0.092   1.630   5.254
20370WAT      O61351   0.636   7.516   1.509
20370WAT     H161352   0.705   7.587   1.521
20370WAT     H261353   0.592   7.526   1.419
20371WAT      O61354   1.085   0.427   1.310
20371WAT     H161355   1.134   0.454   1.393
20371WAT     H261356   1.147   0.427   1.232
20372WAT      O61357   6.358   4.942   3.034
20372WAT     H161358   6.377   4.868   3.100
20372WAT     H261359   6.406   4.923   2.949
20373WAT      O61360   0.406   7.840   3.981
20373WAT     H161361   0.307   7.848   3.977
20373WAT     H261362   0.431   7.763   4.040
20374WAT      O61363   3.871   1.337   5.127
20374WAT     H161364   3.853   1.413   5.189
20374WAT     H261365   3.800   1.267   5.139
20375WAT      O61366   2.142   2.565   7.517
20375WAT     H161367   2.224   2.572   7.461
20375WAT     H261368   2.116   2.469   7.526
20376WAT      O61369   6.416   6.565   2.441
20376WAT     H161370   6.501   6.540   2.396
20376WAT     H261371   6.343   6.502   2.412
20377WAT      O61372   6.533   3.068   5.874
20377WAT     H161373   6.589   3.114   5.805
20377WAT     H261374   6.531   3.124   5.957
20378WAT      O61375   8.976   3.563   4.653
20378WAT     H161376   8.961   3.481   4.598
20378WAT     H261377   8.966   3.540   4.750
20379WAT      O61378   1.777   1.775   7.392
20379WAT     H161379   1.799   1.682   7.420
20379WAT     H261380   1.680   1.792   7.404
20380WAT      O61381   6.618   4.978   4.574
20380WAT     H161382   6.570   5.066   4.580
20380WAT     H261383   6.623   4.950   4.478
20381WAT      O61384   0.101   8.563   6.195
20381WAT     H161385   0.132   8.635   6.257
20381WAT     H261386   0.085   8.602   6.104
20382WAT      O61387   5.972   8.463   4.115
20382WAT     H161388   5.970   8.525   4.194
20382WAT     H261389   6.048   8.487   4.055
20383WAT      O61390   7.553   2.673   6.902
20383WAT     H161391   7.487   2.671   6.827
20383WAT     H261392   7.641   2.708   6.869
20384WAT      O61393   5.304   0.885   1.406
20384WAT     H161394   5.318   0.959   1.339
20384WAT     H261395   5.210   0.852   1.398
20385WAT      O61396   9.578   1.485   4.071
20385WAT     H161397   9.480   1.469   4.077
20385WAT     H261398   9.596   1.581   4.049
20386WAT      O61399   0.538   4.297   5.837
20386WAT     H161400   0.591   4.382   5.837
20386WAT     H261401   0.448   4.314   5.877
20387WAT      O61402   2.183   6.316   9.530
20387WAT     H161403   2.189   6.403   9.577
20387WAT     H261404   2.250   6.314   9.455
20388WAT      O61405   7.754   7.906   6.273
20388WAT     H161406   7.776   7.944   6.183
20388WAT     H261407   7.751   7.979   6.340
20389WAT      O61408   4.398   2.208   2.492
20389WAT     H161409   4.462   2.183   2.419
20389WAT     H261410   4.369   2.303   2.480
20390WAT      O61411   2.799   4.989   8.001
20390WAT     H161412   2.885   4.996   7.952
20390WAT     H261413   2.803   5.046   8.083
20391WAT      O61414   6.107   1.530   5.820
20391WAT     H161415   6.202   1.524   5.852
20391WAT     H261416   6.046   1.532   5.898
20392WAT      O61417   8.970   8.544   6.949
20392WAT     H161418   8.960   8.643   6.963
20392WAT     H261419   8.992   8.500   7.036
20393WAT      O61420   6.780   8.612   5.767
20393WAT     H161421   6.737   8.621   5.677
20393WAT     H261422   6.845   8.537   5.765
20394WAT      O61423   9.645   5.485   8.748
20394WAT     H161424   9.636   5.414   8.817
20394WAT     H261425   9.648   5.444   8.657
20395WAT      O61426   5.556   1.428   6.929
20395WAT     H161427   5.581   1.379   7.013
20395WAT     H261428   5.512   1.364   6.866
20396WAT      O61429   8.583   3.585   8.071
20396WAT     H161430   8.493   3.540   8.072
20396WAT     H261431   8.642   3.543   8.140
20397WAT      O61432   6.491   1.861   2.679
20397WAT     H161433   6.464   1.912   2.760
20397WAT     H261434   6.551   1.785   2.705
20398WAT      O61435   6.768   1.539   9.426
20398WAT     H161436   6.809   1.457   9.385
20398WAT     H261437   6.711   1.585   9.358
20399WAT      O61438   0.635   2.829   5.177
20399WAT     H161439   0.580   2.847   5.258
20399WAT     H261440   0.651   2.730   5.169
20400WAT      O61441   5.281   4.351   9.636
20400WAT     H161442   5.183   4.348   9.654
20400WAT     H261443   5.305   4.281   9.569
20401WAT      O61444   8.337   9.433   1.254
20401WAT     H161445   8.347   9.469   1.347
20401WAT     H261446   8.312   9.337   1.258
20402WAT      O61447   5.421   7.423   5.838
20402WAT     H161448   5.515   7.395   5.861
20402WAT     H261449   5.388   7.488   5.906
20403WAT      O61450   0.211   9.652   4.355
20403WAT     H161451   0.115   9.651   4.328
20403WAT     H261452   0.232   9.568   4.405
20404WAT      O61453   2.808   9.178   9.876
20404WAT     H161454   2.892   9.125   9.865
20404WAT     H261455   2.749   9.164   9.797
20405WAT      O61456   5.296   8.454   8.797
20405WAT     H161457   5.337   8.475   8.885
20405WAT     H261458   5.342   8.376   8.755
20406WAT      O61459   3.796   2.218   3.148
20406WAT     H161460   3.798   2.220   3.248
20406WAT     H261461   3.863   2.283   3.112
20407WAT      O61462   4.783   4.967   2.899
20407WAT     H161463   4.872   5.009   2.878
20407WAT     H261464   4.711   5.018   2.852
20408WAT      O61465   1.446   6.512   2.974
20408WAT     H161466   1.476   6.583   3.038
20408WAT     H261467   1.412   6.555   2.890
20409WAT      O61468   1.242   4.544   0.093
20409WAT     H161469   1.184   4.619   0.061
20409WAT     H261470   1.241   4.469   0.026
20410WAT      O61471   5.451   6.457   7.957
20410WAT     H161472   5.447   6.396   7.877
20410WAT     H261473   5.468   6.550   7.926
20411WAT      O61474   3.863   0.016   9.737
20411WAT     H161475   3.870   0.053   9.829
20411WAT     H261476   3.920  -0.066   9.729
20412WAT      O61477   1.592   0.483   8.254
20412WAT     H161478   1.670   0.450   8.307
20412WAT     H261479   1.510   0.432   8.281
20413WAT      O61480   5.920   4.334   0.142
20413WAT     H161481   5.874   4.265   0.086
20413WAT     H261482   5.926   4.301   0.237
20414WAT      O61483   9.578   5.812   0.725
20414WAT     H161484   9.645   5.784   0.793
20414WAT     H261485   9.556   5.735   0.666
20415WAT      O61486   1.456   5.653   4.868
20415WAT     H161487   1.510   5.686   4.791
20415WAT     H261488   1.479   5.704   4.951
20416WAT      O61489   1.845   2.964   0.418
20416WAT     H161490   1.817   2.898   0.488
20416WAT     H261491   1.771   2.977   0.353
20417WAT      O61492   2.656   2.663   7.213
20417WAT     H161493   2.698   2.690   7.299
20417WAT     H261494   2.701   2.581   7.178
20418WAT      O61495   5.340   8.456   0.731
20418WAT     H161496   5.343   8.510   0.647
20418WAT     H261497   5.262   8.484   0.786
20419WAT      O61498   9.295   5.760   2.806
20419WAT     H161499   9.206   5.746   2.762
20419WAT     H261500   9.364   5.781   2.738
20420WAT      O61501   0.848   7.614   6.246
20420WAT     H161502   0.911   7.691   6.251
20420WAT     H261503   0.755   7.647   6.228
20421WAT      O61504   0.956   9.741   9.371
20421WAT     H161505   0.884   9.699   9.426
20421WAT     H261506   1.046   9.716   9.408
20422WAT      O61507   3.597   9.109   5.883
20422WAT     H161508   3.532   9.174   5.922
20422WAT     H261509   3.608   9.127   5.785
20423WAT      O61510   5.266   1.994   1.325
20423WAT     H161511   5.307   2.085   1.328
20423WAT     H261512   5.282   1.947   1.412
20424WAT      O61513   3.747   6.044   7.466
20424WAT     H161514   3.739   6.141   7.487
20424WAT     H261515   3.677   6.018   7.400
20425WAT      O61516   5.386   0.298   9.481
20425WAT     H161517   5.328   0.258   9.410
20425WAT     H261518   5.469   0.241   9.491
20426WAT      O61519   5.616   7.194   6.359
20426WAT     H161520   5.715   7.185   6.371
20426WAT     H261521   5.593   7.176   6.263
20427WAT      O61522   4.799   0.182   1.245
20427WAT     H161523   4.816   0.272   1.204
20427WAT     H261524   4.753   0.123   1.179
20428WAT      O61525   7.100   5.576   1.946
20428WAT     H161526   7.018   5.620   1.910
20428WAT     H261527   7.115   5.605   2.040
20429WAT      O61528   9.560   6.102   6.354
20429WAT     H161529   9.515   6.140   6.435
20429WAT     H261530   9.537   6.005   6.347
20430WAT      O61531   2.892   6.702   3.332
20430WAT     H161532   2.850   6.756   3.405
20430WAT     H261533   2.822   6.672   3.268
20431WAT      O61534   4.279   3.265   8.531
20431WAT     H161535   4.287   3.362   8.554
20431WAT     H261536   4.212   3.221   8.591
20432WAT      O61537   0.827   9.556   4.898
20432WAT     H161538   0.750   9.523   4.844
20432WAT     H261539   0.823   9.656   4.906
20433WAT      O61540   4.868   4.909   1.167
20433WAT     H161541   4.835   4.832   1.111
20433WAT     H261542   4.836   4.897   1.261
20434WAT      O61543   4.512   0.630   3.782
20434WAT     H161544   4.433   0.580   3.815
20434WAT     H261545   4.488   0.727   3.771
20435WAT      O61546   5.410   6.582   1.616
20435WAT     H161547   5.467   6.501   1.605
20435WAT     H261548   5.460   6.652   1.666
20436WAT      O61549   1.780   0.592   4.460
20436WAT     H161550   1.802   0.522   4.393
20436WAT     H261551   1.801   0.682   4.423
20437WAT      O61552   2.276   4.068   0.214
20437WAT     H161553   2.318   3.977   0.219
20437WAT     H261554   2.312   4.117   0.135
20438WAT      O61555   1.804   3.233   5.058
20438WAT     H161556   1.857   3.229   5.143
20438WAT     H261557   1.864   3.218   4.980
20439WAT      O61558   0.623   1.327   6.751
20439WAT     H161559   0.703   1.349   6.695
20439WAT     H261560   0.603   1.404   6.811
20440WAT      O61561   3.226   7.421   7.748
20440WAT     H161562   3.143   7.462   7.710
20440WAT     H261563   3.306   7.474   7.718
20441WAT      O61564   5.310   5.040   9.227
20441WAT     H161565   5.212   5.020   9.239
20441WAT     H261566   5.322   5.105   9.153
20442WAT      O61567   1.242   4.480   4.616
20442WAT     H161568   1.339   4.461   4.633
20442WAT     H261569   1.223   4.473   4.518
20443WAT      O61570   3.875   7.283   3.095
20443WAT     H161571   3.842   7.214   3.160
20443WAT     H261572   3.806   7.298   3.024
20444WAT      O61573   8.232   2.144   3.107
20444WAT     H161574   8.205   2.238   3.086
20444WAT     H261575   8.262   2.099   3.023
20445WAT      O61576   9.002   9.056   2.576
20445WAT     H161577   9.057   9.036   2.495
20445WAT     H261578   9.043   9.013   2.656
20446WAT      O61579   5.183   8.328   4.905
20446WAT     H161580   5.213   8.415   4.945
20446WAT     H261581   5.143   8.271   4.977
20447WAT      O61582   9.871   2.831   0.705
20447WAT     H161583   9.811   2.894   0.755
20447WAT     H261584   9.820   2.748   0.681
20448WAT      O61585   6.929   7.587   1.255
20448WAT     H161586   6.940   7.686   1.255
20448WAT     H261587   6.933   7.553   1.161
20449WAT      O61588   2.674   4.636   9.821
20449WAT     H161589   2.719   4.548   9.831
20449WAT     H261590   2.686   4.669   9.727
20450WAT      O61591   5.592   4.381   9.095
20450WAT     H161592   5.614   4.433   9.012
20450WAT     H261593   5.551   4.441   9.163
20451WAT      O61594   3.674   9.059   8.639
20451WAT     H161595   3.678   9.151   8.601
20451WAT     H261596   3.714   9.059   8.730
20452WAT      O61597   4.811   9.414   3.094
20452WAT     H161598   4.780   9.388   3.185
20452WAT     H261599   4.741   9.389   3.027
20453WAT      O61600   8.250   3.519   2.497
20453WAT     H161601   8.164   3.514   2.446
20453WAT     H261602   8.234   3.564   2.585
20454WAT      O61603   6.837   6.472   5.453
20454WAT     H161604   6.896   6.392   5.458
20454WAT     H261605   6.828   6.501   5.357
20455WAT      O61606   8.926   8.265   0.951
20455WAT     H161607   8.967   8.216   1.028
20455WAT     H261608   8.826   8.258   0.957
20456WAT      O61609   5.499   5.833   6.815
20456WAT     H161610   5.426   5.767   6.800
20456WAT     H261611   5.481   5.885   6.899
20457WAT      O61612   1.666   2.181   6.076
20457WAT     H161613   1.677   2.105   6.012
20457WAT     H261614   1.750   2.236   6.076
20458WAT      O61615   1.297   3.438   7.361
20458WAT     H161616   1.315   3.422   7.458
20458WAT     H261617   1.384   3.440   7.311
20459WAT      O61618   2.615   5.223   7.881
20459WAT     H161619   2.574   5.181   7.962
20459WAT     H261620   2.710   5.247   7.900
20460WAT      O61621   3.501   2.346   0.202
20460WAT     H161622   3.519   2.254   0.236
20460WAT     H261623   3.515   2.412   0.276
20461WAT      O61624   8.971   9.797   8.593
20461WAT     H161625   8.962   9.820   8.496
20461WAT     H261626   8.880   9.793   8.635
20462WAT      O61627   2.491   1.977   1.393
20462WAT     H161628   2.558   1.915   1.433
20462WAT     H261629   2.480   1.955   1.295
20463WAT      O61630   6.436   1.675   1.990
20463WAT     H161631   6.511   1.637   1.935
20463WAT     H261632   6.474   1.736   2.060
20464WAT      O61633   7.853   2.530   2.894
20464WAT     H161634   7.880   2.602   2.959
20464WAT     H261635   7.873   2.441   2.934
20465WAT      O61636   9.701   4.259   2.630
20465WAT     H161637   9.782   4.200   2.627
20465WAT     H261638   9.719   4.339   2.688
20466WAT      O61639   6.456   3.304   1.979
20466WAT     H161640   6.401   3.361   1.919
20466WAT     H261641   6.420   3.210   1.977
20467WAT      O61642   7.075   4.534   8.439
20467WAT     H161643   7.134   4.454   8.430
20467WAT     H261644   6.982   4.504   8.462
20468WAT      O61645   5.978   5.369   1.454
20468WAT     H161646   6.038   5.290   1.451
20468WAT     H261647   5.887   5.340   1.484
20469WAT      O61648   0.275   1.865   4.689
20469WAT     H161649   0.274   1.844   4.787
20469WAT     H261650   0.207   1.935   4.669
20470WAT      O61651   7.954   4.432   3.447
20470WAT     H161652   8.017   4.355   3.448
20470WAT     H261653   7.936   4.462   3.541
20471WAT      O61654   0.913   7.610   0.862
20471WAT     H161655   0.863   7.658   0.790
20471WAT     H261656   0.999   7.657   0.880
20472WAT      O61657   0.076   8.561   0.528
20472WAT     H161658   0.099   8.534   0.435
20472WAT     H261659  -0.023   8.560   0.540
20473WAT      O61660   6.056   0.613   4.679
20473WAT     H161661   5.979   0.563   4.638
20473WAT     H261662   6.090   0.562   4.758
20474WAT      O61663   7.820   1.774   6.931
20474WAT     H161664   7.862   1.758   7.021
20474WAT     H261665   7.881   1.741   6.859
20475WAT      O61666   3.120   4.515   9.029
20475WAT     H161667   3.146   4.595   8.975
20475WAT     H261668   3.053   4.542   9.098
20476WAT      O61669   9.735   7.470   3.597
20476WAT     H161670   9.824   7.493   3.637
20476WAT     H261671   9.749   7.415   3.515
20477WAT      O61672   8.555   2.544   1.206
20477WAT     H161673   8.502   2.589   1.278
20477WAT     H261674   8.541   2.445   1.211
20478WAT      O61675   3.914   0.452   3.732
20478WAT     H161676   3.966   0.391   3.672
20478WAT     H261677   3.966   0.467   3.817
20479WAT      O61678   1.273   2.338   9.698
20479WAT     H161679   1.194   2.380   9.654
20479WAT     H261680   1.241   2.268   9.763
20480WAT      O61681   5.713   2.217   3.344
20480WAT     H161682   5.619   2.189   3.328
20480WAT     H261683   5.747   2.174   3.427
20481WAT      O61684   1.222   3.312   0.342
20481WAT     H161685   1.130   3.349   0.351
20481WAT     H261686   1.289   3.378   0.377
20482WAT      O61687   2.988   0.339   3.775
20482WAT     H161688   2.979   0.402   3.853
20482WAT     H261689   2.898   0.301   3.753
20483WAT      O61690   3.107   7.284   7.197
20483WAT     H161691   3.192   7.278   7.249
20483WAT     H261692   3.079   7.192   7.169
20484WAT      O61693   3.924   7.787   9.279
20484WAT     H161694   3.918   7.691   9.251
20484WAT     H261695   3.844   7.837   9.247
20485WAT      O61696   2.788   1.183   0.012
20485WAT     H161697   2.878   1.204   0.049
20485WAT     H261698   2.790   1.197  -0.087
20486WAT      O61699   5.335   4.689   2.056
20486WAT     H161700   5.435   4.684   2.053
20486WAT     H261701   5.304   4.678   2.150
20487WAT      O61702   3.218   1.425   1.835
20487WAT     H161703   3.234   1.494   1.765
20487WAT     H261704   3.306   1.392   1.870
20488WAT      O61705   9.471   8.393   2.308
20488WAT     H161706   9.401   8.333   2.270
20488WAT     H261707   9.448   8.488   2.288
20489WAT      O61708   3.558   5.129   6.366
20489WAT     H161709   3.523   5.046   6.409
20489WAT     H261710   3.615   5.179   6.430
20490WAT      O61711   3.698   4.018   8.198
20490WAT     H161712   3.723   4.016   8.294
20490WAT     H261713   3.709   3.927   8.158
20491WAT      O61714   6.894   5.894   3.779
20491WAT     H161715   6.945   5.904   3.865
20491WAT     H261716   6.861   5.800   3.770
20492WAT      O61717   0.202   9.474   5.293
20492WAT     H161718   0.165   9.404   5.354
20492WAT     H261719   0.144   9.556   5.298
20493WAT      O61720   8.896   7.472   7.718
20493WAT     H161721   8.948   7.397   7.677
20493WAT     H261722   8.799   7.458   7.702
20494WAT      O61723   9.501   6.391   1.163
20494WAT     H161724   9.526   6.300   1.195
20494WAT     H261725   9.437   6.383   1.086
20495WAT      O61726   4.561   9.637   4.813
20495WAT     H161727   4.541   9.575   4.736
20495WAT     H261728   4.616   9.589   4.881
20496WAT      O61729   0.294   1.725   1.659
20496WAT     H161730   0.235   1.672   1.599
20496WAT     H261731   0.382   1.679   1.669
20497WAT      O61732   5.518   2.688   4.699
20497WAT     H161733   5.537   2.700   4.797
20497WAT     H261734   5.539   2.773   4.651
20498WAT      O61735   3.335   8.881   2.496
20498WAT     H161736   3.279   8.816   2.549
20498WAT     H261737   3.427   8.844   2.485
20499WAT      O61738   5.861   7.075   2.086
20499WAT     H161739   5.958   7.078   2.063
20499WAT     H261740   5.834   7.161   2.129
20500WAT      O61741   1.811   9.817   9.707
20500WAT     H161742   1.793   9.879   9.783
20500WAT     H261743   1.899   9.773   9.720
20501WAT      O61744   4.232   7.394   6.137
20501WAT     H161745   4.190   7.479   6.170
20501WAT     H261746   4.217   7.321   6.203
20502WAT      O61747   7.407   6.195   7.253
20502WAT     H161748   7.332   6.220   7.315
20502WAT     H261749   7.478   6.147   7.304
20503WAT      O61750   7.316   9.009   7.613
20503WAT     H161751   7.377   8.944   7.566
20503WAT     H261752   7.228   9.011   7.567
20504WAT      O61753   7.650   1.520   1.600
20504WAT     H161754   7.701   1.533   1.684
20504WAT     H261755   7.691   1.446   1.547
20505WAT      O61756   4.525   2.069   8.557
20505WAT     H161757   4.489   2.142   8.616
20505WAT     H261758   4.450   2.029   8.504
20506WAT      O61759   3.802   3.188   3.910
20506WAT     H161760   3.752   3.162   3.827
20506WAT     H261761   3.880   3.128   3.923
20507WAT      O61762   4.431   3.973   4.934
20507WAT     H161763   4.517   3.953   4.887
20507WAT     H261764   4.369   3.896   4.923
20508WAT      O61765   1.015   6.111   6.192
20508WAT     H161766   0.994   6.024   6.237
20508WAT     H261767   1.028   6.182   6.262
20509WAT      O61768   4.194   2.553   2.694
20509WAT     H161769   4.187   2.487   2.768
20509WAT     H261770   4.103   2.580   2.664
20510WAT      O61771   0.985   3.489   7.965
20510WAT     H161772   0.928   3.411   7.992
20510WAT     H261773   1.077   3.476   8.002
20511WAT      O61774   7.787   5.086   3.788
20511WAT     H161775   7.879   5.122   3.803
20511WAT     H261776   7.749   5.123   3.703
20512WAT      O61777   5.705   1.148   0.440
20512WAT     H161778   5.697   1.060   0.486
20512WAT     H261779   5.615   1.192   0.436
20513WAT      O61780   4.664   1.239   8.882
20513WAT     H161781   4.699   1.188   8.804
20513WAT     H261782   4.688   1.336   8.871
20514WAT      O61783   8.878   3.597   3.529
20514WAT     H161784   8.886   3.629   3.624
20514WAT     H261785   8.964   3.556   3.500
20515WAT      O61786   4.654   2.472   1.510
20515WAT     H161787   4.559   2.450   1.530
20515WAT     H261788   4.680   2.556   1.558
20516WAT      O61789   9.779   2.547   3.590
20516WAT     H161790   9.792   2.451   3.618
20516WAT     H261791   9.706   2.552   3.523
20517WAT      O61792   3.967   9.416   7.673
20517WAT     H161793   3.926   9.369   7.595
20517WAT     H261794   3.896   9.441   7.739
20518WAT      O61795   5.383   3.240   0.111
20518WAT     H161796   5.467   3.270   0.158
20518WAT     H261797   5.307   3.242   0.175
20519WAT      O61798   1.129   3.014   6.302
20519WAT     H161799   1.040   2.994   6.261
20519WAT     H261800   1.136   3.112   6.319
20520WAT      O61801   9.825   8.143   8.462
20520WAT     H161802   9.870   8.114   8.377
20520WAT     H261803   9.860   8.090   8.538
20521WAT      O61804   5.026   8.069   7.518
20521WAT     H161805   4.953   8.111   7.463
20521WAT     H261806   5.065   7.992   7.469
20522WAT      O61807   9.273   5.808   7.690
20522WAT     H161808   9.319   5.719   7.697
20522WAT     H261809   9.300   5.853   7.605
20523WAT      O61810   6.347   7.392   2.993
20523WAT     H161811   6.435   7.351   2.970
20523WAT     H261812   6.330   7.384   3.091
20524WAT      O61813   9.259   6.426   3.427
20524WAT     H161814   9.314   6.505   3.399
20524WAT     H261815   9.193   6.404   3.355
20525WAT      O61816   5.306   1.921   4.934
20525WAT     H161817   5.227   1.860   4.934
20525WAT     H261818   5.389   1.867   4.923
20526WAT      O61819   6.463   9.733   6.902
20526WAT     H161820   6.502   9.744   6.811
20526WAT     H261821   6.399   9.656   6.902
20527WAT      O61822   3.645   8.567   5.946
20527WAT     H161823   3.733   8.603   5.916
20527WAT     H261824   3.589   8.544   5.866
20528WAT      O61825   7.425   2.971   7.944
20528WAT     H161826   7.420   2.918   7.860
20528WAT     H261827   7.517   3.008   7.955
20529WAT      O61828   5.894   4.088   7.107
20529WAT     H161829   5.801   4.124   7.097
20529WAT     H261830   5.901   4.033   7.190
20530WAT      O61831   3.128   1.190   4.033
20530WAT     H161832   3.031   1.194   4.010
20530WAT     H261833   3.149   1.101   4.073
20531WAT      O61834   8.204   0.266   1.671
20531WAT     H161835   8.294   0.309   1.681
20531WAT     H261836   8.208   0.174   1.710
20532WAT      O61837   4.019   8.581   2.976
20532WAT     H161838   4.092   8.544   2.919
20532WAT     H261839   4.017   8.681   2.968
20533WAT      O61840   2.536   2.971   2.631
20533WAT     H161841   2.457   3.028   2.654
20533WAT     H261842   2.538   2.954   2.532
20534WAT      O61843   3.442   9.760   3.273
20534WAT     H161844   3.442   9.661   3.257
20534WAT     H261845   3.504   9.804   3.208
20535WAT      O61846   5.966   2.739   3.789
20535WAT     H161847   5.921   2.824   3.814
20535WAT     H261848   5.972   2.679   3.868
20536WAT      O61849   5.365   2.149   4.039
20536WAT     H161850   5.349   2.239   3.999
20536WAT     H261851   5.288   2.089   4.019
20537WAT      O61852   4.899   4.671   7.558
20537WAT     H161853   4.839   4.675   7.478
20537WAT     H261854   4.899   4.759   7.604
20538WAT      O61855   1.197   7.913   5.677
20538WAT     H161856   1.198   7.892   5.775
20538WAT     H261857   1.145   7.997   5.662
20539WAT      O61858   0.964   7.855   6.250
20539WAT     H161859   1.055   7.892   6.272
20539WAT     H261860   0.926   7.905   6.172
20540WAT      O61861   0.489   9.311   1.965
20540WAT     H161862   0.548   9.366   2.024
20540WAT     H261863   0.421   9.263   2.022
20541WAT      O61864   7.551   5.662   7.119
20541WAT     H161865   7.494   5.581   7.135
20541WAT     H261866   7.503   5.724   7.056
20542WAT      O61867   5.388   6.094   7.917
20542WAT     H161868   5.381   5.996   7.902
20542WAT     H261869   5.355   6.116   8.009
20543WAT      O61870   0.810   7.802   8.890
20543WAT     H161871   0.901   7.841   8.878
20543WAT     H261872   0.808   7.749   8.976
20544WAT      O61873   7.787   1.207   8.645
20544WAT     H161874   7.833   1.185   8.731
20544WAT     H261875   7.785   1.306   8.632
20545WAT      O61876   4.563   4.138   8.767
20545WAT     H161877   4.656   4.166   8.747
20545WAT     H261878   4.503   4.218   8.772
20546WAT      O61879   9.845   5.515   0.298
20546WAT     H161880   9.824   5.418   0.309
20546WAT     H261881   9.828   5.563   0.384
20547WAT      O61882   6.264   1.745   6.656
20547WAT     H161883   6.344   1.728   6.598
20547WAT     H261884   6.258   1.843   6.677
20548WAT      O61885   7.973   9.787   5.174
20548WAT     H161886   8.013   9.762   5.262
20548WAT     H261887   8.046   9.795   5.106
20549WAT      O61888   6.588   1.037   6.231
20549WAT     H161889   6.584   1.133   6.203
20549WAT     H261890   6.640   1.030   6.317
20550WAT      O61891   6.331   1.377   9.365
20550WAT     H161892   6.278   1.453   9.404
20550WAT     H261893   6.416   1.367   9.417
20551WAT      O61894   1.581   9.211   9.694
20551WAT     H161895   1.493   9.253   9.672
20551WAT     H261896   1.636   9.276   9.747
20552WAT      O61897   1.548   1.835   5.415
20552WAT     H161898   1.522   1.742   5.387
20552WAT     H261899   1.533   1.898   5.339
20553WAT      O61900   2.021   3.789   7.386
20553WAT     H161901   2.038   3.723   7.459
20553WAT     H261902   2.050   3.880   7.417
20554WAT      O61903   6.950   5.042   5.957
20554WAT     H161904   6.998   5.083   6.034
20554WAT     H261905   7.014   4.990   5.900
20555WAT      O61906   9.102   2.809   2.380
20555WAT     H161907   9.016   2.835   2.423
20555WAT     H261908   9.125   2.876   2.309
20556WAT      O61909   1.286   6.725   2.038
20556WAT     H161910   1.308   6.632   2.007
20556WAT     H261911   1.191   6.746   2.016
20557WAT      O61912   7.383   8.812   2.697
20557WAT     H161913   7.438   8.879   2.745
20557WAT     H261914   7.387   8.724   2.746
20558WAT      O61915   5.613   2.807   2.188
20558WAT     H161916   5.522   2.833   2.157
20558WAT     H261917   5.675   2.884   2.178
20559WAT      O61918   5.419   8.898   5.298
20559WAT     H161919   5.422   8.885   5.397
20559WAT     H261920   5.449   8.991   5.275
20560WAT      O61921   8.425   9.407   0.492
20560WAT     H161922   8.492   9.339   0.462
20560WAT     H261923   8.427   9.486   0.430
20561WAT      O61924   9.055   2.078   4.471
20561WAT     H161925   9.135   2.045   4.520
20561WAT     H261926   9.070   2.072   4.373
20562WAT      O61927   7.507   7.381   7.157
20562WAT     H161928   7.422   7.433   7.149
20562WAT     H261929   7.562   7.395   7.074
20563WAT      O61930   2.666   4.205   9.328
20563WAT     H161931   2.618   4.121   9.302
20563WAT     H261932   2.633   4.280   9.271
20564WAT      O61933   7.623   8.358   1.151
20564WAT     H161934   7.681   8.431   1.115
20564WAT     H261935   7.677   8.275   1.164
20565WAT      O61936   3.194   0.904   4.089
20565WAT     H161937   3.173   0.941   3.998
20565WAT     H261938   3.194   0.804   4.085
20566WAT      O61939   8.915   9.383   2.830
20566WAT     H161940   8.908   9.284   2.842
20566WAT     H261941   9.011   9.407   2.811
20567WAT      O61942   2.087   0.868   3.577
20567WAT     H161943   2.056   0.945   3.634
20567WAT     H261944   2.167   0.897   3.524
20568WAT      O61945   2.980   2.495   1.167
20568WAT     H161946   3.000   2.517   1.262
20568WAT     H261947   2.958   2.398   1.159
20569WAT      O61948   0.721   7.631   3.873
20569WAT     H161949   0.724   7.536   3.842
20569WAT     H261950   0.668   7.685   3.808
20570WAT      O61951   3.229   4.790   9.394
20570WAT     H161952   3.207   4.852   9.318
20570WAT     H261953   3.328   4.775   9.397
20571WAT      O61954   2.363   5.297   4.688
20571WAT     H161955   2.425   5.355   4.741
20571WAT     H261956   2.317   5.352   4.619
20572WAT      O61957   0.660   8.322   3.339
20572WAT     H161958   0.753   8.344   3.366
20572WAT     H261959   0.600   8.401   3.357
20573WAT      O61960   6.988   4.114   0.812
20573WAT     H161961   6.951   4.024   0.837
20573WAT     H261962   6.917   4.183   0.823
20574WAT      O61963   6.622   9.156   9.006
20574WAT     H161964   6.593   9.060   8.997
20574WAT     H261965   6.645   9.191   8.915
20575WAT      O61966   1.319   3.959   3.104
20575WAT     H161967   1.330   3.865   3.073
20575WAT     H261968   1.295   3.960   3.201
20576WAT      O61969   0.186   7.617   4.001
20576WAT     H161970   0.155   7.712   3.994
20576WAT     H261971   0.279   7.610   3.964
20577WAT      O61972   5.578   7.673   0.982
20577WAT     H161973   5.596   7.580   1.013
20577WAT     H261974   5.654   7.732   1.008
20578WAT      O61975   7.884   6.407   9.641
20578WAT     H161976   7.963   6.405   9.580
20578WAT     H261977   7.904   6.468   9.719
20579WAT      O61978   6.422   3.319   8.481
20579WAT     H161979   6.449   3.410   8.513
20579WAT     H261980   6.325   3.304   8.501
20580WAT      O61981   7.560   1.204   8.503
20580WAT     H161982   7.525   1.287   8.546
20580WAT     H261983   7.646   1.177   8.547
20581WAT      O61984   4.722   0.586   5.585
20581WAT     H161985   4.786   0.566   5.511
20581WAT     H261986   4.631   0.551   5.561
20582WAT      O61987   5.228   2.636   1.934
20582WAT     H161988   5.194   2.665   2.023
20582WAT     H261989   5.152   2.606   1.876
20583WAT      O61990   6.451   5.955   3.871
20583WAT     H161991   6.537   5.941   3.921
20583WAT     H261992   6.376   5.967   3.936
20584WAT      O61993   8.328   9.382   4.661
20584WAT     H161994   8.310   9.293   4.619
20584WAT     H261995   8.418   9.381   4.705
20585WAT      O61996   5.465   9.061   1.492
20585WAT     H161997   5.550   9.090   1.537
20585WAT     H261998   5.487   9.003   1.414
20586WAT      O61999   6.739   5.795   8.011
20586WAT     H162000   6.829   5.753   7.999
20586WAT     H262001   6.730   5.829   8.105
20587WAT      O62002   6.825   3.694   7.083
20587WAT     H162003   6.822   3.689   7.183
20587WAT     H262004   6.867   3.611   7.046
20588WAT      O62005   7.629   4.731   1.945
20588WAT     H162006   7.705   4.792   1.967
20588WAT     H262007   7.624   4.718   1.846
20589WAT      O62008   1.690   1.965   8.832
20589WAT     H162009   1.606   2.018   8.825
20589WAT     H262010   1.767   2.026   8.848
20590WAT      O62011   0.551   8.553   8.877
20590WAT     H162012   0.456   8.575   8.900
20590WAT     H262013   0.555   8.519   8.782
20591WAT      O62014   7.330   2.356   0.680
20591WAT     H162015   7.290   2.323   0.766
20591WAT     H262016   7.419   2.398   0.699
20592WAT      O62017   0.207   3.244   6.925
20592WAT     H162018   0.306   3.234   6.932
20592WAT     H262019   0.176   3.208   6.837
20593WAT      O62020   6.782   5.050   2.346
20593WAT     H162021   6.881   5.062   2.348
20593WAT     H262022   6.741   5.117   2.284
20594WAT      O62023   7.222   2.116   6.454
20594WAT     H162024   7.148   2.117   6.522
20594WAT     H262025   7.269   2.204   6.454
20595WAT      O62026   8.465   8.544   1.405
20595WAT     H162027   8.448   8.458   1.452
20595WAT     H262028   8.388   8.606   1.419
20596WAT      O62029   2.933   6.783   5.731
20596WAT     H162030   2.851   6.738   5.695
20596WAT     H262031   3.011   6.764   5.672
20597WAT      O62032   3.598   9.565   1.113
20597WAT     H162033   3.582   9.647   1.168
20597WAT     H262034   3.612   9.591   1.018
20598WAT      O62035   2.806   5.003   8.456
20598WAT     H162036   2.716   5.008   8.411
20598WAT     H262037   2.878   5.023   8.389
20599WAT      O62038   3.748   2.710   3.937
20599WAT     H162039   3.817   2.642   3.962
20599WAT     H262040   3.748   2.723   3.838
20600WAT      O62041   5.131   2.711   1.535
20600WAT     H162042   5.186   2.793   1.542
20600WAT     H262043   5.051   2.729   1.477
20601WAT      O62044   8.537   4.177   4.736
20601WAT     H162045   8.508   4.117   4.809
20601WAT     H262046   8.627   4.216   4.757
20602WAT      O62047   8.523   8.902   2.205
20602WAT     H162048   8.520   8.905   2.305
20602WAT     H262049   8.430   8.902   2.169
20603WAT      O62050   8.598   1.891   8.081
20603WAT     H162051   8.666   1.954   8.119
20603WAT     H262052   8.538   1.859   8.154
20604WAT      O62053   8.725   1.187   4.763
20604WAT     H162054   8.756   1.256   4.829
20604WAT     H262055   8.708   1.231   4.674
20605WAT      O62056   0.351   3.643   4.168
20605WAT     H162057   0.280   3.621   4.235
20605WAT     H262058   0.311   3.647   4.076
20606WAT      O62059   4.972   2.201   9.248
20606WAT     H162060   5.047   2.142   9.280
20606WAT     H262061   4.985   2.294   9.283
20607WAT      O62062   9.122   3.239   8.255
20607WAT     H162063   9.044   3.249   8.317
20607WAT     H262064   9.203   3.212   8.308
20608WAT      O62065   1.318   1.490   9.686
20608WAT     H162066   1.402   1.501   9.633
20608WAT     H262067   1.264   1.574   9.682
20609WAT      O62068   2.944   0.517   0.835
20609WAT     H162069   2.849   0.525   0.866
20609WAT     H262070   3.003   0.566   0.900
20610WAT      O62071   9.212   2.883   4.731
20610WAT     H162072   9.138   2.866   4.666
20610WAT     H262073   9.210   2.813   4.803
20611WAT      O62074   0.081   1.733   1.827
20611WAT     H162075   0.160   1.738   1.765
20611WAT     H262076   0.020   1.660   1.797
20612WAT      O62077   7.117   2.434   4.800
20612WAT     H162078   7.145   2.399   4.890
20612WAT     H262079   7.052   2.370   4.759
20613WAT      O62080   3.823   0.239   8.920
20613WAT     H162081   3.900   0.259   8.982
20613WAT     H262082   3.854   0.247   8.826
20614WAT      O62083   4.676   3.600   1.899
20614WAT     H162084   4.682   3.606   1.799
20614WAT     H262085   4.758   3.553   1.934
20615WAT      O62086   6.529   7.120   4.385
20615WAT     H162087   6.491   7.140   4.475
20615WAT     H262088   6.578   7.032   4.388
20616WAT      O62089   1.538   1.872   4.279
20616WAT     H162090   1.461   1.872   4.343
20616WAT     H262091   1.580   1.781   4.277
20617WAT      O62092   9.042   1.828   0.959
20617WAT     H162093   9.109   1.823   0.884
20617WAT     H262094   8.985   1.909   0.947
20618WAT      O62095   7.627   6.810   1.518
20618WAT     H162096   7.536   6.769   1.516
20618WAT     H262097   7.630   6.888   1.454
20619WAT      O62098   0.079   5.947   6.183
20619WAT     H162099   0.038   5.867   6.227
20619WAT     H262100   0.060   5.944   6.085
20620WAT      O62101   8.484   4.057   7.901
20620WAT     H162102   8.537   3.994   7.844
20620WAT     H262103   8.543   4.130   7.933
20621WAT      O62104   0.380   1.717   1.371
20621WAT     H162105   0.418   1.702   1.462
20621WAT     H262106   0.421   1.799   1.331
20622WAT      O62107   1.411   1.954   3.247
20622WAT     H162108   1.357   2.025   3.201
20622WAT     H262109   1.355   1.872   3.258
20623WAT      O62110   9.027   6.392   0.279
20623WAT     H162111   9.042   6.350   0.368
20623WAT     H262112   8.987   6.325   0.216
20624WAT      O62113   6.360   2.309   7.543
20624WAT     H162114   6.435   2.375   7.546
20624WAT     H262115   6.285   2.342   7.601
20625WAT      O62116   0.019   3.442   7.456
20625WAT     H162117   0.059   3.377   7.391
20625WAT     H262118  -0.040   3.506   7.407
20626WAT      O62119   7.406   1.150   9.508
20626WAT     H162120   7.433   1.085   9.437
20626WAT     H262121   7.481   1.162   9.573
20627WAT      O62122   7.478   3.065   3.045
20627WAT     H162123   7.550   3.088   2.979
20627WAT     H262124   7.519   3.029   3.128
20628WAT      O62125   4.899   7.925   8.290
20628WAT     H162126   4.972   7.993   8.279
20628WAT     H262127   4.814   7.962   8.253
20629WAT      O62128   7.370   0.397   2.606
20629WAT     H162129   7.456   0.450   2.611
20629WAT     H262130   7.349   0.379   2.510
20630WAT      O62131   5.053   5.660   7.305
20630WAT     H162132   5.037   5.646   7.207
20630WAT     H262133   5.021   5.579   7.355
20631WAT      O62134   2.887   0.983   8.340
20631WAT     H162135   2.791   0.956   8.338
20631WAT     H262136   2.944   0.905   8.365
20632WAT      O62137   3.097   9.460   2.534
20632WAT     H162138   3.013   9.461   2.480
20632WAT     H262139   3.176   9.466   2.473
20633WAT      O62140   5.093   5.231   5.003
20633WAT     H162141   5.178   5.244   5.054
20633WAT     H262142   5.114   5.196   4.912
20634WAT      O62143   2.958   1.421   5.683
20634WAT     H162144   2.959   1.423   5.783
20634WAT     H262145   3.045   1.457   5.648
20635WAT      O62146   2.392   1.176   5.590
20635WAT     H162147   2.417   1.172   5.493
20635WAT     H262148   2.464   1.225   5.640
20636WAT      O62149   3.530   6.995   0.039
20636WAT     H162150   3.488   6.936   0.107
20636WAT     H262151   3.584   6.940  -0.025
20637WAT      O62152   2.105   8.947   7.473
20637WAT     H162153   2.129   8.879   7.404
20637WAT     H262154   2.075   8.901   7.556
20638WAT      O62155   9.399   5.454   5.923
20638WAT     H162156   9.327   5.518   5.896
20638WAT     H262157   9.371   5.360   5.902
20639WAT      O62158   3.283   9.551   8.119
20639WAT     H162159   3.369   9.602   8.119
20639WAT     H262160   3.210   9.611   8.084
20640WAT      O62161   5.566   2.808   6.486
20640WAT     H162162   5.590   2.725   6.436
20640WAT     H262163   5.547   2.881   6.421
20641WAT      O62164   5.316   0.969   9.166
20641WAT     H162165   5.230   1.019   9.161
20641WAT     H262166   5.369   1.000   9.245
20642WAT      O62167   3.753   8.360   8.590
20642WAT     H162168   3.765   8.396   8.498
20642WAT     H262169   3.679   8.293   8.590
20643WAT      O62170   7.496   0.125   3.980
20643WAT     H162171   7.583   0.094   3.943
20643WAT     H262172   7.476   0.217   3.945
20644WAT      O62173   0.957   3.794   1.944
20644WAT     H162174   1.033   3.859   1.947
20644WAT     H262175   0.922   3.788   1.850
20645WAT      O62176   0.246   4.694   9.847
20645WAT     H162177   0.183   4.745   9.788
20645WAT     H262178   0.195   4.632   9.906
20646WAT      O62179   8.305   6.308   6.353
20646WAT     H162180   8.276   6.404   6.350
20646WAT     H262181   8.252   6.256   6.286
20647WAT      O62182   0.084   6.578   0.360
20647WAT     H162183   0.113   6.671   0.382
20647WAT     H262184  -0.003   6.581   0.311
20648WAT      O62185   2.569   5.879   9.431
20648WAT     H162186   2.530   5.797   9.473
20648WAT     H262187   2.510   5.958   9.451
20649WAT      O62188   7.589   7.672   0.499
20649WAT     H162189   7.498   7.667   0.540
20649WAT     H262190   7.590   7.621   0.413
20650WAT      O62191   7.360   9.193   6.015
20650WAT     H162192   7.295   9.155   6.081
20650WAT     H262193   7.360   9.293   6.022
20651WAT      O62194   8.596   1.399   3.946
20651WAT     H162195   8.570   1.303   3.958
20651WAT     H262196   8.695   1.409   3.957
20652WAT      O62197   8.023   1.461   0.335
20652WAT     H162198   8.117   1.436   0.311
20652WAT     H262199   7.965   1.454   0.254
20653WAT      O62200   6.375   7.984   2.647
20653WAT     H162201   6.302   7.993   2.579
20653WAT     H262202   6.374   7.891   2.684
20654WAT      O62203   0.634   2.073   2.772
20654WAT     H162204   0.583   2.157   2.791
20654WAT     H262205   0.717   2.071   2.828
20655WAT      O62206   4.312   1.280   8.524
20655WAT     H162207   4.367   1.198   8.509
20655WAT     H262208   4.283   1.318   8.437
20656WAT      O62209   3.149   5.625   4.525
20656WAT     H162210   3.244   5.592   4.518
20656WAT     H262211   3.146   5.722   4.503
20657WAT      O62212   6.314   8.463   7.096
20657WAT     H162213   6.225   8.449   7.053
20657WAT     H262214   6.351   8.375   7.126
20658WAT      O62215   0.224   4.888   5.252
20658WAT     H162216   0.218   4.944   5.169
20658WAT     H262217   0.273   4.940   5.322
20659WAT      O62218   8.665   7.538   4.526
20659WAT     H162219   8.602   7.476   4.479
20659WAT     H262220   8.757   7.500   4.521
20660WAT      O62221   8.939   2.238   2.349
20660WAT     H162222   8.887   2.288   2.417
20660WAT     H262223   8.885   2.228   2.266
20661WAT      O62224   5.820   1.750   6.388
20661WAT     H162225   5.890   1.720   6.452
20661WAT     H262226   5.857   1.821   6.328
20662WAT      O62227   1.530   9.543   3.092
20662WAT     H162228   1.628   9.562   3.078
20662WAT     H262229   1.481   9.558   3.007
20663WAT      O62230   2.797   4.723   9.533
20663WAT     H162231   2.699   4.745   9.538
20663WAT     H262232   2.845   4.768   9.609
20664WAT      O62233   5.925   8.357   6.606
20664WAT     H162234   5.934   8.442   6.554
20664WAT     H262235   6.012   8.308   6.603
20665WAT      O62236   2.933   9.458   4.030
20665WAT     H162237   2.943   9.395   3.953
20665WAT     H262238   2.974   9.546   4.006
20666WAT      O62239   7.810   2.193   9.669
20666WAT     H162240   7.811   2.191   9.769
20666WAT     H262241   7.724   2.153   9.635
20667WAT      O62242   1.028   7.193   8.719
20667WAT     H162243   0.964   7.267   8.701
20667WAT     H262244   1.112   7.208   8.666
20668WAT      O62245   4.830   9.081   1.523
20668WAT     H162246   4.831   8.985   1.495
20668WAT     H262247   4.905   9.097   1.588
20669WAT      O62248   0.086   7.964   3.715
20669WAT     H162249   0.061   8.061   3.714
20669WAT     H262250   0.169   7.950   3.662
20670WAT      O62251   4.044   5.603   4.550
20670WAT     H162252   4.133   5.636   4.521
20670WAT     H262253   4.053   5.512   4.589
20671WAT      O62254   0.815   3.524   2.685
20671WAT     H162255   0.808   3.617   2.649
20671WAT     H262256   0.868   3.468   2.621
20672WAT      O62257   8.905   1.460   6.152
20672WAT     H162258   8.856   1.546   6.139
20672WAT     H262259   8.971   1.471   6.227
20673WAT      O62260   3.973   3.737   0.458
20673WAT     H162261   3.879   3.722   0.488
20673WAT     H262262   4.001   3.662   0.397
20674WAT      O62263   9.292   2.055   8.846
20674WAT     H162264   9.302   2.008   8.758
20674WAT     H262265   9.323   2.150   8.837
20675WAT      O62266   4.096   5.836   4.339
20675WAT     H162267   4.184   5.832   4.387
20675WAT     H262268   4.073   5.931   4.319
20676WAT      O62269   3.115   5.859   0.970
20676WAT     H162270   3.047   5.928   0.944
20676WAT     H262271   3.145   5.810   0.888
20677WAT      O62272   0.787   8.300   0.376
20677WAT     H162273   0.709   8.351   0.414
20677WAT     H262274   0.754   8.242   0.302
20678WAT      O62275   7.598   5.750   9.185
20678WAT     H162276   7.593   5.719   9.090
20678WAT     H262277   7.679   5.807   9.197
20679WAT      O62278   4.263   9.117   5.738
20679WAT     H162279   4.277   9.164   5.652
20679WAT     H262280   4.165   9.102   5.753
20680WAT      O62281   6.663   3.251   7.808
20680WAT     H162282   6.599   3.325   7.787
20680WAT     H262283   6.685   3.202   7.724
20681WAT      O62284   2.341   3.049   4.419
20681WAT     H162285   2.341   3.057   4.319
20681WAT     H262286   2.249   3.026   4.451
20682WAT      O62287   2.789   2.432   7.120
20682WAT     H162288   2.875   2.386   7.141
20682WAT     H262289   2.788   2.460   7.024
20683WAT      O62290   5.898   0.676   0.367
20683WAT     H162291   5.965   0.604   0.386
20683WAT     H262292   5.806   0.637   0.367
20684WAT      O62293   9.474   6.826   8.001
20684WAT     H162294   9.571   6.833   7.977
20684WAT     H262295   9.432   6.916   7.994
20685WAT      O62296   9.314   3.378   9.672
20685WAT     H162297   9.363   3.374   9.759
20685WAT     H262298   9.311   3.287   9.631
20686WAT      O62299   1.371   9.619   2.878
20686WAT     H162300   1.287   9.673   2.873
20686WAT     H262301   1.365   9.542   2.815
20687WAT      O62302   1.911   8.836   3.596
20687WAT     H162303   1.940   8.742   3.614
20687WAT     H262304   1.987   8.888   3.556
20688WAT      O62305   3.389   5.119   1.323
20688WAT     H162306   3.322   5.139   1.251
20688WAT     H262307   3.476   5.092   1.280
20689WAT      O62308   0.485   0.900   1.274
20689WAT     H162309   0.476   0.957   1.192
20689WAT     H262310   0.577   0.863   1.280
20690WAT      O62311   8.672   0.823   7.869
20690WAT     H162312   8.613   0.881   7.925
20690WAT     H262313   8.765   0.857   7.872
20691WAT      O62314   8.002   6.285   2.716
20691WAT     H162315   7.934   6.242   2.658
20691WAT     H262316   7.964   6.369   2.756
20692WAT      O62317   7.412   6.609   9.613
20692WAT     H162318   7.372   6.525   9.651
20692WAT     H262319   7.361   6.688   9.648
20693WAT      O62320   3.871   2.402   8.800
20693WAT     H162321   3.845   2.498   8.806
20693WAT     H262322   3.837   2.363   8.714
20694WAT      O62323   6.194   7.434   8.334
20694WAT     H162324   6.250   7.516   8.346
20694WAT     H262325   6.242   7.355   8.373
20695WAT      O62326   9.468   4.615   9.298
20695WAT     H162327   9.478   4.542   9.230
20695WAT     H262328   9.377   4.657   9.289
20696WAT      O62329   2.969   8.637   6.316
20696WAT     H162330   3.004   8.587   6.237
20696WAT     H262331   3.047   8.668   6.372
20697WAT      O62332   0.135   2.379   0.359
20697WAT     H162333   0.131   2.453   0.425
20697WAT     H262334   0.043   2.347   0.337
20698WAT      O62335   7.375   6.292   7.620
20698WAT     H162336   7.303   6.236   7.579
20698WAT     H262337   7.461   6.241   7.618
20699WAT      O62338   6.528   0.332   9.646
20699WAT     H162339   6.513   0.245   9.693
20699WAT     H262340   6.441   0.382   9.640
20700WAT      O62341   0.460   9.282   9.675
20700WAT     H162342   0.371   9.307   9.711
20700WAT     H262343   0.463   9.299   9.576
20701WAT      O62344   3.429   8.847   0.556
20701WAT     H162345   3.367   8.774   0.526
20701WAT     H262346   3.524   8.816   0.548
20702WAT      O62347   9.152   9.324   6.087
20702WAT     H162348   9.060   9.312   6.122
20702WAT     H262349   9.181   9.239   6.041
20703WAT      O62350   4.027   4.384   3.646
20703WAT     H162351   3.960   4.365   3.718
20703WAT     H262352   4.003   4.331   3.565
20704WAT      O62353   4.542   6.318   6.741
20704WAT     H162354   4.485   6.350   6.816
20704WAT     H262355   4.610   6.388   6.718
20705WAT      O62356   0.579   4.380   0.324
20705WAT     H162357   0.640   4.445   0.278
20705WAT     H262358   0.506   4.352   0.260
20706WAT      O62359   7.793   6.867   7.366
20706WAT     H162360   7.886   6.885   7.398
20706WAT     H262361   7.779   6.768   7.358
20707WAT      O62362   7.524   7.606   3.681
20707WAT     H162363   7.558   7.620   3.588
20707WAT     H262364   7.453   7.674   3.700
20708WAT      O62365   3.100   1.731   2.497
20708WAT     H162366   3.104   1.631   2.504
20708WAT     H262367   3.113   1.772   2.587
20709WAT      O62368   3.194   1.830   2.747
20709WAT     H162369   3.162   1.831   2.842
20709WAT     H262370   3.265   1.760   2.736
20710WAT      O62371   3.884   6.505   5.122
20710WAT     H162372   3.839   6.416   5.126
20710WAT     H262373   3.970   6.500   5.173
20711WAT      O62374   5.947   3.144   0.255
20711WAT     H162375   5.888   3.065   0.241
20711WAT     H262376   5.922   3.216   0.189
20712WAT      O62377   3.891   5.884   8.774
20712WAT     H162378   3.869   5.925   8.863
20712WAT     H262379   3.977   5.921   8.740
20713WAT      O62380   0.284   0.263   7.248
20713WAT     H162381   0.217   0.188   7.245
20713WAT     H262382   0.352   0.244   7.319
20714WAT      O62383   9.635   2.748   1.333
20714WAT     H162384   9.625   2.847   1.318
20714WAT     H262385   9.731   2.722   1.322
20715WAT      O62386   3.083   2.337   4.618
20715WAT     H162387   3.009   2.378   4.671
20715WAT     H262388   3.157   2.308   4.680
20716WAT      O62389   5.870   9.311   9.521
20716WAT     H162390   5.966   9.325   9.496
20716WAT     H262391   5.852   9.213   9.528
20717WAT      O62392   4.145   1.827   3.783
20717WAT     H162393   4.099   1.907   3.746
20717WAT     H262394   4.082   1.749   3.783
20718WAT      O62395   8.517   6.983   4.999
20718WAT     H162396   8.604   7.032   5.007
20718WAT     H262397   8.459   7.031   4.933
20719WAT      O62398   1.385   4.091   6.308
20719WAT     H162399   1.299   4.100   6.259
20719WAT     H262400   1.443   4.024   6.261
20720WAT      O62401   6.673   7.875   3.500
20720WAT     H162402   6.688   7.809   3.426
20720WAT     H262403   6.735   7.854   3.575
20721WAT      O62404   5.711   5.199   0.544
20721WAT     H162405   5.690   5.275   0.482
20721WAT     H262406   5.698   5.113   0.496
20722WAT      O62407   1.644   1.423   7.428
20722WAT     H162408   1.584   1.346   7.408
20722WAT     H262409   1.739   1.391   7.430
20723WAT      O62410   8.525   3.223   9.286
20723WAT     H162411   8.430   3.238   9.313
20723WAT     H262412   8.534   3.136   9.238
20724WAT      O62413   2.547   4.195   3.291
20724WAT     H162414   2.493   4.232   3.366
20724WAT     H262415   2.566   4.267   3.225
20725WAT      O62416   0.226   4.635   1.661
20725WAT     H162417   0.282   4.666   1.584
20725WAT     H262418   0.200   4.539   1.647
20726WAT      O62419   9.382   0.565   1.374
20726WAT     H162420   9.408   0.516   1.290
20726WAT     H262421   9.284   0.557   1.388
20727WAT      O62422   8.286   7.615   4.105
20727WAT     H162423   8.280   7.516   4.119
20727WAT     H262424   8.367   7.650   4.152
20728WAT      O62425   9.138   3.972   6.187
20728WAT     H162426   9.132   3.976   6.287
20728WAT     H262427   9.060   3.921   6.151
20729WAT      O62428   2.178   3.348   6.292
20729WAT     H162429   2.178   3.378   6.387
20729WAT     H262430   2.088   3.366   6.251
20730WAT      O62431   0.489   4.395   3.857
20730WAT     H162432   0.510   4.337   3.779
20730WAT     H262433   0.397   4.432   3.847
20731WAT      O62434   4.927   3.287   6.142
20731WAT     H162435   5.002   3.249   6.196
20731WAT     H262436   4.859   3.327   6.204
20732WAT      O62437   9.207   6.883   4.762
20732WAT     H162438   9.182   6.959   4.702
20732WAT     H262439   9.304   6.889   4.785
20733WAT      O62440   8.454   7.289   5.973
20733WAT     H162441   8.512   7.321   5.897
20733WAT     H262442   8.510   7.236   6.037
20734WAT      O62443   2.838   1.698   4.369
20734WAT     H162444   2.877   1.670   4.281
20734WAT     H262445   2.816   1.796   4.366
20735WAT      O62446   3.774   3.760   5.063
20735WAT     H162447   3.687   3.726   5.026
20735WAT     H262448   3.758   3.801   5.153
20736WAT      O62449   8.394   2.618   1.442
20736WAT     H162450   8.350   2.625   1.532
20736WAT     H262451   8.335   2.659   1.373
20737WAT      O62452   7.428   0.838   3.040
20737WAT     H162453   7.464   0.868   2.952
20737WAT     H262454   7.351   0.776   3.025
20738WAT      O62455   0.802   0.693   0.935
20738WAT     H162456   0.866   0.702   1.011
20738WAT     H262457   0.709   0.687   0.970
20739WAT      O62458   4.365   9.804   7.124
20739WAT     H162459   4.414   9.867   7.065
20739WAT     H262460   4.413   9.795   7.211
20740WAT      O62461   1.764   1.035   7.591
20740WAT     H162462   1.744   0.980   7.673
20740WAT     H262463   1.829   0.986   7.533
20741WAT      O62464   7.677   7.859   3.826
20741WAT     H162465   7.610   7.914   3.775
20741WAT     H262466   7.733   7.807   3.762
20742WAT      O62467   6.789   0.238   0.213
20742WAT     H162468   6.871   0.260   0.159
20742WAT     H262469   6.735   0.321   0.226
20743WAT      O62470   8.761   0.208   5.904
20743WAT     H162471   8.702   0.198   5.824
20743WAT     H262472   8.851   0.241   5.874
20744WAT      O62473   7.838   4.976   4.654
20744WAT     H162474   7.911   4.907   4.659
20744WAT     H262475   7.862   5.054   4.712
20745WAT      O62476   1.622   0.946   9.414
20745WAT     H162477   1.717   0.937   9.444
20745WAT     H262478   1.620   0.969   9.317
20746WAT      O62479   6.219   7.345   7.518
20746WAT     H162480   6.257   7.319   7.429
20746WAT     H262481   6.281   7.314   7.590
20747WAT      O62482   6.457   8.939   3.250
20747WAT     H162483   6.359   8.958   3.241
20747WAT     H262484   6.476   8.907   3.343
20748WAT      O62485   0.630   9.727   8.529
20748WAT     H162486   0.535   9.711   8.556
20748WAT     H262487   0.674   9.785   8.598
20749WAT      O62488   3.290   6.772   8.865
20749WAT     H162489   3.349   6.757   8.786
20749WAT     H262490   3.328   6.725   8.944
20750WAT      O62491   1.855   1.152   6.742
20750WAT     H162492   1.919   1.099   6.685
20750WAT     H262493   1.768   1.163   6.694
20751WAT      O62494   0.426   6.427   4.009
20751WAT     H162495   0.515   6.437   3.965
20751WAT     H262496   0.388   6.518   4.026
20752WAT      O62497   6.104   2.276   8.115
20752WAT     H162498   6.156   2.265   8.031
20752WAT     H262499   6.012   2.237   8.103
20753WAT      O62500   4.415   6.130   4.505
20753WAT     H162501   4.396   6.179   4.420
20753WAT     H262502   4.330   6.097   4.544
20754WAT      O62503   0.054   8.036   0.578
20754WAT     H162504   0.001   8.056   0.495
20754WAT     H262505   0.032   8.102   0.649
20755WAT      O62506   9.812   2.972   2.369
20755WAT     H162507   9.868   2.928   2.298
20755WAT     H262508   9.844   3.066   2.382
20756WAT      O62509   2.464   1.519   9.806
20756WAT     H162510   2.514   1.602   9.781
20756WAT     H262511   2.366   1.541   9.816
20757WAT      O62512   9.507   4.185   0.420
20757WAT     H162513   9.523   4.264   0.478
20757WAT     H262514   9.564   4.191   0.338
20758WAT      O62515   7.360   1.438   2.589
20758WAT     H162516   7.378   1.342   2.570
20758WAT     H262517   7.446   1.483   2.615
20759WAT      O62518   5.022   5.924   6.293
20759WAT     H162519   4.988   5.867   6.367
20759WAT     H262520   5.059   6.010   6.330
20760WAT      O62521   6.838   8.771   7.445
20760WAT     H162522   6.785   8.769   7.361
20760WAT     H262523   6.809   8.850   7.500
20761WAT      O62524   0.746   9.298   5.501
20761WAT     H162525   0.691   9.333   5.425
20761WAT     H262526   0.691   9.295   5.584
20762WAT      O62527   0.519   3.604   8.897
20762WAT     H162528   0.551   3.691   8.935
20762WAT     H262529   0.540   3.530   8.960
20763WAT      O62530   4.549   2.993   4.488
20763WAT     H162531   4.593   2.932   4.554
20763WAT     H262532   4.461   3.023   4.524
20764WAT      O62533   2.571   4.906   6.880
20764WAT     H162534   2.525   4.818   6.892
20764WAT     H262535   2.608   4.912   6.787
20765WAT      O62536   9.237   6.758   3.434
20765WAT     H162537   9.151   6.761   3.381
20765WAT     H262538   9.313   6.783   3.374
20766WAT      O62539   5.659   6.333   7.084
20766WAT     H162540   5.740   6.327   7.141
20766WAT     H262541   5.579   6.355   7.140
20767WAT      O62542   0.335   4.906   1.187
20767WAT     H162543   0.259   4.937   1.243
20767WAT     H262544   0.416   4.962   1.207
20768WAT      O62545   5.312   9.594   8.984
20768WAT     H162546   5.364   9.511   8.966
20768WAT     H262547   5.220   9.585   8.945
20769WAT      O62548   4.481   4.651   3.278
20769WAT     H162549   4.383   4.647   3.256
20769WAT     H262550   4.493   4.626   3.375
20770WAT      O62551   7.635   2.583   0.179
20770WAT     H162552   7.639   2.626   0.090
20770WAT     H262553   7.565   2.511   0.178
20771WAT      O62554   2.336   5.961   5.220
20771WAT     H162555   2.250   5.927   5.260
20771WAT     H262556   2.410   5.899   5.245
20772WAT      O62557   6.392   5.215   6.072
20772WAT     H162558   6.396   5.257   5.981
20772WAT     H262559   6.484   5.214   6.112
20773WAT      O62560   6.488   7.407   2.023
20773WAT     H162561   6.519   7.482   1.964
20773WAT     H262562   6.412   7.438   2.079
20774WAT      O62563   8.831   8.218   1.774
20774WAT     H162564   8.857   8.151   1.843
20774WAT     H262565   8.760   8.180   1.715
20775WAT      O62566   7.190   8.614   8.352
20775WAT     H162567   7.187   8.639   8.449
20775WAT     H262568   7.283   8.589   8.327
20776WAT      O62569   9.002   2.266   6.711
20776WAT     H162570   9.094   2.275   6.747
20776WAT     H262571   8.970   2.172   6.726
20777WAT      O62572   8.328   1.510   2.230
20777WAT     H162573   8.290   1.537   2.318
20777WAT     H262574   8.353   1.591   2.178
20778WAT      O62575   8.456   1.628   3.469
20778WAT     H162576   8.361   1.659   3.461
20778WAT     H262577   8.474   1.557   3.401
20779WAT      O62578   7.956   0.110   6.066
20779WAT     H162579   7.858   0.131   6.075
20779WAT     H262580   7.977   0.029   6.122
20780WAT      O62581   9.364   5.157   1.415
20780WAT     H162582   9.327   5.075   1.459
20780WAT     H262583   9.406   5.216   1.484
20781WAT      O62584   7.173   5.567   6.963
20781WAT     H162585   7.216   5.624   6.893
20781WAT     H262586   7.087   5.608   6.992
20782WAT      O62587   4.424   6.748   0.530
20782WAT     H162588   4.523   6.759   0.540
20782WAT     H262589   4.378   6.821   0.580
20783WAT      O62590   2.766   8.280   8.941
20783WAT     H162591   2.743   8.372   8.973
20783WAT     H262592   2.683   8.227   8.926
20784WAT      O62593   2.550   8.133   1.457
20784WAT     H162594   2.554   8.034   1.443
20784WAT     H262595   2.643   8.167   1.474
20785WAT      O62596   7.434   7.404   9.484
20785WAT     H162597   7.389   7.413   9.395
20785WAT     H262598   7.386   7.336   9.540
20786WAT      O62599   3.807   6.691   5.825
20786WAT     H162600   3.818   6.768   5.889
20786WAT     H262601   3.718   6.699   5.779
20787WAT      O62602   8.785   0.444   8.884
20787WAT     H162603   8.825   0.535   8.885
20787WAT     H262604   8.853   0.377   8.856
20788WAT      O62605   0.700   8.120   0.181
20788WAT     H162606   0.707   8.187   0.107
20788WAT     H262607   0.720   8.029   0.145
20789WAT      O62608   5.194   2.942   4.506
20789WAT     H162609   5.135   2.862   4.498
20789WAT     H262610   5.149   3.012   4.563
20790WAT      O62611   2.226   7.805   8.877
20790WAT     H162612   2.268   7.843   8.794
20790WAT     H262613   2.267   7.716   8.897
20791WAT      O62614   0.410   5.985   6.147
20791WAT     H162615   0.365   5.950   6.066
20791WAT     H262616   0.387   5.928   6.226
20792WAT      O62617   3.602   0.400   1.779
20792WAT     H162618   3.510   0.376   1.812
20792WAT     H262619   3.642   0.469   1.838
20793WAT      O62620   8.919   5.180   1.194
20793WAT     H162621   8.884   5.229   1.114
20793WAT     H262622   8.939   5.246   1.267
20794WAT      O62623   2.702   4.008   7.191
20794WAT     H162624   2.761   4.003   7.110
20794WAT     H262625   2.610   4.035   7.163
20795WAT      O62626   9.001   8.899   0.665
20795WAT     H162627   8.936   8.924   0.737
20795WAT     H262628   9.049   8.981   0.633
20796WAT      O62629   8.686   2.047   6.853
20796WAT     H162630   8.785   2.059   6.862
20796WAT     H262631   8.654   2.099   6.774
20797WAT      O62632   5.109   6.330   1.653
20797WAT     H162633   5.207   6.346   1.654
20797WAT     H262634   5.086   6.262   1.723
20798WAT      O62635   1.703   2.044   7.120
20798WAT     H162636   1.800   2.026   7.103
20798WAT     H262637   1.690   2.069   7.216
20799WAT      O62638   5.883   7.062   7.765
20799WAT     H162639   5.848   7.150   7.796
20799WAT     H262640   5.929   7.074   7.676
20800WAT      O62641   4.101   0.978   8.965
20800WAT     H162642   4.127   1.040   9.040
20800WAT     H262643   4.099   1.029   8.879
20801WAT      O62644   0.057   6.302   8.062
20801WAT     H162645   0.039   6.396   8.034
20801WAT     H262646   0.125   6.262   8.000
20802WAT      O62647   8.635   9.218   5.862
20802WAT     H162648   8.702   9.146   5.840
20802WAT     H262649   8.578   9.235   5.783
20803WAT      O62650   5.187   2.415   4.142
20803WAT     H162651   5.256   2.476   4.180
20803WAT     H262652   5.216   2.383   4.052
20804WAT      O62653   6.251   7.735   3.207
20804WAT     H162654   6.171   7.700   3.159
20804WAT     H262655   6.257   7.834   3.193
20805WAT      O62656   8.413   1.052   0.664
20805WAT     H162657   8.434   1.131   0.721
20805WAT     H262658   8.483   1.042   0.593
20806WAT      O62659   0.492   3.853   9.031
20806WAT     H162660   0.417   3.856   8.965
20806WAT     H262661   0.498   3.941   9.079
20807WAT      O62662   5.617   7.309   5.302
20807WAT     H162663   5.689   7.258   5.255
20807WAT     H262664   5.651   7.399   5.329
20808WAT      O62665   5.912   1.099   5.254
20808WAT     H162666   5.867   1.160   5.189
20808WAT     H262667   6.005   1.131   5.272
20809WAT      O62668   2.016   1.410   9.240
20809WAT     H162669   2.030   1.435   9.144
20809WAT     H262670   2.102   1.419   9.290
20810WAT      O62671   4.776   6.832   0.566
20810WAT     H162672   4.763   6.798   0.659
20810WAT     H262673   4.809   6.926   0.570
20811WAT      O62674   2.836   5.362   0.272
20811WAT     H162675   2.882   5.334   0.356
20811WAT     H262676   2.904   5.383   0.202
20812WAT      O62677   6.302   3.425   0.174
20812WAT     H162678   6.360   3.503   0.154
20812WAT     H262679   6.339   3.343   0.130
20813WAT      O62680   4.459   0.970   2.076
20813WAT     H162681   4.554   1.000   2.068
20813WAT     H262682   4.432   0.921   1.994
20814WAT      O62683   9.142   1.868   5.822
20814WAT     H162684   9.224   1.923   5.839
20814WAT     H262685   9.162   1.772   5.843
20815WAT      O62686   1.727   3.873   1.241
20815WAT     H162687   1.683   3.952   1.198
20815WAT     H262688   1.826   3.876   1.224
20816WAT      O62689   7.844   3.412   9.402
20816WAT     H162690   7.866   3.329   9.351
20816WAT     H262691   7.823   3.486   9.338
20817WAT      O62692   7.945   9.321   8.255
20817WAT     H162693   8.009   9.246   8.238
20817WAT     H262694   7.992   9.393   8.306
20818WAT      O62695   2.297   7.446   7.731
20818WAT     H162696   2.396   7.460   7.720
20818WAT     H262697   2.262   7.511   7.798
20819WAT      O62698   6.256   3.173   2.920
20819WAT     H162699   6.242   3.088   2.869
20819WAT     H262700   6.300   3.240   2.860
20820WAT      O62701   0.170   6.828   4.809
20820WAT     H162702   0.247   6.839   4.746
20820WAT     H262703   0.087   6.865   4.767
20821WAT      O62704   3.441   1.909   0.676
20821WAT     H162705   3.369   1.970   0.642
20821WAT     H262706   3.400   1.823   0.705
20822WAT      O62707   7.766   0.307   4.174
20822WAT     H162708   7.748   0.215   4.209
20822WAT     H262709   7.683   0.347   4.136
20823WAT      O62710   4.030   5.309   8.621
20823WAT     H162711   4.040   5.403   8.589
20823WAT     H262712   3.934   5.294   8.647
20824WAT      O62713   8.370   4.780   4.570
20824WAT     H162714   8.363   4.821   4.479
20824WAT     H262715   8.291   4.721   4.586
20825WAT      O62716   2.379   8.675   2.543
20825WAT     H162717   2.387   8.592   2.487
20825WAT     H262718   2.363   8.649   2.638
20826WAT      O62719   1.898   5.040   4.859
20826WAT     H162720   1.969   4.972   4.837
20826WAT     H262721   1.894   5.107   4.785
20827WAT      O62722   6.473   6.433   5.752
20827WAT     H162723   6.512   6.363   5.691
20827WAT     H262724   6.540   6.507   5.764
20828WAT      O62725   0.251   0.676   8.732
20828WAT     H162726   0.285   0.597   8.682
20828WAT     H262727   0.280   0.760   8.685
20829WAT      O62728   0.679   0.128   5.553
20829WAT     H162729   0.611   0.056   5.562
20829WAT     H262730   0.707   0.135   5.457
20830WAT      O62731   3.504   0.748   9.379
20830WAT     H162732   3.481   0.718   9.471
20830WAT     H262733   3.554   0.676   9.332
20831WAT      O62734   0.090   3.622   8.046
20831WAT     H162735  -0.010   3.626   8.040
20831WAT     H262736   0.119   3.527   8.054
20832WAT      O62737   9.752   7.512   2.838
20832WAT     H162738   9.760   7.581   2.766
20832WAT     H262739   9.770   7.554   2.927
20833WAT      O62740   2.995   8.595   0.368
20833WAT     H162741   2.987   8.675   0.308
20833WAT     H262742   2.958   8.515   0.322
20834WAT      O62743   9.652   2.526   2.209
20834WAT     H162744   9.606   2.471   2.140
20834WAT     H262745   9.601   2.523   2.294
20835WAT      O62746   4.702   0.523   3.972
20835WAT     H162747   4.640   0.549   3.897
20835WAT     H262748   4.796   0.541   3.945
20836WAT      O62749   0.693   9.749   8.062
20836WAT     H162750   0.711   9.765   7.965
20836WAT     H262751   0.721   9.656   8.086
20837WAT      O62752   8.809   5.243   3.675
20837WAT     H162753   8.907   5.242   3.692
20837WAT     H262754   8.774   5.150   3.673
20838WAT      O62755   2.472   9.807   5.442
20838WAT     H162756   2.433   9.731   5.391
20838WAT     H262757   2.458   9.892   5.391
20839WAT      O62758   0.860   5.147   7.907
20839WAT     H162759   0.776   5.169   7.957
20839WAT     H262760   0.875   5.215   7.836
20840WAT      O62761   8.383   5.802   5.085
20840WAT     H162762   8.338   5.805   5.175
20840WAT     H262763   8.358   5.717   5.038
20841WAT      O62764   7.481   5.348   0.376
20841WAT     H162765   7.576   5.321   0.367
20841WAT     H262766   7.460   5.419   0.308
20842WAT      O62767   5.932   3.286   4.418
20842WAT     H162768   5.968   3.246   4.333
20842WAT     H262769   5.882   3.215   4.468
20843WAT      O62770   3.101   1.674   4.483
20843WAT     H162771   3.157   1.654   4.403
20843WAT     H262772   3.004   1.673   4.457
20844WAT      O62773   0.620   6.853   9.506
20844WAT     H162774   0.675   6.778   9.542
20844WAT     H262775   0.665   6.893   9.427
20845WAT      O62776   4.551   0.133   6.162
20845WAT     H162777   4.522   0.048   6.208
20845WAT     H262778   4.600   0.109   6.078
20846WAT      O62779   7.244   9.175   5.347
20846WAT     H162780   7.188   9.202   5.425
20846WAT     H262781   7.188   9.177   5.264
20847WAT      O62782   0.497   2.931   1.236
20847WAT     H162783   0.455   2.911   1.325
20847WAT     H262784   0.498   2.849   1.180
20848WAT      O62785   2.169   7.785   0.460
20848WAT     H162786   2.161   7.883   0.481
20848WAT     H262787   2.114   7.733   0.525
20849WAT      O62788   8.504   1.380   7.233
20849WAT     H162789   8.523   1.469   7.276
20849WAT     H262790   8.444   1.393   7.154
20850WAT      O62791   8.660   7.498   1.636
20850WAT     H162792   8.663   7.598   1.628
20850WAT     H262793   8.690   7.456   1.551
20851WAT      O62794   9.179   1.174   4.627
20851WAT     H162795   9.089   1.214   4.608
20851WAT     H262796   9.205   1.114   4.551
20852WAT      O62797   6.505   3.888   3.476
20852WAT     H162798   6.538   3.979   3.501
20852WAT     H262799   6.504   3.829   3.557
20853WAT      O62800   5.826   2.783   4.869
20853WAT     H162801   5.841   2.881   4.859
20853WAT     H262802   5.879   2.733   4.801
20854WAT      O62803   8.652   4.604   4.242
20854WAT     H162804   8.728   4.668   4.252
20854WAT     H262805   8.567   4.654   4.227
20855WAT      O62806   5.911   2.045   0.914
20855WAT     H162807   5.966   1.998   0.982
20855WAT     H262808   5.845   1.981   0.874
20856WAT      O62809   8.509   8.411   1.106
20856WAT     H162810   8.430   8.365   1.147
20856WAT     H262811   8.570   8.444   1.178
20857WAT      O62812   0.772   1.008   2.276
20857WAT     H162813   0.809   0.936   2.334
20857WAT     H262814   0.764   1.093   2.329
20858WAT      O62815   6.010   3.894   2.005
20858WAT     H162816   6.053   3.983   2.021
20858WAT     H262817   5.953   3.900   1.923
20859WAT      O62818   9.541   9.620   7.293
20859WAT     H162819   9.552   9.521   7.285
20859WAT     H262820   9.564   9.649   7.386
20860WAT      O62821   9.569   4.861   6.779
20860WAT     H162822   9.605   4.952   6.798
20860WAT     H262823   9.474   4.855   6.809
20861WAT      O62824   3.341   5.078   3.273
20861WAT     H162825   3.301   5.103   3.185
20861WAT     H262826   3.439   5.099   3.271
20862WAT      O62827   9.685   5.695   4.883
20862WAT     H162828   9.671   5.720   4.979
20862WAT     H262829   9.629   5.615   4.861
20863WAT      O62830   1.001   0.141   6.064
20863WAT     H162831   1.032   0.155   5.970
20863WAT     H262832   1.080   0.140   6.126
20864WAT      O62833   8.170   1.919   4.992
20864WAT     H162834   8.227   1.848   5.033
20864WAT     H262835   8.075   1.886   4.985
20865WAT      O62836   5.679   8.590   0.573
20865WAT     H162837   5.659   8.596   0.671
20865WAT     H262838   5.657   8.498   0.541
20866WAT      O62839   7.046   1.396   0.049
20866WAT     H162840   7.066   1.357  -0.041
20866WAT     H262841   7.079   1.491   0.052
20867WAT      O62842   5.254   1.189   7.251
20867WAT     H162843   5.344   1.172   7.292
20867WAT     H262844   5.254   1.153   7.158
20868WAT      O62845   9.128   5.485   8.228
20868WAT     H162846   9.038   5.481   8.186
20868WAT     H262847   9.183   5.556   8.183
20869WAT      O62848   3.400   7.844   3.465
20869WAT     H162849   3.323   7.857   3.403
20869WAT     H262850   3.393   7.753   3.508
20870WAT      O62851   0.837   4.242   4.675
20870WAT     H162852   0.804   4.336   4.672
20870WAT     H262853   0.782   4.190   4.741
20871WAT      O62854   1.402   5.125   7.138
20871WAT     H162855   1.441   5.048   7.188
20871WAT     H262856   1.390   5.101   7.042
20872WAT      O62857   1.258   9.785   5.221
20872WAT     H162858   1.181   9.801   5.283
20872WAT     H262859   1.225   9.741   5.138
20873WAT      O62860   3.418   7.838   7.188
20873WAT     H162861   3.340   7.821   7.248
20873WAT     H262862   3.399   7.918   7.131
20874WAT      O62863   1.771   6.152   1.574
20874WAT     H162864   1.821   6.129   1.657
20874WAT     H262865   1.763   6.251   1.565
20875WAT      O62866   0.564   1.766   0.757
20875WAT     H162867   0.498   1.819   0.704
20875WAT     H262868   0.539   1.768   0.854
20876WAT      O62869   4.025   8.959   7.104
20876WAT     H162870   3.965   9.038   7.116
20876WAT     H262871   4.035   8.911   7.191
20877WAT      O62872   1.335   8.768   5.025
20877WAT     H162873   1.395   8.690   5.043
20877WAT     H262874   1.250   8.735   4.983
20878WAT      O62875   0.427   8.700   0.978
20878WAT     H162876   0.499   8.632   0.961
20878WAT     H262877   0.368   8.669   1.052
20879WAT      O62878   2.334   2.081   0.944
20879WAT     H162879   2.270   2.137   0.997
20879WAT     H262880   2.381   2.017   1.005
20880WAT      O62881   6.160   2.113   2.800
20880WAT     H162882   6.246   2.087   2.844
20880WAT     H262883   6.114   2.031   2.766
20881WAT      O62884   8.225   5.231   3.956
20881WAT     H162885   8.264   5.320   3.984
20881WAT     H262886   8.228   5.169   4.035
20882WAT      O62887   9.174   1.079   6.563
20882WAT     H162888   9.216   1.045   6.479
20882WAT     H262889   9.106   1.149   6.540
20883WAT      O62890   3.752   0.488   2.513
20883WAT     H162891   3.695   0.429   2.457
20883WAT     H262892   3.696   0.563   2.549
20884WAT      O62893   7.991   0.298   3.167
20884WAT     H162894   7.937   0.375   3.135
20884WAT     H262895   8.084   0.306   3.131
20885WAT      O62896   3.524   6.245   9.730
20885WAT     H162897   3.536   6.225   9.632
20885WAT     H262898   3.505   6.342   9.742
20886WAT      O62899   7.851   0.847   8.634
20886WAT     H162900   7.819   0.839   8.540
20886WAT     H262901   7.951   0.839   8.636
20887WAT      O62902   4.316   3.141   2.912
20887WAT     H162903   4.319   3.041   2.908
20887WAT     H262904   4.407   3.177   2.892
20888WAT      O62905   8.447   9.300   4.054
20888WAT     H162906   8.393   9.246   4.119
20888WAT     H262907   8.540   9.263   4.050
20889WAT      O62908   8.492   4.635   2.181
20889WAT     H162909   8.562   4.618   2.112
20889WAT     H262910   8.468   4.732   2.182
20890WAT      O62911   4.777   9.039   2.101
20890WAT     H162912   4.850   9.085   2.152
20890WAT     H262913   4.773   8.943   2.128
20891WAT      O62914   8.294   9.545   2.340
20891WAT     H162915   8.276   9.481   2.414
20891WAT     H262916   8.383   9.525   2.299
20892WAT      O62917   0.158   9.503   5.652
20892WAT     H162918   0.156   9.447   5.735
20892WAT     H262919   0.066   9.507   5.613
20893WAT      O62920   0.209   6.024   7.146
20893WAT     H162921   0.206   5.924   7.152
20893WAT     H262922   0.304   6.054   7.141
20894WAT      O62923   1.143   3.070   1.533
20894WAT     H162924   1.094   3.155   1.516
20894WAT     H262925   1.118   3.035   1.623
20895WAT      O62926   6.368   5.100   4.845
20895WAT     H162927   6.290   5.059   4.892
20895WAT     H262928   6.449   5.093   4.903
20896WAT      O62929   4.788   2.642   2.587
20896WAT     H162930   4.780   2.604   2.679
20896WAT     H262931   4.846   2.583   2.531
20897WAT      O62932   1.979   0.038   9.082
20897WAT     H162933   1.973   0.107   9.154
20897WAT     H262934   1.979   0.082   8.992
20898WAT      O62935   0.363   4.470   1.861
20898WAT     H162936   0.375   4.567   1.843
20898WAT     H262937   0.452   4.424   1.856
20899WAT      O62938   2.375   4.265   7.134
20899WAT     H162939   2.416   4.175   7.121
20899WAT     H262940   2.392   4.296   7.227
20900WAT      O62941   5.134   4.873   3.162
20900WAT     H162942   5.185   4.879   3.075
20900WAT     H262943   5.039   4.851   3.143
20901WAT      O62944   3.411   3.063   6.660
20901WAT     H162945   3.505   3.080   6.692
20901WAT     H262946   3.414   3.008   6.576
20902WAT      O62947   4.601   8.798   7.566
20902WAT     H162948   4.670   8.776   7.635
20902WAT     H262949   4.587   8.897   7.563
20903WAT      O62950   5.061   8.734   0.682
20903WAT     H162951   4.973   8.761   0.720
20903WAT     H262952   5.050   8.711   0.585
20904WAT      O62953   4.809   7.614   7.473
20904WAT     H162954   4.902   7.601   7.437
20904WAT     H262955   4.757   7.672   7.410
20905WAT      O62956   4.634   7.304   5.273
20905WAT     H162957   4.691   7.231   5.311
20905WAT     H262958   4.540   7.293   5.307
20906WAT      O62959   4.139   2.903   1.387
20906WAT     H162960   4.105   2.817   1.426
20906WAT     H262961   4.225   2.928   1.432
20907WAT      O62962   1.330   0.343   8.414
20907WAT     H162963   1.308   0.427   8.366
20907WAT     H262964   1.247   0.303   8.453
20908WAT      O62965   1.221   1.248   1.752
20908WAT     H162966   1.269   1.335   1.763
20908WAT     H262967   1.127   1.265   1.723
20909WAT      O62968   0.209   1.678   5.975
20909WAT     H162969   0.277   1.609   5.998
20909WAT     H262970   0.251   1.769   5.978
20910WAT      O62971   3.063   2.442   9.656
20910WAT     H162972   3.006   2.396   9.588
20910WAT     H262973   3.087   2.534   9.624
20911WAT      O62974   7.936   0.716   1.236
20911WAT     H162975   7.875   0.755   1.305
20911WAT     H262976   7.956   0.786   1.167
20912WAT      O62977   9.258   7.141   6.785
20912WAT     H162978   9.244   7.150   6.687
20912WAT     H262979   9.189   7.079   6.823
20913WAT      O62980   9.101   4.116   0.689
20913WAT     H162981   9.160   4.115   0.608
20913WAT     H262982   9.146   4.068   0.764
20914WAT      O62983   4.793   4.298   5.785
20914WAT     H162984   4.863   4.277   5.853
20914WAT     H262985   4.836   4.338   5.704
20915WAT      O62986   3.654   3.131   6.384
20915WAT     H162987   3.585   3.058   6.386
20915WAT     H262988   3.631   3.196   6.312
20916WAT      O62989   6.821   4.148   7.386
20916WAT     H162990   6.882   4.070   7.369
20916WAT     H262991   6.825   4.174   7.482
20917WAT      O62992   3.456   3.989   8.438
20917WAT     H162993   3.390   4.009   8.365
20917WAT     H262994   3.512   3.910   8.412
20918WAT      O62995   7.121   4.769   0.404
20918WAT     H162996   7.057   4.768   0.481
20918WAT     H262997   7.077   4.813   0.326
20919WAT      O62998   2.587   7.638   6.148
20919WAT     H162999   2.611   7.660   6.054
20919WAT     H263000   2.489   7.617   6.153
20920WAT      O63001   9.462   4.842   8.966
20920WAT     H163002   9.362   4.841   8.969
20920WAT     H263003   9.497   4.750   8.985
20921WAT      O63004   5.927   6.044   9.666
20921WAT     H163005   5.925   5.949   9.636
20921WAT     H263006   5.834   6.080   9.669
20922WAT      O63007   3.786   1.448   5.912
20922WAT     H163008   3.807   1.505   5.833
20922WAT     H263009   3.851   1.468   5.986
20923WAT      O63010   3.251   0.897   5.852
20923WAT     H163011   3.189   0.835   5.900
20923WAT     H263012   3.346   0.868   5.869
20924WAT      O63013   5.140   2.007   9.360
20924WAT     H163014   5.142   1.932   9.294
20924WAT     H263015   5.210   1.992   9.430
20925WAT      O63016   1.113   1.168   9.496
20925WAT     H163017   1.150   1.199   9.583
20925WAT     H263018   1.183   1.118   9.446
20926WAT      O63019   6.713   5.724   5.313
20926WAT     H163020   6.699   5.766   5.403
20926WAT     H263021   6.659   5.772   5.245
20927WAT      O63022   7.517   9.196   8.293
20927WAT     H163023   7.465   9.132   8.350
20927WAT     H263024   7.455   9.246   8.233
20928WAT      O63025   4.726   0.605   8.804
20928WAT     H163026   4.801   0.623   8.740
20928WAT     H263027   4.660   0.543   8.761
20929WAT      O63028   7.557   3.656   4.762
20929WAT     H163029   7.488   3.710   4.713
20929WAT     H263030   7.566   3.691   4.855
20930WAT      O63031   0.768   6.876   9.247
20930WAT     H163032   0.797   6.950   9.186
20930WAT     H263033   0.813   6.791   9.221
20931WAT      O63034   8.450   5.622   6.493
20931WAT     H163035   8.442   5.638   6.394
20931WAT     H263036   8.392   5.687   6.542
20932WAT      O63037   4.411   0.579   1.607
20932WAT     H163038   4.344   0.631   1.554
20932WAT     H263039   4.480   0.540   1.546
20933WAT      O63040   8.568   1.477   5.414
20933WAT     H163041   8.561   1.498   5.511
20933WAT     H263042   8.481   1.500   5.369
20934WAT      O63043   6.792   4.146   8.103
20934WAT     H163044   6.858   4.181   8.170
20934WAT     H263045   6.815   4.052   8.081
20935WAT      O63046   9.872   3.662   0.120
20935WAT     H163047   9.920   3.746   0.142
20935WAT     H263048   9.919   3.615   0.045
20936WAT      O63049   1.534   9.755   1.613
20936WAT     H163050   1.536   9.677   1.675
20936WAT     H263051   1.469   9.823   1.646
20937WAT      O63052   5.582   4.061   2.796
20937WAT     H163053   5.519   4.129   2.760
20937WAT     H263054   5.665   4.058   2.740
20938WAT      O63055   2.391   7.427   4.940
20938WAT     H163056   2.324   7.353   4.930
20938WAT     H263057   2.402   7.474   4.853
20939WAT      O63058   3.637   0.380   8.704
20939WAT     H163059   3.598   0.387   8.796
20939WAT     H263060   3.671   0.470   8.675
20940WAT      O63061   9.395   4.654   4.027
20940WAT     H163062   9.388   4.612   3.936
20940WAT     H263063   9.312   4.706   4.046
20941WAT      O63064   4.890   0.414   1.574
20941WAT     H163065   4.936   0.429   1.487
20941WAT     H263066   4.794   0.391   1.558
20942WAT      O63067   7.603   4.052   8.389
20942WAT     H163068   7.568   4.117   8.457
20942WAT     H263069   7.695   4.023   8.417
20943WAT      O63070   8.041   9.679   0.837
20943WAT     H163071   7.998   9.686   0.927
20943WAT     H263072   8.079   9.587   0.826
20944WAT      O63073   4.112   1.253   7.276
20944WAT     H163074   4.150   1.171   7.232
20944WAT     H263075   4.016   1.236   7.300
20945WAT      O63076   4.325   6.162   9.890
20945WAT     H163077   4.374   6.249   9.886
20945WAT     H263078   4.378   6.092   9.841
20946WAT      O63079   3.286   0.035   0.886
20946WAT     H163080   3.291   0.133   0.903
20946WAT     H263081   3.337   0.012   0.803
20947WAT      O63082   1.945   8.217   3.733
20947WAT     H163083   1.891   8.133   3.727
20947WAT     H263084   1.956   8.256   3.641
20948WAT      O63085   2.612   6.043   6.848
20948WAT     H163086   2.527   6.095   6.851
20948WAT     H263087   2.610   5.981   6.769
20949WAT      O63088   0.495   8.158   9.513
20949WAT     H163089   0.591   8.131   9.517
20949WAT     H263090   0.438   8.087   9.555
20950WAT      O63091   0.256   6.550   2.348
20950WAT     H163092   0.228   6.473   2.406
20950WAT     H263093   0.271   6.631   2.405
20951WAT      O63094   8.959   4.796   6.173
20951WAT     H163095   9.038   4.845   6.211
20951WAT     H263096   8.958   4.702   6.206
20952WAT      O63097   0.828   9.522   8.590
20952WAT     H163098   0.786   9.472   8.666
20952WAT     H263099   0.767   9.595   8.560
20953WAT      O63100   2.732   0.172   9.738
20953WAT     H163101   2.651   0.139   9.787
20953WAT     H263102   2.737   0.272   9.745
20954WAT      O63103   7.110   8.979   1.668
20954WAT     H163104   7.188   8.934   1.626
20954WAT     H263105   7.141   9.038   1.742
20955WAT      O63106   5.653   1.318   7.163
20955WAT     H163107   5.665   1.234   7.111
20955WAT     H263108   5.625   1.296   7.257
20956WAT      O63109   4.964   3.842   7.636
20956WAT     H163110   5.006   3.929   7.662
20956WAT     H263111   4.888   3.859   7.574
20957WAT      O63112   2.295   3.231   3.436
20957WAT     H163113   2.348   3.163   3.487
20957WAT     H263114   2.200   3.202   3.431
20958WAT      O63115   3.575   3.787   0.253
20958WAT     H163116   3.595   3.756   0.346
20958WAT     H263117   3.476   3.783   0.238
20959WAT      O63118   6.375   1.943   1.314
20959WAT     H163119   6.300   2.009   1.301
20959WAT     H263120   6.423   1.964   1.399
20960WAT      O63121   1.680   5.641   3.071
20960WAT     H163122   1.599   5.698   3.055
20960WAT     H263123   1.656   5.545   3.061
20961WAT      O63124   1.123   5.266   5.787
20961WAT     H163125   1.136   5.236   5.692
20961WAT     H263126   1.035   5.312   5.795
20962WAT      O63127   5.618   2.649   8.812
20962WAT     H163128   5.709   2.691   8.810
20962WAT     H263129   5.584   2.649   8.906
20963WAT      O63130   1.918   9.415   8.716
20963WAT     H163131   1.961   9.493   8.761
20963WAT     H263132   1.906   9.341   8.782
20964WAT      O63133   7.460   3.732   2.263
20964WAT     H163134   7.452   3.635   2.242
20964WAT     H263135   7.390   3.783   2.212
20965WAT      O63136   1.238   1.956   8.435
20965WAT     H163137   1.209   1.927   8.344
20965WAT     H263138   1.192   2.041   8.460
20966WAT      O63139   0.250   3.237   0.957
20966WAT     H163140   0.215   3.156   0.910
20966WAT     H263141   0.320   3.211   1.023
20967WAT      O63142   6.232   1.860   7.869
20967WAT     H163143   6.234   1.886   7.965
20967WAT     H263144   6.190   1.932   7.815
20968WAT      O63145   7.067   0.202   1.050
20968WAT     H163146   7.000   0.232   1.119
20968WAT     H263147   7.028   0.127   0.996
20969WAT      O63148   9.787   5.595   0.548
20969WAT     H163149   9.691   5.583   0.570
20969WAT     H263150   9.842   5.529   0.599
20970WAT      O63151   4.857   6.054   2.321
20970WAT     H163152   4.859   6.153   2.308
20970WAT     H263153   4.773   6.016   2.281
20971WAT      O63154   1.893   8.211   9.613
20971WAT     H163155   1.859   8.267   9.688
20971WAT     H263156   1.965   8.150   9.646
20972WAT      O63157   7.451   5.976   7.746
20972WAT     H163158   7.527   6.041   7.742
20972WAT     H263159   7.387   6.003   7.819
20973WAT      O63160   1.677   1.724   3.633
20973WAT     H163161   1.769   1.686   3.646
20973WAT     H263162   1.612   1.673   3.689
20974WAT      O63163   9.852   7.723   5.870
20974WAT     H163164   9.905   7.744   5.787
20974WAT     H263165   9.915   7.706   5.946
20975WAT      O63166   8.777   1.252   6.816
20975WAT     H163167   8.754   1.341   6.855
20975WAT     H263168   8.868   1.224   6.847
20976WAT      O63169   8.564   2.614   6.406
20976WAT     H163170   8.526   2.562   6.329
20976WAT     H263171   8.628   2.557   6.457
20977WAT      O63172   8.582   9.091   8.317
20977WAT     H163173   8.653   9.023   8.305
20977WAT     H263174   8.564   9.137   8.230
20978WAT      O63175   8.211   7.973   7.825
20978WAT     H163176   8.239   8.063   7.791
20978WAT     H263177   8.214   7.907   7.751
20979WAT      O63178   9.670   8.016   7.530
20979WAT     H163179   9.589   8.032   7.586
20979WAT     H263180   9.675   7.918   7.508
20980WAT      O63181   4.905   3.782   2.526
20980WAT     H163182   4.972   3.803   2.597
20980WAT     H263183   4.828   3.731   2.566
20981WAT      O63184   9.283   6.643   8.865
20981WAT     H163185   9.314   6.550   8.883
20981WAT     H263186   9.226   6.644   8.783
20982WAT      O63187   6.289   6.435   5.305
20982WAT     H163188   6.382   6.418   5.339
20982WAT     H263189   6.284   6.526   5.265
20983WAT      O63190   3.545   1.637   7.780
20983WAT     H163191   3.595   1.550   7.774
20983WAT     H263192   3.450   1.624   7.753
20984WAT      O63193   5.853   6.305   6.545
20984WAT     H163194   5.947   6.340   6.539
20984WAT     H263195   5.819   6.288   6.452
20985WAT      O63196   0.133   4.010   9.133
20985WAT     H163197   0.096   4.005   9.226
20985WAT     H263198   0.059   4.030   9.069
20986WAT      O63199   9.711   0.306   5.897
20986WAT     H163200   9.746   0.399   5.885
20986WAT     H263201   9.750   0.266   5.980
20987WAT      O63202   2.427   6.208   0.112
20987WAT     H163203   2.425   6.129   0.173
20987WAT     H263204   2.339   6.217   0.066
20988WAT      O63205   7.776   7.271   3.133
20988WAT     H163206   7.841   7.320   3.074
20988WAT     H263207   7.811   7.270   3.227
20989WAT      O63208   8.090   1.498   6.339
20989WAT     H163209   8.073   1.402   6.316
20989WAT     H263210   8.003   1.543   6.361
20990WAT      O63211   6.405   8.159   6.617
20990WAT     H163212   6.477   8.155   6.547
20990WAT     H263213   6.416   8.082   6.680
20991WAT      O63214   1.122   2.258   1.260
20991WAT     H163215   1.220   2.248   1.248
20991WAT     H263216   1.098   2.356   1.260
20992WAT      O63217   9.442   2.797   0.460
20992WAT     H163218   9.480   2.729   0.397
20992WAT     H263219   9.373   2.851   0.412
20993WAT      O63220   5.033   6.048   3.432
20993WAT     H163221   5.094   6.004   3.498
20993WAT     H263222   4.985   5.978   3.378
20994WAT      O63223   8.932   6.353   2.897
20994WAT     H163224   8.990   6.433   2.880
20994WAT     H263225   8.845   6.383   2.937
20995WAT      O63226   5.403   2.866   5.052
20995WAT     H163227   5.471   2.819   4.996
20995WAT     H263228   5.413   2.836   5.148
20996WAT      O63229   8.167   7.171   5.376
20996WAT     H163230   8.193   7.082   5.413
20996WAT     H263231   8.091   7.160   5.312
20997WAT      O63232   8.064   6.575   6.097
20997WAT     H163233   8.131   6.540   6.032
20997WAT     H263234   8.112   6.613   6.177
20998WAT      O63235   7.172   4.817   2.916
20998WAT     H163236   7.201   4.721   2.917
20998WAT     H263237   7.084   4.825   2.869
20999WAT      O63238   6.704   5.871   3.204
20999WAT     H163239   6.652   5.888   3.288
20999WAT     H263240   6.682   5.942   3.137
21000WAT      O63241   3.730   3.047   1.121
21000WAT     H163242   3.819   3.072   1.158
21000WAT     H263243   3.743   2.986   1.043
21001WAT      O63244   3.466   4.547   2.087
21001WAT     H163245   3.529   4.547   2.009
21001WAT     H263246   3.436   4.453   2.105
21002WAT      O63247   8.798   4.276   4.757
21002WAT     H163248   8.817   4.284   4.855
21002WAT     H263249   8.880   4.299   4.704
21003WAT      O63250   4.341   8.322   4.743
21003WAT     H163251   4.408   8.323   4.669
21003WAT     H263252   4.368   8.253   4.811
21004WAT      O63253   0.424   0.387   5.206
21004WAT     H163254   0.361   0.379   5.284
21004WAT     H263255   0.478   0.471   5.216
21005WAT      O63256   8.923   0.949   1.112
21005WAT     H163257   9.021   0.953   1.092
21005WAT     H263258   8.910   0.913   1.205
21006WAT      O63259   4.135   2.514   8.162
21006WAT     H163260   4.046   2.497   8.204
21006WAT     H263261   4.198   2.439   8.185
21007WAT      O63262   2.008   1.872   5.179
21007WAT     H163263   1.957   1.913   5.103
21007WAT     H263264   2.090   1.926   5.197
21008WAT      O63265   7.371   6.317   0.263
21008WAT     H163266   7.416   6.349   0.346
21008WAT     H263267   7.440   6.297   0.194
21009WAT      O63268   2.265   5.634   6.804
21009WAT     H163269   2.301   5.722   6.774
21009WAT     H263270   2.340   5.576   6.835
21010WAT      O63271   7.237   4.440   2.034
21010WAT     H163272   7.208   4.529   2.071
21010WAT     H263273   7.336   4.430   2.047
21011WAT      O63274   2.122   3.526   0.255
21011WAT     H163275   2.099   3.622   0.244
21011WAT     H263276   2.219   3.518   0.280
21012WAT      O63277   0.397   0.871   3.652
21012WAT     H163278   0.434   0.823   3.572
21012WAT     H263279   0.455   0.949   3.674
21013WAT      O63280   1.876   6.567   3.481
21013WAT     H163281   1.844   6.513   3.403
21013WAT     H263282   1.806   6.634   3.506
21014WAT      O63283   9.271   3.089   3.534
21014WAT     H163284   9.368   3.094   3.557
21014WAT     H263285   9.235   3.181   3.522
21015WAT      O63286   7.679   8.499   9.156
21015WAT     H163287   7.677   8.517   9.255
21015WAT     H263288   7.765   8.453   9.133
21016WAT      O63289   3.161   2.359   1.974
21016WAT     H163290   3.113   2.294   2.032
21016WAT     H263291   3.120   2.450   1.984
21017WAT      O63292   1.918   9.678   1.848
21017WAT     H163293   1.891   9.650   1.940
21017WAT     H263294   1.935   9.777   1.847
21018WAT      O63295   0.389   5.779   1.982
21018WAT     H163296   0.480   5.809   1.955
21018WAT     H263297   0.357   5.833   2.060
21019WAT      O63298   1.585   3.119   5.606
21019WAT     H163299   1.569   3.214   5.580
21019WAT     H263300   1.683   3.099   5.599
21020WAT      O63301   6.245   1.978   3.592
21020WAT     H163302   6.155   1.938   3.576
21020WAT     H263303   6.315   1.908   3.578
21021WAT      O63304   1.704   8.900   7.589
21021WAT     H163305   1.743   8.991   7.578
21021WAT     H263306   1.716   8.870   7.684
21022WAT      O63307   6.789   7.748   2.112
21022WAT     H163308   6.816   7.662   2.067
21022WAT     H263309   6.870   7.802   2.133
21023WAT      O63310   1.892   6.613   4.313
21023WAT     H163311   1.826   6.617   4.387
21023WAT     H263312   1.953   6.535   4.327
21024WAT      O63313   6.758   8.012   4.690
21024WAT     H163314   6.817   8.077   4.738
21024WAT     H263315   6.767   8.026   4.591
21025WAT      O63316   2.862   1.675   6.853
21025WAT     H163317   2.801   1.612   6.901
21025WAT     H263318   2.944   1.626   6.823
21026WAT      O63319   9.014   0.826   7.321
21026WAT     H163320   8.937   0.763   7.310
21026WAT     H263321   9.094   0.775   7.355
21027WAT      O63322   4.999   6.521   5.071
21027WAT     H163323   4.980   6.433   5.114
21027WAT     H263324   5.007   6.509   4.972
21028WAT      O63325   3.408   6.032   2.918
21028WAT     H163326   3.434   5.950   2.867
21028WAT     H263327   3.309   6.046   2.911
21029WAT      O63328   3.091   4.655   1.083
21029WAT     H163329   3.008   4.709   1.067
21029WAT     H263330   3.085   4.610   1.172
21030WAT      O63331   6.013   3.955   0.140
21030WAT     H163332   6.086   4.020   0.162
21030WAT     H263333   6.006   3.886   0.212
21031WAT      O63334   9.354   0.153   8.894
21031WAT     H163335   9.312   0.176   8.806
21031WAT     H263336   9.351   0.054   8.908
21032WAT      O63337   3.577   7.050   8.779
21032WAT     H163338   3.511   7.112   8.737
21032WAT     H263339   3.662   7.099   8.796
21033WAT      O63340   9.299   7.504   1.870
21033WAT     H163341   9.298   7.468   1.777
21033WAT     H263342   9.391   7.536   1.893
21034WAT      O63343   3.989   4.552   6.865
21034WAT     H163344   4.084   4.560   6.835
21034WAT     H263345   3.973   4.617   6.939
21035WAT      O63346   3.323   8.685   8.091
21035WAT     H163347   3.400   8.726   8.043
21035WAT     H263348   3.240   8.696   8.036
21036WAT      O63349   8.040   6.421   3.819
21036WAT     H163350   7.949   6.383   3.805
21036WAT     H263351   8.033   6.510   3.865
21037WAT      O63352   0.307   5.643   7.394
21037WAT     H163353   0.232   5.594   7.439
21037WAT     H263354   0.390   5.589   7.399
21038WAT      O63355   0.798   4.910   3.293
21038WAT     H163356   0.872   4.977   3.286
21038WAT     H263357   0.710   4.956   3.276
21039WAT      O63358   6.880   0.913   5.001
21039WAT     H163359   6.853   1.008   5.010
21039WAT     H263360   6.840   0.874   4.918
21040WAT      O63361   9.128   4.119   2.926
21040WAT     H163362   9.168   4.055   2.860
21040WAT     H263363   9.036   4.145   2.895
21041WAT      O63364   4.941   2.160   1.498
21041WAT     H163365   4.941   2.151   1.399
21041WAT     H263366   4.891   2.084   1.539
21042WAT      O63367   9.687   9.569   3.618
21042WAT     H163368   9.753   9.560   3.691
21042WAT     H263369   9.721   9.635   3.550
21043WAT      O63370   6.210   3.453   1.865
21043WAT     H163371   6.141   3.513   1.824
21043WAT     H263372   6.268   3.506   1.927
21044WAT      O63373   2.613   2.224   8.612
21044WAT     H163374   2.633   2.131   8.644
21044WAT     H263375   2.584   2.221   8.517
21045WAT      O63376   1.685   8.754   2.169
21045WAT     H163377   1.635   8.669   2.183
21045WAT     H263378   1.778   8.745   2.204
21046WAT      O63379   1.412   0.992   6.941
21046WAT     H163380   1.368   0.947   6.863
21046WAT     H263381   1.511   0.978   6.936
21047WAT      O63382   2.306   4.811   8.535
21047WAT     H163383   2.281   4.827   8.631
21047WAT     H263384   2.401   4.782   8.529
21048WAT      O63385   1.245   5.489   2.927
21048WAT     H163386   1.183   5.433   2.872
21048WAT     H263387   1.275   5.438   3.007
21049WAT      O63388   7.777   1.695   9.619
21049WAT     H163389   7.770   1.750   9.536
21049WAT     H263390   7.763   1.753   9.699
21050WAT      O63391   6.243   8.433   4.994
21050WAT     H163392   6.316   8.409   4.930
21050WAT     H263393   6.237   8.533   5.001
21051WAT      O63394   9.314   1.912   3.609
21051WAT     H163395   9.378   1.981   3.574
21051WAT     H263396   9.224   1.953   3.621
21052WAT      O63397   1.864   0.750   6.795
21052WAT     H163398   1.964   0.759   6.787
21052WAT     H263399   1.838   0.654   6.790
21053WAT      O63400   7.993   8.281   5.807
21053WAT     H163401   7.923   8.235   5.753
21053WAT     H263402   7.970   8.273   5.904
21054WAT      O63403   0.641   9.691   2.984
21054WAT     H163404   0.563   9.661   2.928
21054WAT     H263405   0.643   9.638   3.069
21055WAT      O63406   0.112   0.863   3.739
21055WAT     H163407   0.201   0.874   3.694
21055WAT     H263408   0.106   0.772   3.780
21056WAT      O63409   4.947   3.946   9.132
21056WAT     H163410   4.909   3.898   9.054
21056WAT     H263411   4.928   3.895   9.216
21057WAT      O63412   8.096   2.032   6.477
21057WAT     H163413   8.113   2.007   6.381
21057WAT     H263414   8.014   1.986   6.510
21058WAT      O63415   6.347   9.093   5.193
21058WAT     H163416   6.297   9.009   5.174
21058WAT     H263417   6.282   9.167   5.209
21059WAT      O63418   9.807   3.459   5.215
21059WAT     H163419   9.847   3.539   5.260
21059WAT     H263420   9.728   3.427   5.267
21060WAT      O63421   4.955   9.182   8.692
21060WAT     H163422   4.883   9.114   8.704
21060WAT     H263423   5.003   9.165   8.606
21061WAT      O63424   3.646   1.836   6.056
21061WAT     H163425   3.605   1.856   6.145
21061WAT     H263426   3.665   1.922   6.008
21062WAT      O63427   0.088   1.932   7.275
21062WAT     H163428   0.006   1.879   7.253
21062WAT     H263429   0.067   2.001   7.343
21063WAT      O63430   2.752   4.383   2.060
21063WAT     H163431   2.734   4.413   1.966
21063WAT     H263432   2.811   4.449   2.106
21064WAT      O63433   4.585   6.934   8.145
21064WAT     H163434   4.530   7.016   8.162
21064WAT     H263435   4.610   6.931   8.048
21065WAT      O63436   8.891   9.032   2.270
21065WAT     H163437   8.857   9.070   2.357
21065WAT     H263438   8.866   9.093   2.195
21066WAT      O63439   2.297   1.660   8.863
21066WAT     H163440   2.377   1.715   8.884
21066WAT     H263441   2.218   1.720   8.849
21067WAT      O63442   7.442   1.867   2.190
21067WAT     H163443   7.385   1.865   2.272
21067WAT     H263444   7.506   1.790   2.192
21068WAT      O63445   9.047   4.587   3.186
21068WAT     H163446   9.141   4.603   3.156
21068WAT     H263447   9.047   4.556   3.281
21069WAT      O63448   6.780   1.507   7.386
21069WAT     H163449   6.773   1.598   7.344
21069WAT     H263450   6.700   1.492   7.444
21070WAT      O63451   6.551   9.113   4.894
21070WAT     H163452   6.514   9.057   4.820
21070WAT     H263453   6.491   9.105   4.975
21071WAT      O63454   7.571   5.638   2.651
21071WAT     H163455   7.641   5.668   2.586
21071WAT     H263456   7.600   5.662   2.743
21072WAT      O63457   0.510   0.664   0.976
21072WAT     H163458   0.436   0.631   1.034
21072WAT     H263459   0.479   0.667   0.881
21073WAT      O63460   6.163   3.028   0.203
21073WAT     H163461   6.150   2.934   0.171
21073WAT     H263462   6.074   3.071   0.219
21074WAT      O63463   7.458   2.807   6.501
21074WAT     H163464   7.429   2.858   6.421
21074WAT     H263465   7.543   2.759   6.481
21075WAT      O63466   4.331   1.613   0.871
21075WAT     H163467   4.334   1.514   0.863
21075WAT     H263468   4.423   1.650   0.859
21076WAT      O63469   4.158   3.818   8.831
21076WAT     H163470   4.108   3.838   8.747
21076WAT     H263471   4.203   3.902   8.864
21077WAT      O63472   5.117   0.648   5.514
21077WAT     H163473   5.024   0.614   5.499
21077WAT     H263474   5.151   0.692   5.430
21078WAT      O63475   0.768   7.315   8.811
21078WAT     H163476   0.749   7.223   8.846
21078WAT     H263477   0.837   7.359   8.868
21079WAT      O63478   4.209   6.282   1.904
21079WAT     H163479   4.146   6.255   1.831
21079WAT     H263480   4.157   6.303   1.987
21080WAT      O63481   7.206   3.282   1.643
21080WAT     H163482   7.158   3.315   1.562
21080WAT     H263483   7.151   3.212   1.689
21081WAT      O63484   1.528   5.149   0.437
21081WAT     H163485   1.515   5.138   0.339
21081WAT     H263486   1.621   5.124   0.462
21082WAT      O63487   4.084   2.946   6.567
21082WAT     H163488   4.136   2.969   6.649
21082WAT     H263489   4.140   2.888   6.507
21083WAT      O63490   7.806   7.538   4.792
21083WAT     H163491   7.892   7.589   4.793
21083WAT     H263492   7.823   7.445   4.825
21084WAT      O63493   6.623   7.234   9.282
21084WAT     H163494   6.529   7.241   9.250
21084WAT     H263495   6.656   7.140   9.272
21085WAT      O63496   1.476   4.212   9.227
21085WAT     H163497   1.446   4.264   9.148
21085WAT     H263498   1.537   4.269   9.283
21086WAT      O63499   5.817   3.443   8.899
21086WAT     H163500   5.824   3.523   8.960
21086WAT     H263501   5.725   3.439   8.861
21087WAT      O63502   8.549   8.462   7.009
21087WAT     H163503   8.561   8.559   6.987
21087WAT     H263504   8.565   8.407   6.928
21088WAT      O63505   5.523   8.690   8.990
21088WAT     H163506   5.535   8.644   8.902
21088WAT     H263507   5.519   8.623   9.064
21089WAT      O63508   0.891   7.082   2.604
21089WAT     H163509   0.974   7.037   2.637
21089WAT     H263510   0.822   7.013   2.584
21090WAT      O63511   3.518   9.167   4.480
21090WAT     H163512   3.574   9.180   4.398
21090WAT     H263513   3.474   9.078   4.477
21091WAT      O63514   5.386   8.402   7.989
21091WAT     H163515   5.304   8.458   8.002
21091WAT     H263516   5.387   8.329   8.057
21092WAT      O63517   6.170   4.988   1.065
21092WAT     H163518   6.146   5.081   1.092
21092WAT     H263519   6.106   4.956   0.994
21093WAT      O63520   2.257   7.167   6.847
21093WAT     H163521   2.165   7.157   6.885
21093WAT     H263522   2.314   7.218   6.912
21094WAT      O63523   6.039   5.650   6.411
21094WAT     H163524   6.061   5.556   6.437
21094WAT     H263525   5.945   5.654   6.377
21095WAT      O63526   4.141   7.029   6.009
21095WAT     H163527   4.141   7.050   6.107
21095WAT     H263528   4.143   6.929   5.997
21096WAT      O63529   3.952   7.053   9.467
21096WAT     H163530   4.030   7.094   9.515
21096WAT     H263531   3.966   6.955   9.458
21097WAT      O63532   0.625   7.263   7.685
21097WAT     H163533   0.725   7.266   7.692
21097WAT     H263534   0.584   7.284   7.774
21098WAT      O63535   3.246   0.578   8.120
21098WAT     H163536   3.154   0.595   8.083
21098WAT     H263537   3.305   0.655   8.100
21099WAT      O63538   9.485   2.271   5.560
21099WAT     H163539   9.421   2.218   5.505
21099WAT     H263540   9.438   2.309   5.640
21100WAT      O63541   1.861   6.852   2.981
21100WAT     H163542   1.863   6.911   3.061
21100WAT     H263543   1.773   6.860   2.935
21101WAT      O63544   8.114   5.633   5.320
21101WAT     H163545   8.022   5.671   5.327
21101WAT     H263546   8.111   5.549   5.266
21102WAT      O63547   2.105   0.018   9.351
21102WAT     H163548   2.152  -0.020   9.272
21102WAT     H263549   2.006   0.017   9.335
21103WAT      O63550   3.207   9.240   9.814
21103WAT     H163551   3.235   9.228   9.718
21103WAT     H263552   3.136   9.174   9.836
21104WAT      O63553   7.472   5.895   2.675
21104WAT     H163554   7.481   5.933   2.768
21104WAT     H263555   7.504   5.800   2.675
21105WAT      O63556   9.190   8.691   2.951
21105WAT     H163557   9.233   8.781   2.944
21105WAT     H263558   9.261   8.621   2.950
21106WAT      O63559   5.276   7.852   4.567
21106WAT     H163560   5.365   7.879   4.530
21106WAT     H263561   5.247   7.766   4.524
21107WAT      O63562   8.055   8.004   1.283
21107WAT     H163563   7.978   7.952   1.246
21107WAT     H263564   8.076   8.080   1.221
21108WAT      O63565   0.804   9.614   6.493
21108WAT     H163566   0.797   9.541   6.560
21108WAT     H263567   0.834   9.698   6.538
21109WAT      O63568   9.784   7.294   3.367
21109WAT     H163569   9.811   7.320   3.274
21109WAT     H263570   9.703   7.235   3.363
21110WAT      O63571   0.071   7.214   5.026
21110WAT     H163572   0.037   7.156   5.100
21110WAT     H263573   0.171   7.212   5.026
21111WAT      O63574   0.253   0.565   0.328
21111WAT     H163575   0.318   0.501   0.288
21111WAT     H263576   0.239   0.642   0.266
21112WAT      O63577   3.066   5.904   6.512
21112WAT     H163578   3.162   5.923   6.534
21112WAT     H263579   3.060   5.867   6.419
21113WAT      O63580   7.298   0.070   1.109
21113WAT     H163581   7.321   0.038   1.017
21113WAT     H263582   7.231   0.144   1.102
21114WAT      O63583   0.762   1.477   9.262
21114WAT     H163584   0.849   1.525   9.249
21114WAT     H263585   0.780   1.386   9.299
21115WAT      O63586   7.017   6.490   3.689
21115WAT     H163587   7.011   6.391   3.690
21115WAT     H263588   7.043   6.523   3.780
21116WAT      O63589   6.763   0.983   8.950
21116WAT     H163590   6.834   1.012   8.886
21116WAT     H263591   6.685   1.046   8.944
21117WAT      O63592   7.048   5.044   3.060
21117WAT     H163593   7.101   4.971   3.016
21117WAT     H263594   6.976   5.075   2.998
21118WAT      O63595   8.012   1.627   9.435
21118WAT     H163596   8.032   1.658   9.342
21118WAT     H263597   7.941   1.685   9.475
21119WAT      O63598   7.096   9.829   7.924
21119WAT     H163599   7.148   9.905   7.884
21119WAT     H263600   6.999   9.842   7.906
21120WAT      O63601   3.357   1.258   3.146
21120WAT     H163602   3.447   1.297   3.124
21120WAT     H263603   3.365   1.159   3.157
21121WAT      O63604   8.657   3.642   2.690
21121WAT     H163605   8.582   3.689   2.736
21121WAT     H263606   8.633   3.627   2.594
21122WAT      O63607   9.014   5.629   0.373
21122WAT     H163608   9.001   5.530   0.376
21122WAT     H263609   8.953   5.672   0.439
21123WAT      O63610   2.333   5.975   2.962
21123WAT     H163611   2.249   5.922   2.977
21123WAT     H263612   2.404   5.943   3.024
21124WAT      O63613   4.255   5.790   1.160
21124WAT     H163614   4.290   5.805   1.252
21124WAT     H263615   4.157   5.809   1.158
21125WAT      O63616   4.064   7.167   2.564
21125WAT     H163617   4.144   7.225   2.578
21125WAT     H263618   4.092   7.071   2.556
21126WAT      O63619   4.624   1.879   8.820
21126WAT     H163620   4.717   1.855   8.849
21126WAT     H263621   4.624   1.895   8.721
21127WAT      O63622   5.243   0.123   9.309
21127WAT     H163623   5.159   0.091   9.264
21127WAT     H263624   5.317   0.126   9.242
21128WAT      O63625   7.041   3.172   4.132
21128WAT     H163626   6.969   3.105   4.148
21128WAT     H263627   7.027   3.252   4.190
21129WAT      O63628   7.213   6.182   3.764
21129WAT     H163629   7.267   6.111   3.720
21129WAT     H263630   7.235   6.185   3.862
21130WAT      O63631   4.635   7.733   2.623
21130WAT     H163632   4.679   7.675   2.692
21130WAT     H263633   4.706   7.772   2.563
21131WAT      O63634   4.847   3.568   9.210
21131WAT     H163635   4.773   3.515   9.168
21131WAT     H263636   4.808   3.637   9.271
21132WAT      O63637   2.517   3.832   6.505
21132WAT     H163638   2.435   3.889   6.499
21132WAT     H263639   2.503   3.761   6.574
21133WAT      O63640   7.559   8.023   4.002
21133WAT     H163641   7.609   7.968   3.935
21133WAT     H263642   7.486   7.968   4.042
21134WAT      O63643   9.478   2.083   3.498
21134WAT     H163644   9.566   2.041   3.475
21134WAT     H263645   9.450   2.144   3.425
21135WAT      O63646   9.594   7.132   5.074
21135WAT     H163647   9.532   7.063   5.112
21135WAT     H263648   9.687   7.096   5.071
21136WAT      O63649   3.322   9.607   5.983
21136WAT     H163650   3.373   9.641   6.061
21136WAT     H263651   3.230   9.647   5.983
21137WAT      O63652   3.425   0.981   3.549
21137WAT     H163653   3.495   1.032   3.498
21137WAT     H263654   3.360   1.045   3.590
21138WAT      O63655   0.807   2.511   0.448
21138WAT     H163656   0.823   2.607   0.467
21138WAT     H263657   0.860   2.455   0.511
21139WAT      O63658   4.252   0.755   1.470
21139WAT     H163659   4.297   0.806   1.396
21139WAT     H263660   4.157   0.785   1.478
21140WAT      O63661   0.420   6.220   2.822
21140WAT     H163662   0.426   6.230   2.722
21140WAT     H263663   0.359   6.143   2.844
21141WAT      O63664   5.602   9.349   2.861
21141WAT     H163665   5.623   9.445   2.880
21141WAT     H263666   5.638   9.324   2.772
21142WAT      O63667   1.183   3.561   3.726
21142WAT     H163668   1.219   3.652   3.706
21142WAT     H263669   1.235   3.520   3.801
21143WAT      O63670   0.915   7.935   6.612
21143WAT     H163671   0.882   8.021   6.573
21143WAT     H263672   0.864   7.859   6.573
21144WAT      O63673   3.388   3.979   7.888
21144WAT     H163674   3.351   4.054   7.832
21144WAT     H263675   3.458   3.930   7.836
21145WAT      O63676   2.621   3.074   6.943
21145WAT     H163677   2.590   2.997   6.998
21145WAT     H263678   2.701   3.046   6.888
21146WAT      O63679   0.501   2.446   8.057
21146WAT     H163680   0.416   2.447   8.004
21146WAT     H263681   0.479   2.430   8.153
21147WAT      O63682   3.830   2.443   5.035
21147WAT     H163683   3.813   2.403   5.124
21147WAT     H263684   3.743   2.468   4.992
21148WAT      O63685   2.449   0.727   8.968
21148WAT     H163686   2.538   0.690   8.943
21148WAT     H263687   2.449   0.753   9.065
21149WAT      O63688   4.556   8.268   4.562
21149WAT     H163689   4.599   8.337   4.621
21149WAT     H263690   4.625   8.200   4.536
21150WAT      O63691   2.499   0.019   2.539
21150WAT     H163692   2.494  -0.036   2.622
21150WAT     H263693   2.439  -0.022   2.469
21151WAT      O63694   7.473   6.735   6.409
21151WAT     H163695   7.430   6.825   6.400
21151WAT     H263696   7.455   6.681   6.327
21152WAT      O63697   4.943   5.453   5.080
21152WAT     H163698   4.995   5.490   5.157
21152WAT     H263699   4.992   5.376   5.040
21153WAT      O63700   1.876   2.443   2.164
21153WAT     H163701   1.936   2.516   2.134
21153WAT     H263702   1.781   2.467   2.144
21154WAT      O63703   0.026   8.113   1.930
21154WAT     H163704  -0.066   8.125   1.893
21154WAT     H263705   0.032   8.025   1.977
21155WAT      O63706   8.529   2.853   5.369
21155WAT     H163707   8.453   2.817   5.423
21155WAT     H263708   8.613   2.852   5.424
21156WAT      O63709   5.428   0.416   1.141
21156WAT     H163710   5.498   0.479   1.107
21156WAT     H263711   5.471   0.346   1.198
21157WAT      O63712   0.392   4.913   7.197
21157WAT     H163713   0.445   4.916   7.281
21157WAT     H263714   0.295   4.922   7.219
21158WAT      O63715   5.787   2.508   5.410
21158WAT     H163716   5.807   2.607   5.414
21158WAT     H263717   5.730   2.489   5.331
21159WAT      O63718   4.881   2.724   3.020
21159WAT     H163719   4.884   2.643   2.961
21159WAT     H263720   4.968   2.734   3.068
21160WAT      O63721   4.501   1.965   6.021
21160WAT     H163722   4.526   1.992   5.929
21160WAT     H263723   4.488   2.047   6.078
21161WAT      O63724   9.870   4.968   8.177
21161WAT     H163725   9.957   5.007   8.148
21161WAT     H263726   9.853   4.883   8.128
21162WAT      O63727   2.935   9.322   9.197
21162WAT     H163728   2.885   9.395   9.151
21162WAT     H263729   3.020   9.359   9.236
21163WAT      O63730   3.544   1.436   1.514
21163WAT     H163731   3.589   1.420   1.602
21163WAT     H263732   3.554   1.355   1.456
21164WAT      O63733   6.585   3.730   0.685
21164WAT     H163734   6.679   3.702   0.661
21164WAT     H263735   6.522   3.695   0.617
21165WAT      O63736   6.074   0.327   1.411
21165WAT     H163737   5.986   0.309   1.366
21165WAT     H263738   6.141   0.357   1.343
21166WAT      O63739   0.661   8.801   6.204
21166WAT     H163740   0.686   8.898   6.205
21166WAT     H263741   0.661   8.766   6.297
21167WAT      O63742   1.522   2.897   9.234
21167WAT     H163743   1.582   2.883   9.312
21167WAT     H263744   1.543   2.830   9.163
21168WAT      O63745   6.601   6.129   6.308
21168WAT     H163746   6.634   6.092   6.221
21168WAT     H263747   6.673   6.183   6.351
21169WAT      O63748   0.057   6.718   6.588
21169WAT     H163749   0.094   6.809   6.567
21169WAT     H263750   0.039   6.669   6.502
21170WAT      O63751   7.784   7.294   8.862
21170WAT     H163752   7.853   7.250   8.805
21170WAT     H263753   7.722   7.226   8.899
21171WAT      O63754   7.301   5.472   8.131
21171WAT     H163755   7.275   5.483   8.035
21171WAT     H263756   7.365   5.395   8.140
21172WAT      O63757   3.328   9.694   2.703
21172WAT     H163758   3.337   9.766   2.772
21172WAT     H263759   3.320   9.606   2.748
21173WAT      O63760   5.208   2.354   4.431
21173WAT     H163761   5.190   2.355   4.333
21173WAT     H263762   5.219   2.260   4.463
21174WAT      O63763   4.697   0.012   9.059
21174WAT     H163764   4.684   0.087   9.123
21174WAT     H263765   4.657   0.036   8.971
21175WAT      O63766   3.917   0.466   5.721
21175WAT     H163767   3.893   0.422   5.808
21175WAT     H263768   3.839   0.519   5.689
21176WAT      O63769   9.405   5.336   7.981
21176WAT     H163770   9.354   5.332   7.896
21176WAT     H263771   9.409   5.431   8.012
21177WAT      O63772   5.688   8.552   2.758
21177WAT     H163773   5.769   8.583   2.809
21177WAT     H263774   5.612   8.537   2.822
21178WAT      O63775   7.816   4.300   1.629
21178WAT     H163776   7.894   4.332   1.683
21178WAT     H263777   7.733   4.303   1.685
21179WAT      O63778   1.442   5.814   4.026
21179WAT     H163779   1.507   5.777   3.959
21179WAT     H263780   1.459   5.770   4.115
21180WAT      O63781   1.442   2.581   9.860
21180WAT     H163782   1.371   2.598   9.792
21180WAT     H263783   1.402   2.584   9.952
21181WAT      O63784   8.003   8.949   3.856
21181WAT     H163785   7.920   8.908   3.820
21181WAT     H263786   7.980   9.016   3.927
21182WAT      O63787   4.650   7.634   8.209
21182WAT     H163788   4.620   7.636   8.114
21182WAT     H263789   4.746   7.605   8.214
21183WAT      O63790   2.674   9.431   4.084
21183WAT     H163791   2.763   9.460   4.049
21183WAT     H263792   2.685   9.392   4.175
21184WAT      O63793   8.465   5.914   9.354
21184WAT     H163794   8.432   5.860   9.277
21184WAT     H263795   8.490   6.006   9.322
21185WAT      O63796   7.280   4.805   1.457
21185WAT     H163797   7.199   4.782   1.511
21185WAT     H263798   7.338   4.724   1.449
21186WAT      O63799   1.948   9.510   2.059
21186WAT     H163800   2.035   9.501   2.107
21186WAT     H263801   1.930   9.427   2.007
21187WAT      O63802   8.736   6.760   5.853
21187WAT     H163803   8.807   6.818   5.814
21187WAT     H263804   8.656   6.816   5.876
21188WAT      O63805   4.888   9.443   0.138
21188WAT     H163806   4.795   9.435   0.175
21188WAT     H263807   4.894   9.389   0.054
21189WAT      O63808   8.126   4.015   7.601
21189WAT     H163809   8.035   4.006   7.643
21189WAT     H263810   8.149   3.931   7.552
21190WAT      O63811   4.456   0.944   0.560
21190WAT     H163812   4.548   0.905   0.571
21190WAT     H263813   4.388   0.870   0.559
21191WAT      O63814   0.973   5.155   1.874
21191WAT     H163815   0.954   5.104   1.958
21191WAT     H263816   1.070   5.180   1.872
21192WAT      O63817   2.943   1.158   3.447
21192WAT     H163818   2.939   1.068   3.403
21192WAT     H263819   2.873   1.163   3.518
21193WAT      O63820   8.091   1.464   3.816
21193WAT     H163821   8.033   1.476   3.736
21193WAT     H263822   8.154   1.388   3.801
21194WAT      O63823   5.962   4.890   5.686
21194WAT     H163824   6.060   4.874   5.688
21194WAT     H263825   5.940   4.969   5.745
21195WAT      O63826   9.103   9.305   1.904
21195WAT     H163827   9.172   9.242   1.938
21195WAT     H263828   9.126   9.398   1.934
21196WAT      O63829   4.144   7.237   0.850
21196WAT     H163830   4.087   7.164   0.811
21196WAT     H263831   4.147   7.314   0.787
21197WAT      O63832   4.904   6.555   5.480
21197WAT     H163833   4.960   6.636   5.492
21197WAT     H263834   4.943   6.479   5.533
21198WAT      O63835   9.701   1.299   8.062
21198WAT     H163836   9.640   1.221   8.073
21198WAT     H263837   9.678   1.368   8.131
21199WAT      O63838   3.882   0.435   1.077
21199WAT     H163839   3.965   0.482   1.047
21199WAT     H263840   3.902   0.339   1.096
21200WAT      O63841   0.421   7.379   1.158
21200WAT     H163842   0.377   7.326   1.231
21200WAT     H263843   0.507   7.334   1.132
21201WAT      O63844   6.736   0.624   7.493
21201WAT     H163845   6.780   0.566   7.424
21201WAT     H263846   6.782   0.713   7.495
21202WAT      O63847   2.822   5.768   2.510
21202WAT     H163848   2.761   5.843   2.534
21202WAT     H263849   2.767   5.686   2.492
21203WAT      O63850   0.475   2.955   1.741
21203WAT     H163851   0.463   3.048   1.708
21203WAT     H263852   0.566   2.945   1.782
21204WAT      O63853   2.443   3.266   8.014
21204WAT     H163854   2.525   3.299   8.060
21204WAT     H263855   2.363   3.282   8.072
21205WAT      O63856   5.648   7.446   7.469
21205WAT     H163857   5.671   7.350   7.455
21205WAT     H263858   5.630   7.489   7.381
21206WAT      O63859   5.726   9.538   9.562
21206WAT     H163860   5.745   9.444   9.588
21206WAT     H263861   5.786   9.566   9.487
21207WAT      O63862   6.966   3.552   5.668
21207WAT     H163863   7.027   3.477   5.693
21207WAT     H263864   6.996   3.636   5.714
21208WAT      O63865   9.816   4.837   0.723
21208WAT     H163866   9.799   4.899   0.800
21208WAT     H263867   9.876   4.763   0.752
21209WAT      O63868   9.574   7.095   1.456
21209WAT     H163869   9.498   7.030   1.458
21209WAT     H263870   9.600   7.119   1.550
21210WAT      O63871   9.252   1.793   7.398
21210WAT     H163872   9.209   1.832   7.317
21210WAT     H263873   9.294   1.866   7.452
21211WAT      O63874   4.024   6.812   7.050
21211WAT     H163875   3.967   6.879   7.098
21211WAT     H263876   3.966   6.752   6.995
21212WAT      O63877   6.949   2.618   1.746
21212WAT     H163878   6.918   2.558   1.672
21212WAT     H263879   6.988   2.562   1.819
21213WAT      O63880   1.888   2.155   8.904
21213WAT     H163881   1.803   2.167   8.956
21213WAT     H263882   1.965   2.189   8.957
21214WAT      O63883   9.745   5.377   2.484
21214WAT     H163884   9.646   5.388   2.476
21214WAT     H263885   9.791   5.447   2.429
21215WAT      O63886   9.102   4.079   4.628
21215WAT     H163887   9.093   3.984   4.660
21215WAT     H263888   9.021   4.104   4.575
21216WAT      O63889   7.828   0.843   2.078
21216WAT     H163890   7.898   0.914   2.078
21216WAT     H263891   7.739   0.884   2.099
21217WAT      O63892   5.689   9.407   4.479
21217WAT     H163893   5.620   9.377   4.544
21217WAT     H263894   5.708   9.333   4.414
21218WAT      O63895   8.357   6.050   8.069
21218WAT     H163896   8.451   6.018   8.055
21218WAT     H263897   8.338   6.127   8.008
21219WAT      O63898   9.611   4.071   6.155
21219WAT     H163899   9.639   4.074   6.251
21219WAT     H263900   9.612   4.164   6.118
21220WAT      O63901   0.334   2.590   8.965
21220WAT     H163902   0.392   2.671   8.957
21220WAT     H263903   0.382   2.510   8.929
21221WAT      O63904   8.975   2.575   6.940
21221WAT     H163905   8.926   2.661   6.926
21221WAT     H263906   9.070   2.585   6.909
21222WAT      O63907   3.632   9.591   9.754
21222WAT     H163908   3.706   9.543   9.801
21222WAT     H263909   3.578   9.641   9.821
21223WAT      O63910   1.298   3.872   2.699
21223WAT     H163911   1.335   3.958   2.735
21223WAT     H263912   1.208   3.888   2.659
21224WAT      O63913   1.282   3.066   2.401
21224WAT     H163914   1.351   3.138   2.395
21224WAT     H263915   1.323   2.984   2.440
21225WAT      O63916   9.442   7.409   2.375
21225WAT     H163917   9.363   7.469   2.376
21225WAT     H263918   9.415   7.317   2.403
21226WAT      O63919   9.506   0.472   2.237
21226WAT     H163920   9.460   0.525   2.167
21226WAT     H263921   9.542   0.533   2.308
21227WAT      O63922   6.311   3.283   9.781
21227WAT     H163923   6.311   3.233   9.868
21227WAT     H263924   6.217   3.298   9.752
21228WAT      O63925   8.139   6.011   0.602
21228WAT     H163926   8.226   5.967   0.626
21228WAT     H263927   8.124   6.004   0.504
21229WAT      O63928   4.527   4.866   0.761
21229WAT     H163929   4.579   4.802   0.704
21229WAT     H263930   4.511   4.825   0.850
21230WAT      O63931   7.163   2.935   4.546
21230WAT     H163932   7.090   2.942   4.478
21230WAT     H263933   7.129   2.964   4.635
21231WAT      O63934   5.220   1.784   8.481
21231WAT     H163935   5.265   1.748   8.563
21231WAT     H263936   5.159   1.715   8.444
21232WAT      O63937   8.415   0.242   2.565
21232WAT     H163938   8.447   0.148   2.576
21232WAT     H263939   8.335   0.244   2.505
21233WAT      O63940   3.671   0.339   4.983
21233WAT     H163941   3.761   0.296   4.992
21233WAT     H263942   3.677   0.434   5.017
21234WAT      O63943   5.535   5.535   3.478
21234WAT     H163944   5.565   5.448   3.518
21234WAT     H263945   5.502   5.596   3.550
21235WAT      O63946   5.639   8.908   8.232
21235WAT     H163947   5.542   8.926   8.217
21235WAT     H263948   5.658   8.906   8.330
21236WAT      O63949   4.903   2.374   2.388
21236WAT     H163950   4.901   2.455   2.329
21236WAT     H263951   4.910   2.292   2.331
21237WAT      O63952   4.966   5.546   8.530
21237WAT     H163953   4.905   5.526   8.607
21237WAT     H263954   4.935   5.495   8.450
21238WAT      O63955   2.315   2.328   9.237
21238WAT     H163956   2.309   2.284   9.327
21238WAT     H263957   2.259   2.411   9.237
21239WAT      O63958   6.863   8.681   0.580
21239WAT     H163959   6.954   8.671   0.540
21239WAT     H263960   6.802   8.726   0.515
21240WAT      O63961   9.704   5.202   6.116
21240WAT     H163962   9.692   5.266   6.040
21240WAT     H263963   9.761   5.125   6.086
21241WAT      O63964   8.330   1.265   7.404
21241WAT     H163965   8.367   1.256   7.496
21241WAT     H263966   8.402   1.296   7.342
21242WAT      O63967   4.161   9.391   0.658
21242WAT     H163968   4.074   9.342   0.668
21242WAT     H263969   4.143   9.489   0.655
21243WAT      O63970   0.216   0.736   0.868
21243WAT     H163971   0.205   0.788   0.952
21243WAT     H263972   0.161   0.777   0.795
21244WAT      O63973   7.003   3.763   2.573
21244WAT     H163974   7.039   3.855   2.590
21244WAT     H263975   7.032   3.732   2.482
21245WAT      O63976   4.607   7.651   6.236
21245WAT     H163977   4.527   7.710   6.234
21245WAT     H263978   4.613   7.600   6.150
21246WAT      O63979   7.911   1.569   4.409
21246WAT     H163980   7.910   1.656   4.359
21246WAT     H263981   8.000   1.556   4.452
21247WAT      O63982   3.140   0.408   1.929
21247WAT     H163983   3.109   0.499   1.957
21247WAT     H263984   3.062   0.355   1.896
21248WAT      O63985   2.594   6.391   4.444
21248WAT     H163986   2.620   6.362   4.536
21248WAT     H263987   2.675   6.393   4.386
21249WAT      O63988   5.779   6.733   4.409
21249WAT     H163989   5.743   6.813   4.457
21249WAT     H263990   5.879   6.740   4.403
21250WAT      O63991   8.557   6.878   2.447
21250WAT     H163992   8.508   6.958   2.413
21250WAT     H263993   8.494   6.801   2.454
21251WAT      O63994   7.791   8.588   4.170
21251WAT     H163995   7.694   8.562   4.169
21251WAT     H263996   7.804   8.669   4.227
21252WAT      O63997   6.539   4.186   4.131
21252WAT     H163998   6.524   4.276   4.089
21252WAT     H263999   6.512   4.189   4.227
21253WAT      O64000   7.341   8.433   8.924
21253WAT     H164001   7.304   8.345   8.953
21253WAT     H264002   7.409   8.463   8.992
21254WAT      O64003   8.663   3.345   3.699
21254WAT     H164004   8.743   3.362   3.757
21254WAT     H264005   8.684   3.373   3.605
21255WAT      O64006   3.164   7.802   7.894
21255WAT     H164007   3.085   7.792   7.834
21255WAT     H264008   3.175   7.719   7.949
21256WAT      O64009   3.388   8.945   5.799
21256WAT     H164010   3.381   8.849   5.772
21256WAT     H264011   3.469   8.958   5.857
21257WAT      O64012   0.332   2.549   2.818
21257WAT     H164013   0.407   2.531   2.882
21257WAT     H264014   0.334   2.483   2.744
21258WAT      O64015   0.599   2.672   8.289
21258WAT     H164016   0.513   2.712   8.258
21258WAT     H264017   0.629   2.719   8.372
21259WAT      O64018   6.516   2.129   1.530
21259WAT     H164019   6.554   2.045   1.569
21259WAT     H264020   6.478   2.186   1.603
21260WAT      O64021   7.444   6.515   3.709
21260WAT     H164022   7.498   6.534   3.792
21260WAT     H264023   7.419   6.601   3.665
21261WAT      O64024   2.187   2.840   3.818
21261WAT     H164025   2.224   2.805   3.732
21261WAT     H264026   2.178   2.940   3.813
21262WAT      O64027   1.351   5.813   6.884
21262WAT     H164028   1.407   5.874   6.828
21262WAT     H264029   1.297   5.753   6.824
21263WAT      O64030   1.522   4.188   4.885
21263WAT     H164031   1.498   4.172   4.790
21263WAT     H264032   1.591   4.260   4.891
21264WAT      O64033   5.679   2.849   3.589
21264WAT     H164034   5.597   2.896   3.557
21264WAT     H264035   5.733   2.911   3.646
21265WAT      O64036   6.130   1.221   6.643
21265WAT     H164037   6.195   1.225   6.567
21265WAT     H264038   6.155   1.147   6.705
21266WAT      O64039   2.934   9.227   5.485
21266WAT     H164040   2.903   9.190   5.572
21266WAT     H264041   2.864   9.212   5.415
21267WAT      O64042   9.865   4.168   5.120
21267WAT     H164043   9.950   4.124   5.149
21267WAT     H264044   9.816   4.202   5.200
21268WAT      O64045   0.079   1.632   1.513
21268WAT     H164046   0.003   1.595   1.566
21268WAT     H264047   0.042   1.683   1.435
21269WAT      O64048   7.541   9.403   0.136
21269WAT     H164049   7.502   9.495   0.139
21269WAT     H264050   7.624   9.404   0.081
21270WAT      O64051   2.556   0.230   3.085
21270WAT     H164052   2.602   0.310   3.046
21270WAT     H264053   2.619   0.181   3.145
21271WAT      O64054   3.556   6.527   1.906
21271WAT     H164055   3.465   6.523   1.864
21271WAT     H264056   3.561   6.607   1.966
21272WAT      O64057   9.383   9.180   3.378
21272WAT     H164058   9.480   9.158   3.382
21272WAT     H264059   9.339   9.154   3.464
21273WAT      O64060   8.188   3.886   3.368
21273WAT     H164061   8.283   3.868   3.343
21273WAT     H264062   8.137   3.801   3.370
21274WAT      O64063   7.240   1.741   6.684
21274WAT     H164064   7.203   1.800   6.756
21274WAT     H264065   7.298   1.671   6.725
21275WAT      O64066   2.878   9.106   9.539
21275WAT     H164067   2.853   9.091   9.443
21275WAT     H264068   2.808   9.161   9.583
21276WAT      O64069   9.216   6.905   7.657
21276WAT     H164070   9.280   6.828   7.669
21276WAT     H264071   9.267   6.984   7.624
21277WAT      O64072   1.737   4.812   3.334
21277WAT     H164073   1.726   4.715   3.313
21277WAT     H264074   1.650   4.849   3.366
21278WAT      O64075   7.297   9.028   3.135
21278WAT     H164076   7.378   9.000   3.187
21278WAT     H264077   7.267   9.118   3.168
21279WAT      O64078   1.602   9.014   3.177
21279WAT     H164079   1.558   9.102   3.158
21279WAT     H264080   1.533   8.945   3.194
21280WAT      O64081   8.419   5.924   2.266
21280WAT     H164082   8.483   5.847   2.275
21280WAT     H264083   8.468   6.010   2.281
21281WAT      O64084   9.365   9.560   3.493
21281WAT     H164085   9.438   9.493   3.480
21281WAT     H264086   9.278   9.512   3.505
21282WAT      O64087   5.996   2.338   1.643
21282WAT     H164088   5.907   2.342   1.687
21282WAT     H264089   6.064   2.383   1.701
21283WAT      O64090   1.052   8.776   7.312
21283WAT     H164091   1.117   8.835   7.265
21283WAT     H264092   0.968   8.828   7.331
21284WAT      O64093   9.057   4.020   4.294
21284WAT     H164094   9.003   4.018   4.210
21284WAT     H264095   9.016   4.085   4.358
21285WAT      O64096   6.405   6.436   1.069
21285WAT     H164097   6.427   6.348   1.025
21285WAT     H264098   6.446   6.438   1.160
21286WAT      O64099   1.199   9.653   8.058
21286WAT     H164100   1.200   9.643   7.959
21286WAT     H264101   1.128   9.718   8.084
21287WAT      O64102   7.303   6.084   7.978
21287WAT     H164103   7.332   6.132   8.060
21287WAT     H264104   7.253   6.146   7.918
21288WAT      O64105   4.261   6.464   6.572
21288WAT     H164106   4.235   6.456   6.668
21288WAT     H264107   4.307   6.380   6.543
21289WAT      O64108   2.686   5.917   5.589
21289WAT     H164109   2.715   5.826   5.619
21289WAT     H264110   2.611   5.949   5.647
21290WAT      O64111   5.572   8.126   3.914
21290WAT     H164112   5.577   8.226   3.916
21290WAT     H264113   5.613   8.090   3.998
21291WAT      O64114   6.291   6.517   4.899
21291WAT     H164115   6.264   6.572   4.820
21291WAT     H264116   6.239   6.547   4.979
21292WAT      O64117   3.107   3.187   1.129
21292WAT     H164118   3.078   3.265   1.074
21292WAT     H264119   3.027   3.148   1.176
21293WAT      O64120   3.562   7.741   9.867
21293WAT     H164121   3.490   7.710   9.929
21293WAT     H264122   3.538   7.717   9.773
21294WAT      O64123   5.137   3.199   3.764
21294WAT     H164124   5.056   3.257   3.769
21294WAT     H264125   5.155   3.158   3.853
21295WAT      O64126   6.946   9.037   9.507
21295WAT     H164127   7.042   9.064   9.516
21295WAT     H264128   6.935   8.981   9.425
21296WAT      O64129   5.576   6.104   7.607
21296WAT     H164130   5.581   6.057   7.695
21296WAT     H264131   5.668   6.119   7.572
21297WAT      O64132   6.650   9.526   0.078
21297WAT     H164133   6.603   9.453   0.127
21297WAT     H264134   6.721   9.486   0.019
21298WAT      O64135   0.364   9.190   7.989
21298WAT     H164136   0.282   9.144   8.022
21298WAT     H264137   0.442   9.166   8.047
21299WAT      O64138   6.523   2.598   7.889
21299WAT     H164139   6.491   2.678   7.940
21299WAT     H264140   6.579   2.540   7.950
21300WAT      O64141   1.466   2.439   6.130
21300WAT     H164142   1.390   2.423   6.067
21300WAT     H264143   1.503   2.351   6.160
21301WAT      O64144   0.560   4.537   1.481
21301WAT     H164145   0.478   4.592   1.492
21301WAT     H264146   0.603   4.558   1.393
21302WAT      O64147   1.758   5.699   1.710
21302WAT     H164148   1.757   5.708   1.610
21302WAT     H264149   1.679   5.644   1.739
21303WAT      O64150   9.511   9.333   1.661
21303WAT     H164151   9.429   9.330   1.603
21303WAT     H264152   9.484   9.346   1.756
21304WAT      O64153   0.201   7.901   7.705
21304WAT     H164154   0.129   7.966   7.679
21304WAT     H264155   0.245   7.933   7.789
21305WAT      O64156   4.226   9.773   0.090
21305WAT     H164157   4.146   9.795   0.147
21305WAT     H264158   4.197   9.755  -0.003
21306WAT      O64159   9.421   6.558   1.357
21306WAT     H164160   9.455   6.500   1.283
21306WAT     H264161   9.498   6.591   1.411
21307WAT      O64162   7.077   5.603   8.880
21307WAT     H164163   7.113   5.522   8.833
21307WAT     H264164   7.124   5.614   8.968
21308WAT      O64165   8.103   0.777   1.975
21308WAT     H164166   8.041   0.855   1.970
21308WAT     H264167   8.143   0.761   1.884
21309WAT      O64168   4.502   3.974   1.944
21309WAT     H164169   4.420   4.027   1.963
21309WAT     H264170   4.574   4.036   1.909
21310WAT      O64171   8.444   9.613   5.608
21310WAT     H164172   8.462   9.550   5.533
21310WAT     H264173   8.516   9.683   5.610
21311WAT      O64174   8.712   8.262   2.923
21311WAT     H164175   8.685   8.351   2.960
21311WAT     H264176   8.642   8.194   2.947
21312WAT      O64177   1.168   4.175   2.711
21312WAT     H164178   1.103   4.099   2.716
21312WAT     H264179   1.156   4.223   2.624
21313WAT      O64180   7.616   1.813   6.761
21313WAT     H164181   7.635   1.865   6.678
21313WAT     H264182   7.694   1.820   6.824
21314WAT      O64183   7.944   8.342   1.704
21314WAT     H164184   7.939   8.315   1.607
21314WAT     H264185   7.870   8.297   1.754
21315WAT      O64186   2.019   8.002   8.298
21315WAT     H164187   1.990   8.038   8.387
21315WAT     H264188   2.063   8.074   8.246
21316WAT      O64189   2.166   9.278   3.994
21316WAT     H164190   2.221   9.263   4.076
21316WAT     H264191   2.075   9.237   4.007
21317WAT      O64192   9.244   5.345   7.769
21317WAT     H164193   9.160   5.396   7.792
21317WAT     H264194   9.248   5.333   7.670
21318WAT      O64195   9.074   6.415   9.198
21318WAT     H164196   9.116   6.356   9.266
21318WAT     H264197   8.988   6.374   9.166
21319WAT      O64198   3.314   2.193   9.408
21319WAT     H164199   3.271   2.106   9.385
21319WAT     H264200   3.361   2.184   9.496
21320WAT      O64201   0.205   5.450   5.373
21320WAT     H164202   0.276   5.520   5.380
21320WAT     H264203   0.235   5.378   5.310
21321WAT      O64204   0.758   1.265   5.843
21321WAT     H164205   0.783   1.264   5.746
21321WAT     H264206   0.659   1.279   5.852
21322WAT      O64207   5.830   6.319   7.954
21322WAT     H164208   5.762   6.255   7.990
21322WAT     H264209   5.871   6.281   7.871
21323WAT      O64210   3.729   9.606   4.005
21323WAT     H164211   3.664   9.671   3.966
21323WAT     H264212   3.764   9.546   3.932
21324WAT      O64213   7.196   0.757   0.431
21324WAT     H164214   7.098   0.774   0.430
21324WAT     H264215   7.218   0.698   0.509
21325WAT      O64216   1.999   4.621   4.800
21325WAT     H164217   1.955   4.689   4.742
21325WAT     H264218   1.952   4.617   4.889
21326WAT      O64219   6.627   3.423   4.268
21326WAT     H164220   6.631   3.331   4.229
21326WAT     H264221   6.644   3.419   4.366
21327WAT      O64222   9.475   8.716   4.134
21327WAT     H164223   9.525   8.802   4.144
21327WAT     H264224   9.519   8.659   4.065
21328WAT      O64225   3.758   5.997   0.297
21328WAT     H164226   3.740   6.087   0.256
21328WAT     H264227   3.845   6.000   0.346
21329WAT      O64228   4.447   9.711   0.448
21329WAT     H164229   4.539   9.717   0.488
21329WAT     H264230   4.393   9.791   0.475
21330WAT      O64231   2.493   4.255   2.641
21330WAT     H164232   2.561   4.233   2.710
21330WAT     H264233   2.468   4.172   2.591
21331WAT      O64234   0.889   7.975   7.342
21331WAT     H164235   0.828   8.042   7.300
21331WAT     H264236   0.880   7.887   7.295
21332WAT      O64237   7.356   2.491   8.406
21332WAT     H164238   7.371   2.579   8.361
21332WAT     H264239   7.443   2.449   8.428
21333WAT      O64240   1.390   9.554   2.502
21333WAT     H164241   1.469   9.509   2.461
21333WAT     H264242   1.363   9.505   2.585
21334WAT      O64243   7.213   5.060   5.685
21334WAT     H164244   7.158   5.143   5.674
21334WAT     H264245   7.155   4.985   5.718
21335WAT      O64246   9.682   2.567   4.183
21335WAT     H164247   9.622   2.616   4.246
21335WAT     H264248   9.631   2.494   4.138
21336WAT      O64249   6.737   4.005   6.107
21336WAT     H164250   6.828   4.037   6.133
21336WAT     H264251   6.668   4.072   6.134
21337WAT      O64252   1.238   2.017   3.731
21337WAT     H164253   1.210   2.110   3.753
21337WAT     H264254   1.317   1.992   3.786
21338WAT      O64255   4.691   3.645   9.878
21338WAT     H164256   4.593   3.631   9.860
21338WAT     H264257   4.722   3.578   9.945
21339WAT      O64258   6.258   0.907   8.168
21339WAT     H164259   6.311   0.836   8.123
21339WAT     H264260   6.320   0.974   8.209
21340WAT      O64261   9.485   1.666   5.134
21340WAT     H164262   9.450   1.630   5.221
21340WAT     H264263   9.533   1.752   5.151
21341WAT      O64264   9.881   0.098   8.427
21341WAT     H164265   9.884   0.041   8.345
21341WAT     H264266   9.972   0.133   8.448
21342WAT      O64267   8.203   8.095   4.843
21342WAT     H164268   8.171   8.043   4.763
21342WAT     H264269   8.160   8.185   4.844
21343WAT      O64270   3.809   4.617   2.962
21343WAT     H164271   3.755   4.666   3.030
21343WAT     H264272   3.774   4.638   2.870
21344WAT      O64273   9.849   1.720   6.533
21344WAT     H164274   9.921   1.681   6.475
21344WAT     H264275   9.776   1.653   6.545
21345WAT      O64276   9.630   4.681   6.590
21345WAT     H164277   9.730   4.687   6.587
21345WAT     H264278   9.596   4.741   6.662
21346WAT      O64279   4.297   1.633   1.920
21346WAT     H164280   4.303   1.731   1.939
21346WAT     H264281   4.344   1.612   1.834
21347WAT      O64282   1.440   0.434   8.725
21347WAT     H164283   1.446   0.533   8.716
21347WAT     H264284   1.348   0.403   8.699
21348WAT      O64285   1.819   1.480   9.781
21348WAT     H164286   1.915   1.456   9.764
21348WAT     H264287   1.814   1.569   9.826
21349WAT      O64288   0.011   4.772   8.376
21349WAT     H164289   0.104   4.805   8.391
21349WAT     H264290  -0.032   4.827   8.304
21350WAT      O64291   7.706   0.303   7.002
21350WAT     H164292   7.641   0.347   6.940
21350WAT     H264293   7.800   0.322   6.971
21351WAT      O64294   8.354   8.089   3.278
21351WAT     H164295   8.362   8.186   3.256
21351WAT     H264296   8.297   8.078   3.360
21352WAT      O64297   5.829   9.071   9.653
21352WAT     H164298   5.789   9.001   9.712
21352WAT     H264299   5.927   9.054   9.643
21353WAT      O64300   1.003   8.452   2.083
21353WAT     H164301   1.073   8.412   2.024
21353WAT     H264302   0.920   8.469   2.030
21354WAT      O64303   9.183   5.315   8.639
21354WAT     H164304   9.218   5.292   8.548
21354WAT     H264305   9.249   5.287   8.708
21355WAT      O64306   0.324   9.438   2.261
21355WAT     H164307   0.328   9.360   2.198
21355WAT     H264308   0.237   9.438   2.309
21356WAT      O64309   0.808   8.164   6.503
21356WAT     H164310   0.714   8.150   6.533
21356WAT     H264311   0.810   8.224   6.423
21357WAT      O64312   6.712   4.871   0.061
21357WAT     H164313   6.698   4.808  -0.015
21357WAT     H264314   6.721   4.819   0.146
21358WAT      O64315   5.753   2.696   5.844
21358WAT     H164316   5.826   2.632   5.867
21358WAT     H264317   5.794   2.784   5.818
21359WAT      O64318   1.115   0.192   8.526
21359WAT     H164319   1.046   0.187   8.454
21359WAT     H264320   1.126   0.101   8.567
21360WAT      O64321   9.347   5.362   9.752
21360WAT     H164322   9.295   5.294   9.701
21360WAT     H264323   9.308   5.372   9.844
21361WAT      O64324   4.294   7.847   4.932
21361WAT     H164325   4.292   7.841   5.032
21361WAT     H264326   4.212   7.894   4.900
21362WAT      O64327   7.423   5.725   0.404
21362WAT     H164328   7.497   5.692   0.463
21362WAT     H264329   7.412   5.823   0.416
21363WAT      O64330   7.734   3.580   9.213
21363WAT     H164331   7.674   3.604   9.137
21363WAT     H264332   7.828   3.575   9.182
21364WAT      O64333   4.862   1.422   5.008
21364WAT     H164334   4.938   1.377   4.961
21364WAT     H264335   4.779   1.414   4.953
21365WAT      O64336   5.269   1.240   5.746
21365WAT     H164337   5.354   1.279   5.710
21365WAT     H264338   5.253   1.150   5.705
21366WAT      O64339   9.717   8.294   3.940
21366WAT     H164340   9.816   8.304   3.945
21366WAT     H264341   9.680   8.270   4.030
21367WAT      O64342   7.086   9.843   4.193
21367WAT     H164343   7.137   9.758   4.210
21367WAT     H264344   7.018   9.855   4.265
21368WAT      O64345   9.782   6.577   0.718
21368WAT     H164346   9.814   6.483   0.730
21368WAT     H264347   9.859   6.639   0.726
21369WAT      O64348   3.537   4.570   0.055
21369WAT     H164349   3.464   4.607  -0.003
21369WAT     H264350   3.506   4.484   0.096
21370WAT      O64351   8.742   5.874   9.795
21370WAT     H164352   8.766   5.777   9.791
21370WAT     H264353   8.802   5.921   9.859
21371WAT      O64354   2.285   3.823   6.773
21371WAT     H164355   2.299   3.770   6.690
21371WAT     H264356   2.247   3.913   6.750
21372WAT      O64357   5.929   6.602   8.645
21372WAT     H164358   6.014   6.552   8.627
21372WAT     H264359   5.858   6.570   8.582
21373WAT      O64360   2.998   1.377   3.762
21373WAT     H164361   2.921   1.320   3.735
21373WAT     H264362   2.968   1.444   3.830
21374WAT      O64363   6.814   3.416   2.100
21374WAT     H164364   6.835   3.323   2.132
21374WAT     H264365   6.717   3.436   2.118
21375WAT      O64366   5.145   8.709   3.427
21375WAT     H164367   5.077   8.777   3.455
21375WAT     H264368   5.101   8.638   3.371
21376WAT      O64369   1.085   9.133   9.596
21376WAT     H164370   1.053   9.185   9.517
21376WAT     H264371   1.006   9.094   9.645
21377WAT      O64372   4.509   5.558   7.976
21377WAT     H164373   4.416   5.559   7.939
21377WAT     H264374   4.574   5.584   7.906
21378WAT      O64375   9.605   4.126   8.336
21378WAT     H164376   9.542   4.172   8.398
21378WAT     H264377   9.693   4.174   8.337
21379WAT      O64378   8.693   8.268   0.472
21379WAT     H164379   8.766   8.201   0.467
21379WAT     H264380   8.730   8.356   0.501
21380WAT      O64381   1.095   2.183   1.839
21380WAT     H164382   1.093   2.283   1.828
21380WAT     H264383   1.182   2.148   1.803
21381WAT      O64384   5.066   7.706   0.521
21381WAT     H164385   5.071   7.761   0.438
21381WAT     H264386   5.080   7.765   0.601
21382WAT      O64387   5.827   6.472   1.904
21382WAT     H164388   5.869   6.550   1.950
21382WAT     H264389   5.850   6.474   1.806
21383WAT      O64390   2.899   6.229   8.906
21383WAT     H164391   2.981   6.178   8.880
21383WAT     H264392   2.914   6.327   8.888
21384WAT      O64393   2.413   3.846   4.502
21384WAT     H164394   2.323   3.889   4.493
21384WAT     H264395   2.412   3.784   4.581
21385WAT      O64396   5.432   4.950   0.808
21385WAT     H164397   5.373   4.953   0.727
21385WAT     H264398   5.471   5.041   0.823
21386WAT      O64399   9.688   3.366   6.856
21386WAT     H164400   9.718   3.460   6.838
21386WAT     H264401   9.650   3.361   6.949
21387WAT      O64402   5.669   9.188   6.519
21387WAT     H164403   5.698   9.282   6.499
21387WAT     H264404   5.740   9.143   6.573
21388WAT      O64405   8.175   3.823   5.608
21388WAT     H164406   8.169   3.859   5.515
21388WAT     H264407   8.271   3.801   5.629
21389WAT      O64408   1.722   1.979   7.612
21389WAT     H164409   1.670   1.968   7.697
21389WAT     H264410   1.756   2.073   7.606
21390WAT      O64411   9.200   0.132   6.811
21390WAT     H164412   9.212   0.223   6.771
21390WAT     H264413   9.167   0.068   6.741
21391WAT      O64414   3.086   6.435   4.117
21391WAT     H164415   3.064   6.500   4.190
21391WAT     H264416   3.061   6.474   4.029
21392WAT      O64417   3.370   4.073   1.445
21392WAT     H164418   3.464   4.040   1.456
21392WAT     H264419   3.337   4.109   1.532
21393WAT      O64420   0.334   5.959   5.615
21393WAT     H164421   0.433   5.969   5.605
21393WAT     H264422   0.314   5.897   5.691
21394WAT      O64423   3.446   5.704   0.588
21394WAT     H164424   3.474   5.762   0.511
21394WAT     H264425   3.486   5.613   0.577
21395WAT      O64426   2.982   9.327   0.454
21395WAT     H164427   3.028   9.369   0.375
21395WAT     H264428   3.049   9.299   0.522
21396WAT      O64429   6.561   9.310   9.228
21396WAT     H164430   6.648   9.355   9.250
21396WAT     H264431   6.576   9.244   9.155
21397WAT      O64432   1.686   4.292   9.620
21397WAT     H164433   1.587   4.299   9.634
21397WAT     H264434   1.705   4.293   9.522
21398WAT      O64435   1.588   7.826   5.426
21398WAT     H164436   1.507   7.803   5.480
21398WAT     H264437   1.560   7.856   5.335
21399WAT      O64438   1.448   2.802   8.292
21399WAT     H164439   1.411   2.857   8.367
21399WAT     H264440   1.429   2.705   8.309
21400WAT      O64441   4.080   6.843   2.230
21400WAT     H164442   4.054   6.919   2.289
21400WAT     H264443   4.180   6.834   2.229
21401WAT      O64444   0.370   4.678   1.047
21401WAT     H164445   0.350   4.728   0.963
21401WAT     H264446   0.364   4.740   1.125
21402WAT      O64447   1.109   8.697   7.902
21402WAT     H164448   1.073   8.618   7.852
21402WAT     H264449   1.125   8.672   7.997
21403WAT      O64450   7.954   0.135   2.231
21403WAT     H164451   8.018   0.185   2.173
21403WAT     H264452   7.893   0.079   2.174
21404WAT      O64453   3.697   9.775   6.022
21404WAT     H164454   3.708   9.697   5.960
21404WAT     H264455   3.787   9.809   6.050
21405WAT      O64456   2.475   9.064   5.171
21405WAT     H164457   2.514   9.095   5.085
21405WAT     H264458   2.545   9.016   5.224
21406WAT      O64459   6.671   5.689   0.198
21406WAT     H164460   6.761   5.729   0.214
21406WAT     H264461   6.641   5.711   0.105
21407WAT      O64462   2.019   6.258   2.145
21407WAT     H164463   2.031   6.264   2.045
21407WAT     H264464   2.091   6.312   2.190
21408WAT      O64465   2.123   6.366   6.769
21408WAT     H164466   2.099   6.404   6.858
21408WAT     H264467   2.188   6.427   6.724
21409WAT      O64468   9.011   4.949   9.093
21409WAT     H164469   8.948   4.871   9.094
21409WAT     H264470   8.971   5.024   9.040
21410WAT      O64471   9.293   0.298   3.703
21410WAT     H164472   9.282   0.325   3.608
21410WAT     H264473   9.370   0.348   3.744
21411WAT      O64474   3.317   8.047   2.848
21411WAT     H164475   3.369   7.994   2.781
21411WAT     H264476   3.224   8.061   2.816
21412WAT      O64477   4.315   0.681   7.863
21412WAT     H164478   4.230   0.716   7.904
21412WAT     H264479   4.297   0.592   7.821
21413WAT      O64480   1.374   2.314   1.001
21413WAT     H164481   1.326   2.401   0.991
21413WAT     H264482   1.462   2.320   0.953
21414WAT      O64483   4.422   4.995   2.980
21414WAT     H164484   4.489   5.005   3.053
21414WAT     H264485   4.331   4.978   3.020
21415WAT      O64486   0.948   3.078   5.953
21415WAT     H164487   0.903   3.165   5.974
21415WAT     H264488   0.915   3.007   6.016
21416WAT      O64489   4.103   2.904   9.778
21416WAT     H164490   4.094   2.884   9.875
21416WAT     H264491   4.081   2.823   9.724
21417WAT      O64492   3.866   0.936   8.168
21417WAT     H164493   3.828   0.970   8.254
21417WAT     H264494   3.864   1.009   8.099
21418WAT      O64495   2.371   0.289   7.688
21418WAT     H164496   2.450   0.269   7.746
21418WAT     H264497   2.307   0.348   7.737
21419WAT      O64498   6.211   1.315   7.165
21419WAT     H164499   6.127   1.341   7.117
21419WAT     H264500   6.237   1.222   7.138
21420WAT      O64501   1.410   5.099   3.147
21420WAT     H164502   1.483   5.094   3.078
21420WAT     H264503   1.397   5.194   3.176
21421WAT      O64504   2.487   9.552   3.173
21421WAT     H164505   2.522   9.461   3.195
21421WAT     H264506   2.563   9.617   3.171
21422WAT      O64507   0.370   2.514   7.465
21422WAT     H164508   0.303   2.584   7.487
21422WAT     H264509   0.434   2.502   7.541
21423WAT      O64510   3.514   2.390   7.609
21423WAT     H164511   3.504   2.489   7.616
21423WAT     H264512   3.523   2.364   7.512
21424WAT      O64513   0.230   0.578   9.389
21424WAT     H164514   0.185   0.574   9.479
21424WAT     H264515   0.309   0.640   9.395
21425WAT      O64516   0.539   4.491   7.961
21425WAT     H164517   0.634   4.482   7.990
21425WAT     H264518   0.512   4.410   7.909
21426WAT      O64519   1.481   7.700   9.833
21426WAT     H164520   1.445   7.792   9.851
21426WAT     H264521   1.412   7.632   9.857
21427WAT      O64522   4.645   2.435   2.877
21427WAT     H164523   4.745   2.442   2.873
21427WAT     H264524   4.616   2.347   2.839
21428WAT      O64525   4.287   8.668   4.662
21428WAT     H164526   4.347   8.714   4.597
21428WAT     H264527   4.332   8.661   4.751
21429WAT      O64528   4.751   4.553   3.549
21429WAT     H164529   4.783   4.642   3.516
21429WAT     H264530   4.661   4.563   3.591
21430WAT      O64531   4.679   3.102   9.578
21430WAT     H164532   4.609   3.050   9.530
21430WAT     H264533   4.677   3.197   9.546
21431WAT      O64534   2.396   2.808   6.774
21431WAT     H164535   2.418   2.794   6.870
21431WAT     H264536   2.301   2.782   6.757
21432WAT      O64537   0.856   9.622   1.948
21432WAT     H164538   0.867   9.525   1.968
21432WAT     H264539   0.909   9.646   1.867
21433WAT      O64540   1.174   5.852   3.981
21433WAT     H164541   1.274   5.857   3.980
21433WAT     H264542   1.136   5.942   4.001
21434WAT      O64543   7.207   9.133   2.592
21434WAT     H164544   7.306   9.125   2.601
21434WAT     H264545   7.184   9.217   2.543
21435WAT      O64546   4.385   8.432   1.294
21435WAT     H164547   4.396   8.531   1.284
21435WAT     H264548   4.357   8.393   1.206
21436WAT      O64549   8.325   7.652   0.384
21436WAT     H164550   8.297   7.741   0.420
21436WAT     H264551   8.371   7.600   0.456
21437WAT      O64552   9.440   6.385   5.227
21437WAT     H164553   9.477   6.348   5.313
21437WAT     H264554   9.512   6.385   5.157
21438WAT      O64555   3.929   7.023   2.355
21438WAT     H164556   3.833   7.011   2.379
21438WAT     H264557   3.976   7.071   2.429
21439WAT      O64558   8.125   5.494   7.025
21439WAT     H164559   8.036   5.478   6.983
21439WAT     H264560   8.190   5.425   6.992
21440WAT      O64561   6.856   3.479   6.038
21440WAT     H164562   6.932   3.540   6.013
21440WAT     H264563   6.787   3.482   5.966
21441WAT      O64564   2.306   4.245   6.732
21441WAT     H164565   2.403   4.222   6.735
21441WAT     H264566   2.285   4.292   6.647
21442WAT      O64567   5.642   1.995   2.860
21442WAT     H164568   5.704   1.917   2.856
21442WAT     H264569   5.643   2.042   2.772
21443WAT      O64570   4.780   2.250   8.662
21443WAT     H164571   4.786   2.179   8.591
21443WAT     H264572   4.684   2.262   8.687
21444WAT      O64573   6.880   4.233   8.666
21444WAT     H164574   6.949   4.165   8.690
21444WAT     H264575   6.854   4.285   8.748
21445WAT      O64576   7.883   1.748   8.658
21445WAT     H164577   7.791   1.783   8.670
21445WAT     H264578   7.881   1.648   8.658
21446WAT      O64579   4.050   1.210   5.949
21446WAT     H164580   3.994   1.286   5.918
21446WAT     H264581   4.145   1.224   5.920
21447WAT      O64582   5.247   9.183   1.356
21447WAT     H164583   5.213   9.115   1.291
21447WAT     H264584   5.324   9.145   1.407
21448WAT      O64585   4.052   6.067   3.738
21448WAT     H164586   4.106   6.124   3.801
21448WAT     H264587   4.103   6.054   3.653
21449WAT      O64588   0.229   3.324   2.479
21449WAT     H164589   0.247   3.410   2.432
21449WAT     H264590   0.186   3.260   2.415
21450WAT      O64591   1.895   1.920   6.745
21450WAT     H164592   1.926   1.985   6.815
21450WAT     H264593   1.851   1.842   6.789
21451WAT      O64594   5.921   2.433   6.804
21451WAT     H164595   5.865   2.438   6.887
21451WAT     H264596   6.012   2.401   6.828
21452WAT      O64597   8.162   2.906   7.010
21452WAT     H164598   8.152   2.995   7.054
21452WAT     H264599   8.259   2.886   6.997
21453WAT      O64600   3.939   4.973   8.831
21453WAT     H164601   4.020   5.032   8.820
21453WAT     H264602   3.966   4.877   8.822
21454WAT      O64603   2.755   4.473   8.836
21454WAT     H164604   2.778   4.570   8.823
21454WAT     H264605   2.673   4.451   8.783
21455WAT      O64606   7.607   1.538   2.648
21455WAT     H164607   7.653   1.579   2.569
21455WAT     H264608   7.574   1.610   2.709
21456WAT      O64609   1.561   2.207   8.771
21456WAT     H164610   1.621   2.286   8.779
21456WAT     H264611   1.501   2.218   8.692
21457WAT      O64612   3.574   3.642   4.005
21457WAT     H164613   3.618   3.616   4.091
21457WAT     H264614   3.608   3.585   3.931
21458WAT      O64615   1.974   2.834   5.747
21458WAT     H164616   1.942   2.790   5.830
21458WAT     H264617   2.069   2.810   5.730
21459WAT      O64618   5.404   7.797   9.105
21459WAT     H164619   5.371   7.764   9.016
21459WAT     H264620   5.415   7.896   9.102
21460WAT      O64621   3.325   3.489   8.261
21460WAT     H164622   3.328   3.398   8.220
21460WAT     H264623   3.403   3.500   8.323
21461WAT      O64624   6.876   0.485   1.905
21461WAT     H164625   6.896   0.582   1.919
21461WAT     H264626   6.918   0.455   1.820
21462WAT      O64627   2.328   2.642   5.061
21462WAT     H164628   2.248   2.696   5.087
21462WAT     H264629   2.392   2.699   5.009
21463WAT      O64630   3.517   0.530   7.758
21463WAT     H164631   3.423   0.552   7.734
21463WAT     H264632   3.565   0.497   7.677
21464WAT      O64633   2.863   3.133   7.797
21464WAT     H164634   2.784   3.110   7.854
21464WAT     H264635   2.838   3.206   7.733
21465WAT      O64636   7.769   3.558   4.612
21465WAT     H164637   7.718   3.509   4.541
21465WAT     H264638   7.704   3.601   4.676
21466WAT      O64639   9.008   4.834   8.441
21466WAT     H164640   8.958   4.836   8.528
21466WAT     H264641   9.077   4.907   8.442
21467WAT      O64642   1.594   6.882   2.630
21467WAT     H164643   1.585   6.895   2.729
21467WAT     H264644   1.592   6.971   2.584
21468WAT      O64645   4.810   2.648   1.911
21468WAT     H164646   4.794   2.550   1.925
21468WAT     H264647   4.876   2.661   1.838
21469WAT      O64648   3.693   8.397   0.330
21469WAT     H164649   3.621   8.462   0.307
21469WAT     H264650   3.672   8.308   0.289
21470WAT      O64651   6.487   9.369   1.845
21470WAT     H164652   6.527   9.301   1.906
21470WAT     H264653   6.514   9.461   1.873
21471WAT      O64654   1.428   2.323   3.552
21471WAT     H164655   1.356   2.385   3.582
21471WAT     H264656   1.492   2.307   3.627
21472WAT      O64657   4.154   2.195   2.681
21472WAT     H164658   4.162   2.277   2.738
21472WAT     H264659   4.207   2.208   2.597
21473WAT      O64660   2.493   7.171   0.902
21473WAT     H164661   2.440   7.246   0.861
21473WAT     H264662   2.505   7.098   0.834
21474WAT      O64663   5.270   7.400   9.621
21474WAT     H164664   5.339   7.398   9.548
21474WAT     H264665   5.253   7.307   9.653
21475WAT      O64666   3.273   5.173   7.111
21475WAT     H164667   3.199   5.232   7.079
21475WAT     H264668   3.236   5.104   7.173
21476WAT      O64669   1.181   5.130   6.210
21476WAT     H164670   1.156   5.037   6.237
21476WAT     H264671   1.199   5.133   6.112
21477WAT      O64672   7.040   3.039   5.066
21477WAT     H164673   7.095   2.983   5.128
21477WAT     H264674   6.945   3.037   5.094
21478WAT      O64675   8.145   8.176   9.032
21478WAT     H164676   8.172   8.151   9.125
21478WAT     H264677   8.046   8.171   9.023
21479WAT      O64678   0.253   3.695   6.703
21479WAT     H164679   0.206   3.625   6.649
21479WAT     H264680   0.194   3.776   6.709
21480WAT      O64681   2.033   7.154   9.503
21480WAT     H164682   2.119   7.191   9.470
21480WAT     H264683   1.996   7.214   9.574
21481WAT      O64684   7.684   4.840   4.291
21481WAT     H164685   7.684   4.939   4.278
21481WAT     H264686   7.628   4.816   4.370
21482WAT      O64687   5.656   2.178   5.985
21482WAT     H164688   5.680   2.093   5.938
21482WAT     H264689   5.736   2.238   5.989
21483WAT      O64690   7.359   7.115   8.744
21483WAT     H164691   7.278   7.148   8.794
21483WAT     H264692   7.380   7.178   8.670
21484WAT      O64693   1.686   3.374   0.922
21484WAT     H164694   1.654   3.439   0.991
21484WAT     H264695   1.785   3.364   0.930
21485WAT      O64696   5.168   2.305   2.586
21485WAT     H164697   5.208   2.326   2.676
21485WAT     H264698   5.114   2.383   2.555
21486WAT      O64699   9.443   8.014   7.666
21486WAT     H164700   9.364   8.075   7.658
21486WAT     H264701   9.469   8.006   7.762
21487WAT      O64702   1.481   1.960   3.866
21487WAT     H164703   1.497   1.863   3.844
21487WAT     H264704   1.528   1.982   3.951
21488WAT      O64705   3.334   3.130   3.639
21488WAT     H164706   3.352   3.163   3.732
21488WAT     H264707   3.383   3.044   3.624
21489WAT      O64708   9.579   6.977   7.448
21489WAT     H164709   9.611   7.041   7.378
21489WAT     H264710   9.648   6.907   7.463
21490WAT      O64711   4.477   7.479   3.139
21490WAT     H164712   4.487   7.573   3.109
21490WAT     H264713   4.567   7.439   3.157
21491WAT      O64714   5.322   0.213   3.703
21491WAT     H164715   5.393   0.142   3.701
21491WAT     H264716   5.365   0.302   3.715
21492WAT      O64717   2.336   3.005   2.212
21492WAT     H164718   2.306   2.940   2.282
21492WAT     H264719   2.259   3.064   2.186
21493WAT      O64720   9.111   1.270   3.636
21493WAT     H164721   9.015   1.295   3.648
21493WAT     H264722   9.168   1.332   3.690
21494WAT      O64723   1.923   8.583   2.926
21494WAT     H164724   1.897   8.532   3.008
21494WAT     H264725   2.013   8.624   2.940
21495WAT      O64726   5.067   4.311   1.807
21495WAT     H164727   5.102   4.404   1.820
21495WAT     H264728   5.103   4.251   1.879
21496WAT      O64729   2.757   8.291   2.470
21496WAT     H164730   2.774   8.288   2.568
21496WAT     H264731   2.711   8.207   2.441
21497WAT      O64732   8.170   7.059   8.514
21497WAT     H164733   8.260   7.043   8.554
21497WAT     H264734   8.162   7.010   8.428
21498WAT      O64735   0.525   8.174   8.294
21498WAT     H164736   0.538   8.148   8.198
21498WAT     H264737   0.589   8.247   8.317
21499WAT      O64738   6.499   8.590   9.068
21499WAT     H164739   6.578   8.539   9.036
21499WAT     H264740   6.416   8.557   9.022
21500WAT      O64741   6.741   6.283   9.064
21500WAT     H164742   6.810   6.221   9.102
21500WAT     H264743   6.650   6.247   9.082
21501WAT      O64744   8.041   2.801   7.808
21501WAT     H164745   7.995   2.847   7.733
21501WAT     H264746   7.977   2.738   7.853
21502WAT      O64747   5.735   4.443   8.865
21502WAT     H164748   5.805   4.511   8.839
21502WAT     H264749   5.780   4.366   8.911
21503WAT      O64750   8.652   7.174   8.773
21503WAT     H164751   8.631   7.171   8.871
21503WAT     H264752   8.750   7.161   8.759
21504WAT      O64753   4.618   3.233   5.335
21504WAT     H164754   4.609   3.280   5.423
21504WAT     H264755   4.546   3.165   5.326
21505WAT      O64756   5.419   6.914   7.122
21505WAT     H164757   5.458   6.988   7.177
21505WAT     H264758   5.482   6.836   7.122
21506WAT      O64759   0.607   7.566   4.312
21506WAT     H164760   0.584   7.503   4.238
21506WAT     H264761   0.570   7.532   4.398
21507WAT      O64762   5.086   4.581   6.625
21507WAT     H164763   5.176   4.618   6.645
21507WAT     H264764   5.041   4.637   6.555
21508WAT      O64765   0.971   8.623   9.640
21508WAT     H164766   1.000   8.657   9.729
21508WAT     H264767   1.005   8.684   9.568
21509WAT      O64768   9.533   2.194   8.004
21509WAT     H164769   9.612   2.152   8.048
21509WAT     H264770   9.451   2.139   8.021
21510WAT      O64771   0.682   5.793   6.161
21510WAT     H164772   0.776   5.814   6.190
21510WAT     H264773   0.623   5.790   6.242
21511WAT      O64774   1.340   1.032   3.722
21511WAT     H164775   1.376   1.110   3.671
21511WAT     H264776   1.291   0.971   3.659
21512WAT      O64777   3.729   8.526   2.794
21512WAT     H164778   3.758   8.522   2.890
21512WAT     H264779   3.805   8.499   2.735
21513WAT      O64780   5.699   0.642   4.784
21513WAT     H164781   5.797   0.632   4.799
21513WAT     H264782   5.681   0.648   4.685
21514WAT      O64783   8.244   4.930   8.657
21514WAT     H164784   8.195   5.012   8.685
21514WAT     H264785   8.253   4.869   8.736
21515WAT      O64786   0.348   2.838   8.710
21515WAT     H164787   0.269   2.892   8.681
21515WAT     H264788   0.391   2.883   8.789
21516WAT      O64789   0.926   8.661   8.221
21516WAT     H164790   0.936   8.754   8.259
21516WAT     H264791   0.831   8.632   8.229
21517WAT      O64792   4.176   8.253   4.063
21517WAT     H164793   4.272   8.278   4.056
21517WAT     H264794   4.141   8.278   4.154
21518WAT      O64795   8.497   6.679   0.042
21518WAT     H164796   8.553   6.713  -0.033
21518WAT     H264797   8.438   6.752   0.076
21519WAT      O64798   5.398   2.466   8.485
21519WAT     H164799   5.484   2.460   8.535
21519WAT     H264800   5.408   2.424   8.395
21520WAT      O64801   4.317   5.655   4.182
21520WAT     H164802   4.355   5.739   4.142
21520WAT     H264803   4.311   5.665   4.281
21521WAT      O64804   6.067   7.643   3.041
21521WAT     H164805   5.978   7.621   3.079
21521WAT     H264806   6.112   7.560   3.010
21522WAT      O64807   7.024   3.605   2.068
21522WAT     H164808   7.031   3.648   1.978
21522WAT     H264809   6.935   3.559   2.076
21523WAT      O64810   0.141   5.859   4.056
21523WAT     H164811   0.208   5.870   4.129
21523WAT     H264812   0.162   5.922   3.981
21524WAT      O64813   6.935   8.701   2.783
21524WAT     H164814   6.975   8.779   2.831
21524WAT     H264815   6.978   8.617   2.815
21525WAT      O64816   8.097   9.649   9.185
21525WAT     H164817   8.096   9.553   9.157
21525WAT     H264818   8.182   9.692   9.154
21526WAT      O64819   6.395   9.710   0.418
21526WAT     H164820   6.392   9.709   0.318
21526WAT     H264821   6.480   9.752   0.448
21527WAT      O64822   2.237   7.128   3.173
21527WAT     H164823   2.220   7.036   3.139
21527WAT     H264824   2.277   7.124   3.264
21528WAT      O64825   6.199   1.998   2.023
21528WAT     H164826   6.254   1.964   1.947
21528WAT     H264827   6.259   2.042   2.090
21529WAT      O64828   3.994   5.871   1.162
21529WAT     H164829   3.952   5.808   1.096
21529WAT     H264830   3.965   5.964   1.143
21530WAT      O64831   0.841   7.736   0.609
21530WAT     H164832   0.872   7.723   0.514
21530WAT     H264833   0.756   7.788   0.609
21531WAT      O64834   7.902   0.046   4.772
21531WAT     H164835   7.967  -0.030   4.786
21531WAT     H264836   7.945   0.132   4.801
21532WAT      O64837   3.897   9.249   1.311
21532WAT     H164838   3.815   9.223   1.260
21532WAT     H264839   3.971   9.185   1.291
21533WAT      O64840   9.878   1.811   2.780
21533WAT     H164841   9.817   1.757   2.838
21533WAT     H264842   9.973   1.784   2.796
21534WAT      O64843   3.614   8.468   3.465
21534WAT     H164844   3.592   8.420   3.381
21534WAT     H264845   3.685   8.417   3.514
21535WAT      O64846   7.998   8.264   0.307
21535WAT     H164847   8.041   8.253   0.217
21535WAT     H264848   7.910   8.218   0.308
21536WAT      O64849   1.773   1.575   5.622
21536WAT     H164850   1.826   1.642   5.674
21536WAT     H264851   1.756   1.611   5.530
21537WAT      O64852   1.241   2.993   3.895
21537WAT     H164853   1.288   2.908   3.869
21537WAT     H264854   1.230   3.050   3.814
21538WAT      O64855   7.240   5.971   1.448
21538WAT     H164856   7.172   6.008   1.385
21538WAT     H264857   7.214   5.879   1.476
21539WAT      O64858   9.677   3.842   6.974
21539WAT     H164859   9.764   3.846   7.025
21539WAT     H264860   9.604   3.813   7.036
21540WAT      O64861   9.760   4.762   5.729
21540WAT     H164862   9.741   4.705   5.809
21540WAT     H264863   9.699   4.736   5.655
21541WAT      O64864   1.350   8.766   6.551
21541WAT     H164865   1.416   8.829   6.593
21541WAT     H264866   1.398   8.702   6.491
21542WAT      O64867   8.001   7.347   9.335
21542WAT     H164868   7.978   7.357   9.238
21542WAT     H264869   8.072   7.413   9.359
21543WAT      O64870   1.935   3.963   3.360
21543WAT     H164871   1.880   4.034   3.315
21543WAT     H264872   1.903   3.873   3.332
21544WAT      O64873   1.478   5.756   9.780
21544WAT     H164874   1.386   5.723   9.759
21544WAT     H264875   1.502   5.829   9.717
21545WAT      O64876   3.510   4.159   6.560
21545WAT     H164877   3.504   4.096   6.483
21545WAT     H264878   3.470   4.116   6.641
21546WAT      O64879   7.052   2.258   9.230
21546WAT     H164880   7.106   2.304   9.299
21546WAT     H264881   7.015   2.173   9.267
21547WAT      O64882   4.636   2.794   5.338
21547WAT     H164883   4.622   2.824   5.433
21547WAT     H264884   4.701   2.718   5.336
21548WAT      O64885   1.708   3.339   0.188
21548WAT     H164886   1.632   3.322   0.124
21548WAT     H264887   1.676   3.399   0.262
21549WAT      O64888   3.467   8.499   2.909
21549WAT     H164889   3.427   8.588   2.927
21549WAT     H264890   3.558   8.510   2.867
21550WAT      O64891   7.265   8.516   9.269
21550WAT     H164892   7.170   8.499   9.294
21550WAT     H264893   7.272   8.605   9.223
21551WAT      O64894   5.486   4.168   1.794
21551WAT     H164895   5.442   4.078   1.800
21551WAT     H264896   5.458   4.224   1.872
21552WAT      O64897   9.057   3.906   3.369
21552WAT     H164898   9.000   3.989   3.363
21552WAT     H264899   9.102   3.890   3.281
21553WAT      O64900   2.981   2.472   3.491
21553WAT     H164901   2.973   2.471   3.391
21553WAT     H264902   2.899   2.432   3.532
21554WAT      O64903   5.345   9.243   4.383
21554WAT     H164904   5.413   9.184   4.426
21554WAT     H264905   5.304   9.302   4.452
21555WAT      O64906   7.298   4.678   3.638
21555WAT     H164907   7.269   4.714   3.549
21555WAT     H264908   7.311   4.579   3.630
21556WAT      O64909   4.180   2.568   5.116
21556WAT     H164910   4.215   2.554   5.208
21556WAT     H264911   4.157   2.480   5.075
21557WAT      O64912   2.932   8.481   3.724
21557WAT     H164913   2.949   8.529   3.810
21557WAT     H264914   3.017   8.440   3.692
21558WAT      O64915   0.968   4.749   6.547
21558WAT     H164916   0.879   4.705   6.554
21558WAT     H264917   1.040   4.680   6.546
21559WAT      O64918   9.473   3.194   0.321
21559WAT     H164919   9.399   3.135   0.289
21559WAT     H264920   9.521   3.151   0.396
21560WAT      O64921   4.752   6.746   0.846
21560WAT     H164922   4.681   6.803   0.888
21560WAT     H264923   4.839   6.760   0.892
21561WAT      O64924   4.103   8.991   7.885
21561WAT     H164925   4.159   9.058   7.935
21561WAT     H264926   4.060   9.036   7.807
21562WAT      O64927   5.634   8.328   0.519
21562WAT     H164928   5.646   8.237   0.557
21562WAT     H264929   5.548   8.331   0.467
21563WAT      O64930   9.714   4.037   6.410
21563WAT     H164931   9.807   4.031   6.447
21563WAT     H264932   9.660   3.959   6.443
21564WAT      O64933   8.639   0.237   5.668
21564WAT     H164934   8.632   0.334   5.648
21564WAT     H264935   8.714   0.197   5.614
21565WAT      O64936   8.598   7.200   7.754
21565WAT     H164937   8.614   7.287   7.802
21565WAT     H264938   8.591   7.126   7.821
21566WAT      O64939   0.324   4.531   8.665
21566WAT     H164940   0.323   4.480   8.752
21566WAT     H264941   0.235   4.522   8.620
21567WAT      O64942   1.608   1.231   8.028
21567WAT     H164943   1.689   1.200   7.980
21567WAT     H264944   1.526   1.203   7.978
21568WAT      O64945   5.573   0.351   5.110
21568WAT     H164946   5.556   0.350   5.012
21568WAT     H264947   5.663   0.314   5.130
21569WAT      O64948   6.715   1.794   4.714
21569WAT     H164949   6.704   1.729   4.789
21569WAT     H264950   6.752   1.746   4.634
21570WAT      O64951   1.946   3.452   7.149
21570WAT     H164952   1.886   3.523   7.185
21570WAT     H264953   1.902   3.363   7.157
21571WAT      O64954   6.551   1.070   2.260
21571WAT     H164955   6.452   1.065   2.248
21571WAT     H264956   6.592   1.117   2.182
21572WAT      O64957   4.084   0.632   4.383
21572WAT     H164958   4.178   0.644   4.350
21572WAT     H264959   4.056   0.715   4.431
21573WAT      O64960   9.557   4.363   2.942
21573WAT     H164961   9.540   4.269   2.973
21573WAT     H264962   9.654   4.374   2.921
21574WAT      O64963   5.647   9.706   0.586
21574WAT     H164964   5.737   9.750   0.583
21574WAT     H264965   5.616   9.702   0.681
21575WAT      O64966   7.178   0.269   5.990
21575WAT     H164967   7.263   0.261   6.043
21575WAT     H264968   7.124   0.186   6.001
21576WAT      O64969   8.667   6.340   2.708
21576WAT     H164970   8.669   6.436   2.738
21576WAT     H264971   8.739   6.290   2.756
21577WAT      O64972   8.869   9.835   4.903
21577WAT     H164973   8.888   9.750   4.854
21577WAT     H264974   8.814   9.895   4.845
21578WAT      O64975   3.221   8.064   4.022
21578WAT     H164976   3.201   8.161   4.032
21578WAT     H264977   3.270   8.048   3.937
21579WAT      O64978   5.941   1.973   1.755
21579WAT     H164979   6.020   2.032   1.739
21579WAT     H264980   5.911   1.982   1.850
21580WAT      O64981   8.207   7.788   8.879
21580WAT     H164982   8.150   7.777   8.961
21580WAT     H264983   8.149   7.794   8.799
21581WAT      O64984   6.566   2.964   1.230
21581WAT     H164985   6.591   2.868   1.243
21581WAT     H264986   6.477   2.982   1.271
21582WAT      O64987   2.978   0.789   7.660
21582WAT     H164988   2.929   0.702   7.653
21582WAT     H264989   3.063   0.784   7.607
21583WAT      O64990   4.162   2.626   8.851
21583WAT     H164991   4.062   2.629   8.856
21583WAT     H264992   4.195   2.695   8.787
21584WAT      O64993   6.676   9.798   1.527
21584WAT     H164994   6.702   9.709   1.564
21584WAT     H264995   6.703   9.802   1.430
21585WAT      O64996   9.171   8.784   1.870
21585WAT     H164997   9.189   8.699   1.820
21585WAT     H264998   9.085   8.775   1.920
21586WAT      O64999   7.586   4.872   9.693
21586WAT     H165000   7.573   4.936   9.769
21586WAT     H265001   7.502   4.820   9.678
21587WAT      O65002   7.688   0.637   9.411
21587WAT     H165003   7.740   0.630   9.327
21587WAT     H265004   7.631   0.555   9.422
21588WAT      O65005   6.726   6.831   7.204
21588WAT     H165006   6.773   6.916   7.183
21588WAT     H265007   6.636   6.851   7.243
21589WAT      O65008   8.306   8.974   3.203
21589WAT     H165009   8.402   8.978   3.231
21589WAT     H265010   8.298   8.918   3.120
21590WAT      O65011   7.850   8.234   9.612
21590WAT     H165012   7.881   8.274   9.698
21590WAT     H265013   7.923   8.177   9.573
21591WAT      O65014   3.215   1.984   1.751
21591WAT     H165015   3.236   1.899   1.800
21591WAT     H265016   3.223   1.967   1.652
21592WAT      O65017   7.306   6.065   1.703
21592WAT     H165018   7.394   6.029   1.735
21592WAT     H265019   7.283   6.022   1.615
21593WAT      O65020   6.643   9.803   4.482
21593WAT     H165021   6.543   9.805   4.481
21593WAT     H265022   6.676   9.806   4.577
21594WAT      O65023   6.625   5.319   9.777
21594WAT     H165024   6.563   5.280   9.845
21594WAT     H265025   6.719   5.317   9.811
21595WAT      O65026   0.951   7.109   0.797
21595WAT     H165027   0.874   7.100   0.733
21595WAT     H265028   1.002   7.023   0.801
21596WAT      O65029   1.635   1.695   2.892
21596WAT     H165030   1.626   1.596   2.899
21596WAT     H265031   1.610   1.737   2.980
21597WAT      O65032   6.612   5.903   1.254
21597WAT     H165033   6.616   5.875   1.349
21597WAT     H265034   6.675   5.847   1.200
21598WAT      O65035   5.964   5.934   4.823
21598WAT     H165036   6.042   5.992   4.800
21598WAT     H265037   5.994   5.840   4.833
21599WAT      O65038   5.042   8.179   0.542
21599WAT     H165039   5.050   8.246   0.468
21599WAT     H265040   4.992   8.099   0.510
21600WAT      O65041   8.086   0.196   9.530
21600WAT     H165042   8.172   0.236   9.500
21600WAT     H265043   8.098   0.157   9.622
21601WAT      O65044   5.657   8.502   5.411
21601WAT     H165045   5.688   8.408   5.428
21601WAT     H265046   5.648   8.551   5.497
21602WAT      O65047   4.814   8.856   2.822
21602WAT     H165048   4.837   8.759   2.810
21602WAT     H265049   4.775   8.891   2.737
21603WAT      O65050   3.738   3.678   8.665
21603WAT     H165051   3.679   3.640   8.736
21603WAT     H265052   3.815   3.617   8.650
21604WAT      O65053   5.421   5.105   3.744
21604WAT     H165054   5.386   5.013   3.764
21604WAT     H265055   5.521   5.104   3.748
21605WAT      O65056   5.963   8.311   5.656
21605WAT     H165057   6.010   8.395   5.632
21605WAT     H265058   5.974   8.293   5.754
21606WAT      O65059   4.045   2.677   9.605
21606WAT     H165060   4.066   2.735   9.526
21606WAT     H265061   3.972   2.614   9.581
21607WAT      O65062   7.380   0.701   4.394
21607WAT     H165063   7.369   0.754   4.310
21607WAT     H265064   7.376   0.762   4.473
21608WAT      O65065   7.037   8.655   5.463
21608WAT     H165066   7.031   8.555   5.459
21608WAT     H265067   7.099   8.682   5.538
21609WAT      O65068   9.832   0.896   9.152
21609WAT     H165069   9.770   0.886   9.074
21609WAT     H265070   9.878   0.809   9.169
21610WAT      O65071   4.697   1.827   7.699
21610WAT     H165072   4.751   1.911   7.690
21610WAT     H265073   4.611   1.837   7.650
21611WAT      O65074   4.261   8.954   5.042
21611WAT     H165075   4.332   9.002   4.990
21611WAT     H265076   4.256   8.991   5.134
21612WAT      O65077   6.135   2.612   6.474
21612WAT     H165078   6.054   2.618   6.532
21612WAT     H265079   6.212   2.574   6.525
21613WAT      O65080   6.544   4.456   5.400
21613WAT     H165081   6.448   4.483   5.403
21613WAT     H265082   6.551   4.357   5.411
21614WAT      O65083   9.367   5.233   8.829
21614WAT     H165084   9.455   5.207   8.789
21614WAT     H265085   9.351   5.178   8.911
21615WAT      O65086   9.277   8.617   4.737
21615WAT     H165087   9.204   8.593   4.802
21615WAT     H265088   9.299   8.714   4.746
21616WAT      O65089   7.191   3.032   7.429
21616WAT     H165090   7.197   3.069   7.522
21616WAT     H265091   7.250   3.085   7.368
21617WAT      O65092   8.808   8.013   5.720
21617WAT     H165093   8.869   8.045   5.793
21617WAT     H265094   8.788   8.090   5.659
21618WAT      O65095   6.750   9.199   9.640
21618WAT     H165096   6.672   9.202   9.579
21618WAT     H265097   6.817   9.132   9.607
21619WAT      O65098   2.798   3.083   5.931
21619WAT     H165099   2.843   3.032   6.004
21619WAT     H265100   2.791   3.179   5.957
21620WAT      O65101   6.066   5.631   3.711
21620WAT     H165102   6.154   5.610   3.754
21620WAT     H265103   6.066   5.727   3.680
21621WAT      O65104   2.324   1.804   2.705
21621WAT     H165105   2.374   1.731   2.657
21621WAT     H265106   2.275   1.765   2.783
21622WAT      O65107   4.736   7.746   7.739
21622WAT     H165108   4.809   7.815   7.741
21622WAT     H265109   4.734   7.703   7.649
21623WAT      O65110   4.823   8.808   9.833
21623WAT     H165111   4.726   8.832   9.834
21623WAT     H265112   4.857   8.802   9.927
21624WAT      O65113   6.611   5.372   0.807
21624WAT     H165114   6.554   5.290   0.806
21624WAT     H265115   6.554   5.453   0.819
21625WAT      O65116   2.860   6.588   1.487
21625WAT     H165117   2.889   6.493   1.478
21625WAT     H265118   2.904   6.643   1.416
21626WAT      O65119   2.198   3.091   3.058
21626WAT     H165120   2.115   3.060   3.105
21626WAT     H265121   2.174   3.122   2.966
21627WAT      O65122   1.087   9.383   8.614
21627WAT     H165123   1.105   9.390   8.712
21627WAT     H265124   1.010   9.441   8.590
21628WAT      O65125   1.062   0.745   6.662
21628WAT     H165126   1.034   0.649   6.662
21628WAT     H265127   1.153   0.752   6.704
21629WAT      O65128   4.443   5.135   4.535
21629WAT     H165129   4.488   5.087   4.610
21629WAT     H265130   4.346   5.113   4.535
21630WAT      O65131   0.722   4.196   6.602
21630WAT     H165132   0.807   4.197   6.549
21630WAT     H265133   0.662   4.124   6.568
21631WAT      O65134   8.150   0.870   5.366
21631WAT     H165135   8.090   0.794   5.387
21631WAT     H265136   8.102   0.956   5.382
21632WAT      O65137   7.674   0.650   2.865
21632WAT     H165138   7.745   0.715   2.893
21632WAT     H265139   7.586   0.697   2.861
21633WAT      O65140   7.349   3.424   5.474
21633WAT     H165141   7.284   3.382   5.538
21633WAT     H265142   7.429   3.365   5.464
21634WAT      O65143   6.441   9.047   3.709
21634WAT     H165144   6.450   8.964   3.763
21634WAT     H265145   6.368   9.104   3.747
21635WAT      O65146   1.856   8.861   3.137
21635WAT     H165147   1.796   8.925   3.185
21635WAT     H265148   1.802   8.806   3.073
21636WAT      O65149   5.191   5.611   4.915
21636WAT     H165150   5.242   5.540   4.866
21636WAT     H265151   5.204   5.599   5.013
21637WAT      O65152   1.895   1.207   4.439
21637WAT     H165153   1.903   1.215   4.340
21637WAT     H265154   1.877   1.112   4.464
21638WAT      O65155   7.203   3.634   0.543
21638WAT     H165156   7.195   3.535   0.556
21638WAT     H265157   7.265   3.671   0.613
21639WAT      O65158   5.629   1.788   8.504
21639WAT     H165159   5.548   1.768   8.559
21639WAT     H265160   5.656   1.883   8.518
21640WAT      O65161   7.972   5.549   2.046
21640WAT     H165162   8.037   5.552   1.970
21640WAT     H265163   8.005   5.485   2.115
21641WAT      O65164   1.737   4.734   8.823
21641WAT     H165165   1.688   4.709   8.740
21641WAT     H265166   1.733   4.834   8.835
21642WAT      O65167   4.173   0.231   8.864
21642WAT     H165168   4.219   0.158   8.913
21642WAT     H265169   4.163   0.206   8.768
21643WAT      O65170   6.446   1.208   2.608
21643WAT     H165171   6.375   1.272   2.635
21643WAT     H265172   6.499   1.247   2.532
21644WAT      O65173   3.162   7.084   0.809
21644WAT     H165174   3.094   7.041   0.750
21644WAT     H265175   3.248   7.092   0.760
21645WAT      O65176   3.428   9.305   0.183
21645WAT     H165177   3.379   9.246   0.248
21645WAT     H265178   3.477   9.248   0.117
21646WAT      O65179   5.452   7.968   5.276
21646WAT     H165180   5.451   8.067   5.260
21646WAT     H265181   5.365   7.941   5.318
21647WAT      O65182   0.917   2.977   4.006
21647WAT     H165183   0.843   2.911   4.015
21647WAT     H265184   0.954   2.999   4.096
21648WAT      O65185   2.958   1.043   2.352
21648WAT     H165186   2.896   1.053   2.430
21648WAT     H265187   2.942   1.117   2.288
21649WAT      O65188   4.970   2.020   5.763
21649WAT     H165189   5.001   2.041   5.856
21649WAT     H265190   4.958   1.921   5.754
21650WAT      O65191   9.891   8.235   3.696
21650WAT     H165192   9.796   8.261   3.683
21650WAT     H265193   9.943   8.312   3.733
21651WAT      O65194   7.071   0.819   1.682
21651WAT     H165195   7.065   0.888   1.609
21651WAT     H265196   6.980   0.802   1.719
21652WAT      O65197   3.175   2.561   4.487
21652WAT     H165198   3.122   2.629   4.537
21652WAT     H265199   3.166   2.472   4.532
21653WAT      O65200   5.803   5.997   3.154
21653WAT     H165201   5.744   6.071   3.186
21653WAT     H265202   5.891   6.003   3.200
21654WAT      O65203   3.094   1.421   0.916
21654WAT     H165204   3.071   1.486   0.844
21654WAT     H265205   3.080   1.464   1.005
21655WAT      O65206   0.827   7.268   3.378
21655WAT     H165207   0.914   7.297   3.418
21655WAT     H265208   0.834   7.271   3.278
21656WAT      O65209   7.571   0.917   2.074
21656WAT     H165210   7.531   0.993   2.124
21656WAT     H265211   7.512   0.837   2.082
21657WAT      O65212   1.821   1.275   3.422
21657WAT     H165213   1.745   1.241   3.476
21657WAT     H265214   1.869   1.198   3.379
21658WAT      O65215   1.439   2.635   1.237
21658WAT     H165216   1.401   2.721   1.271
21658WAT     H265217   1.394   2.610   1.151
21659WAT      O65218   5.395   3.988   8.897
21659WAT     H165219   5.359   4.080   8.916
21659WAT     H265220   5.367   3.960   8.806
21660WAT      O65221   2.066   0.139   6.736
21660WAT     H165222   2.147   0.090   6.768
21660WAT     H265223   2.035   0.203   6.807
21661WAT      O65224   3.744   7.922   9.873
21661WAT     H165225   3.704   8.014   9.880
21661WAT     H265226   3.674   7.853   9.890
21662WAT      O65227   1.850   1.044   1.310
21662WAT     H165228   1.938   0.999   1.294
21662WAT     H265229   1.860   1.143   1.298
21663WAT      O65230   2.610   7.130   7.152
21663WAT     H165231   2.644   7.084   7.234
21663WAT     H265232   2.632   7.075   7.072
21664WAT      O65233   6.608   4.134   0.305
21664WAT     H165234   6.691   4.139   0.360
21664WAT     H265235   6.536   4.087   0.356
21665WAT      O65236   2.941   2.934   7.575
21665WAT     H165237   2.894   2.990   7.643
21665WAT     H265238   2.992   2.993   7.513
21666WAT      O65239   1.679   6.584   1.264
21666WAT     H165240   1.741   6.648   1.308
21666WAT     H265241   1.656   6.510   1.328
21667WAT      O65242   2.888   5.290   7.632
21667WAT     H165243   2.807   5.340   7.662
21667WAT     H265244   2.862   5.196   7.609
21668WAT      O65245   1.377   1.596   5.966
21668WAT     H165246   1.298   1.537   5.950
21668WAT     H265247   1.460   1.551   5.932
21669WAT      O65248   6.349   8.108   5.468
21669WAT     H165249   6.385   8.199   5.449
21669WAT     H265250   6.346   8.055   5.384
21670WAT      O65251   2.822   3.412   7.688
21670WAT     H165252   2.895   3.373   7.632
21670WAT     H265253   2.742   3.432   7.630
21671WAT      O65254   7.655   4.011   1.042
21671WAT     H165255   7.633   4.060   0.958
21671WAT     H265256   7.744   3.966   1.032
21672WAT      O65257   5.974   1.091   8.665
21672WAT     H165258   5.893   1.149   8.675
21672WAT     H265259   6.048   1.144   8.624
21673WAT      O65260   4.813   6.875   9.461
21673WAT     H165261   4.865   6.918   9.387
21673WAT     H265262   4.719   6.858   9.431
21674WAT      O65263   0.539   9.175   6.917
21674WAT     H165264   0.585   9.137   6.837
21674WAT     H265265   0.496   9.102   6.969
21675WAT      O65266   6.435   8.132   9.669
21675WAT     H165267   6.354   8.121   9.612
21675WAT     H265268   6.512   8.085   9.626
21676WAT      O65269   9.712   4.200   6.708
21676WAT     H165270   9.726   4.177   6.804
21676WAT     H265271   9.675   4.121   6.660
21677WAT      O65272   2.606   0.626   3.170
21677WAT     H165273   2.678   0.587   3.228
21677WAT     H265274   2.644   0.700   3.114
21678WAT      O65275   4.221   7.757   0.341
21678WAT     H165276   4.297   7.821   0.351
21678WAT     H265277   4.248   7.683   0.279
21679WAT      O65278   9.132   1.785   5.093
21679WAT     H165279   9.127   1.714   5.023
21679WAT     H265280   9.182   1.863   5.057
21680WAT      O65281   7.559   6.953   6.764
21680WAT     H165282   7.508   7.020   6.819
21680WAT     H265283   7.613   7.001   6.695
21681WAT      O65284   9.431   4.400   9.499
21681WAT     H165285   9.396   4.488   9.530
21681WAT     H265286   9.358   4.349   9.455
21682WAT      O65287   5.247   3.863   5.088
21682WAT     H165288   5.329   3.887   5.036
21682WAT     H265289   5.166   3.890   5.036
21683WAT      O65290   5.463   0.267   0.044
21683WAT     H165291   5.422   0.183   0.008
21683WAT     H265292   5.466   0.336  -0.028
21684WAT      O65293   1.081   4.723   9.842
21684WAT     H165294   1.052   4.660   9.771
21684WAT     H265295   1.001   4.752   9.896
21685WAT      O65296   8.408   7.852   0.863
21685WAT     H165297   8.486   7.875   0.805
21685WAT     H265298   8.410   7.754   0.883
21686WAT      O65299   0.466   6.719   0.632
21686WAT     H165300   0.448   6.704   0.729
21686WAT     H265301   0.449   6.634   0.581
21687WAT      O65302   5.492   3.316   5.848
21687WAT     H165303   5.588   3.292   5.834
21687WAT     H265304   5.483   3.415   5.859
21688WAT      O65305   2.109   6.303   0.414
21688WAT     H165306   2.142   6.285   0.321
21688WAT     H265307   2.014   6.274   0.421
21689WAT      O65308   6.339   1.499   2.195
21689WAT     H165309   6.289   1.570   2.245
21689WAT     H265310   6.368   1.535   2.106
21690WAT      O65311   0.137   3.172   7.554
21690WAT     H165312   0.066   3.197   7.489
21690WAT     H265313   0.120   3.080   7.589
21691WAT      O65314   3.530   0.841   9.072
21691WAT     H165315   3.438   0.818   9.105
21691WAT     H265316   3.598   0.801   9.132
21692WAT      O65317   4.590   9.210   3.937
21692WAT     H165318   4.594   9.287   3.874
21692WAT     H265319   4.650   9.137   3.905
21693WAT      O65320   8.171   0.938   9.092
21693WAT     H165321   8.081   0.941   9.137
21693WAT     H265322   8.178   0.854   9.039
21694WAT      O65323   5.517   1.497   5.859
21694WAT     H165324   5.492   1.432   5.787
21694WAT     H265325   5.435   1.539   5.897
21695WAT      O65326   5.405   6.229   1.385
21695WAT     H165327   5.419   6.147   1.329
21695WAT     H265328   5.329   6.282   1.348
21696WAT      O65329   8.200   4.645   1.498
21696WAT     H165330   8.217   4.546   1.501
21696WAT     H265331   8.109   4.664   1.535
21697WAT      O65332   8.982   6.265   1.640
21697WAT     H165333   8.934   6.262   1.553
21697WAT     H265334   8.959   6.185   1.695
21698WAT      O65335   9.017   5.326   1.415
21698WAT     H165336   9.032   5.289   1.507
21698WAT     H265337   9.050   5.420   1.411
21699WAT      O65338   6.302   4.572   6.094
21699WAT     H165339   6.384   4.570   6.151
21699WAT     H265340   6.313   4.640   6.021
21700WAT      O65341   2.215   9.040   7.881
21700WAT     H165342   2.270   8.975   7.933
21700WAT     H265343   2.131   8.995   7.848
21701WAT      O65344   7.328   7.812   8.054
21701WAT     H165345   7.285   7.829   8.143
21701WAT     H265346   7.257   7.804   7.985
21702WAT      O65347   8.876   6.652   4.405
21702WAT     H165348   8.815   6.705   4.346
21702WAT     H265349   8.951   6.710   4.436
21703WAT      O65350   1.785   3.637   9.348
21703WAT     H165351   1.769   3.716   9.289
21703WAT     H265352   1.863   3.585   9.313
21704WAT      O65353   4.008   8.152   8.031
21704WAT     H165354   4.019   8.241   7.987
21704WAT     H265355   3.916   8.144   8.070
21705WAT      O65356   1.440   0.642   0.348
21705WAT     H165357   1.466   0.626   0.253
21705WAT     H265358   1.503   0.707   0.390
21706WAT      O65359   1.679   6.107   9.198
21706WAT     H165360   1.625   6.177   9.244
21706WAT     H265361   1.623   6.025   9.183
21707WAT      O65362   1.706   6.535   8.185
21707WAT     H165363   1.616   6.492   8.176
21707WAT     H265364   1.711   6.616   8.127
21708WAT      O65365   9.229   7.369   5.904
21708WAT     H165366   9.177   7.404   5.826
21708WAT     H265367   9.308   7.318   5.871
21709WAT      O65368   0.786   5.692   2.075
21709WAT     H165369   0.869   5.644   2.045
21709WAT     H265370   0.755   5.653   2.162
21710WAT      O65371   6.152   9.226   2.033
21710WAT     H165372   6.129   9.181   2.119
21710WAT     H265373   6.196   9.160   1.972
21711WAT      O65374   3.152   2.084   5.101
21711WAT     H165375   3.097   2.019   5.049
21711WAT     H265376   3.094   2.155   5.139
21712WAT      O65377   6.673   8.736   1.620
21712WAT     H165378   6.590   8.792   1.626
21712WAT     H265379   6.736   8.762   1.693
21713WAT      O65380   2.671   6.935   6.439
21713WAT     H165381   2.614   6.869   6.390
21713WAT     H265382   2.758   6.892   6.463
21714WAT      O65383   6.801   3.556   7.895
21714WAT     H165384   6.812   3.470   7.944
21714WAT     H265385   6.860   3.625   7.935
21715WAT      O65386   8.848   3.212   2.487
21715WAT     H165387   8.827   3.295   2.538
21715WAT     H265388   8.925   3.165   2.530
21716WAT      O65389   3.527   6.911   1.488
21716WAT     H165390   3.481   6.826   1.512
21716WAT     H265391   3.586   6.939   1.564
21717WAT      O65392   6.257   1.328   8.116
21717WAT     H165393   6.331   1.293   8.175
21717WAT     H265394   6.212   1.251   8.071
21718WAT      O65395   9.229   6.740   9.408
21718WAT     H165396   9.227   6.773   9.314
21718WAT     H265397   9.137   6.741   9.446
21719WAT      O65398   6.200   8.097   9.508
21719WAT     H165399   6.200   8.009   9.461
21719WAT     H265400   6.106   8.126   9.525
21720WAT      O65401   1.787   7.219   5.458
21720WAT     H165402   1.870   7.167   5.434
21720WAT     H265403   1.809   7.285   5.529
21721WAT      O65404   3.891   7.018   6.515
21721WAT     H165405   3.859   7.000   6.422
21721WAT     H265406   3.837   6.964   6.580
21722WAT      O65407   2.148   7.509   1.924
21722WAT     H165408   2.129   7.460   1.839
21722WAT     H265409   2.086   7.587   1.933
21723WAT      O65410   3.272   3.861   9.390
21723WAT     H165411   3.187   3.874   9.441
21723WAT     H265412   3.328   3.791   9.434
21724WAT      O65413   5.531   9.343   4.675
21724WAT     H165414   5.493   9.406   4.743
21724WAT     H265415   5.516   9.249   4.706
21725WAT      O65416   6.161   2.624   9.048
21725WAT     H165417   6.186   2.631   8.952
21725WAT     H265418   6.226   2.676   9.104
21726WAT      O65419   8.878   9.804   4.001
21726WAT     H165420   8.928   9.806   4.088
21726WAT     H265421   8.796   9.747   4.012
21727WAT      O65422   4.517   7.978   8.850
21727WAT     H165423   4.572   8.022   8.779
21727WAT     H265424   4.576   7.955   8.928
21728WAT      O65425   1.188   7.364   2.467
21728WAT     H165426   1.258   7.404   2.408
21728WAT     H265427   1.223   7.280   2.508
21729WAT      O65428   8.308   6.837   6.636
21729WAT     H165429   8.256   6.803   6.714
21729WAT     H265430   8.315   6.766   6.566
21730WAT      O65431   2.431   3.972   9.500
21730WAT     H165432   2.434   4.059   9.551
21730WAT     H265433   2.359   3.976   9.432
21731WAT      O65434   8.448   3.733   7.333
21731WAT     H165435   8.465   3.821   7.287
21731WAT     H265436   8.526   3.712   7.393
21732WAT      O65437   5.945   8.924   4.057
21732WAT     H165438   6.021   8.893   4.000
21732WAT     H265439   5.975   8.931   4.152
21733WAT      O65440   4.687   9.668   4.389
21733WAT     H165441   4.707   9.743   4.326
21733WAT     H265442   4.701   9.699   4.483
21734WAT      O65443   8.006   6.333   6.255
21734WAT     H165444   7.913   6.349   6.286
21734WAT     H265445   8.035   6.408   6.195
21735WAT      O65446   3.512   3.918   8.732
21735WAT     H165447   3.481   4.013   8.737
21735WAT     H265448   3.467   3.872   8.656
21736WAT      O65449   0.361   5.519   2.984
21736WAT     H165450   0.444   5.500   2.933
21736WAT     H265451   0.288   5.546   2.921
21737WAT      O65452   9.672   9.323   4.367
21737WAT     H165453   9.685   9.285   4.275
21737WAT     H265454   9.679   9.250   4.435
21738WAT      O65455   5.736   3.678   4.429
21738WAT     H165456   5.830   3.694   4.459
21738WAT     H265457   5.728   3.586   4.390
21739WAT      O65458   2.087   6.794   8.265
21739WAT     H165459   2.024   6.850   8.211
21739WAT     H265460   2.178   6.837   8.264
21740WAT      O65461   7.032   8.513   3.979
21740WAT     H165462   6.996   8.592   4.029
21740WAT     H265463   6.998   8.515   3.885
21741WAT      O65464   3.385   0.289   1.902
21741WAT     H165465   3.295   0.332   1.906
21741WAT     H265466   3.391   0.219   1.972
21742WAT      O65467   6.385   9.412   1.605
21742WAT     H165468   6.441   9.391   1.686
21742WAT     H265469   6.297   9.366   1.613
21743WAT      O65470   9.288   2.630   1.654
21743WAT     H165471   9.284   2.535   1.623
21743WAT     H265472   9.376   2.670   1.627
21744WAT      O65473   3.398   2.948   3.264
21744WAT     H165474   3.491   2.923   3.290
21744WAT     H265475   3.334   2.917   3.335
21745WAT      O65476   6.106   6.826   0.265
21745WAT     H165477   6.091   6.797   0.170
21745WAT     H265478   6.179   6.772   0.306
21746WAT      O65479   6.935   1.859   2.714
21746WAT     H165480   7.007   1.903   2.766
21746WAT     H265481   6.936   1.761   2.732
21747WAT      O65482   9.589   1.947   1.470
21747WAT     H165483   9.650   1.987   1.401
21747WAT     H265484   9.638   1.938   1.557
21748WAT      O65485   1.410   3.095   6.617
21748WAT     H165486   1.351   3.169   6.587
21748WAT     H265487   1.453   3.051   6.538
21749WAT      O65488   8.676   1.781   9.511
21749WAT     H165489   8.733   1.821   9.440
21749WAT     H265490   8.714   1.692   9.538
21750WAT      O65491   3.152   6.322   1.245
21750WAT     H165492   3.241   6.367   1.233
21750WAT     H265493   3.111   6.305   1.156
21751WAT      O65494   4.110   7.712   4.043
21751WAT     H165495   4.201   7.737   4.010
21751WAT     H265496   4.049   7.696   3.966
21752WAT      O65497   2.233   7.768   6.702
21752WAT     H165498   2.182   7.751   6.617
21752WAT     H265499   2.183   7.728   6.779
21753WAT      O65500   5.100   7.183   2.705
21753WAT     H165501   5.153   7.144   2.630
21753WAT     H265502   5.122   7.137   2.790
21754WAT      O65503   2.934   2.582   9.197
21754WAT     H165504   2.965   2.608   9.105
21754WAT     H265505   2.881   2.657   9.236
21755WAT      O65506   2.622   0.473   6.936
21755WAT     H165507   2.627   0.516   7.025
21755WAT     H265508   2.542   0.412   6.933
21756WAT      O65509   7.554   7.392   1.537
21756WAT     H165510   7.490   7.454   1.492
21756WAT     H265511   7.646   7.408   1.501
21757WAT      O65512   6.751   1.124   6.988
21757WAT     H165513   6.849   1.109   6.998
21757WAT     H265514   6.718   1.179   7.065
21758WAT      O65515   7.935   0.109   7.339
21758WAT     H165516   7.839   0.113   7.312
21758WAT     H265517   7.975   0.023   7.309
21759WAT      O65518   4.092   7.770   7.468
21759WAT     H165519   4.061   7.691   7.520
21759WAT     H265520   4.044   7.852   7.499
21760WAT      O65521   5.744   3.346   3.060
21760WAT     H165522   5.750   3.290   2.978
21760WAT     H265523   5.792   3.301   3.135
21761WAT      O65524   1.012   5.943   9.667
21761WAT     H165525   0.926   5.993   9.677
21761WAT     H265526   1.034   5.934   9.569
21762WAT      O65527   4.453   3.689   4.452
21762WAT     H165528   4.510   3.612   4.481
21762WAT     H265529   4.393   3.661   4.377
21763WAT      O65530   2.362   0.134   1.545
21763WAT     H165531   2.434   0.190   1.503
21763WAT     H265532   2.274   0.157   1.505
21764WAT      O65533   1.296   4.603   0.379
21764WAT     H165534   1.285   4.566   0.286
21764WAT     H265535   1.223   4.669   0.397
21765WAT      O65536   9.667   0.452   4.722
21765WAT     H165537   9.690   0.521   4.653
21765WAT     H265538   9.702   0.481   4.811
21766WAT      O65539   9.451   2.211   9.471
21766WAT     H165540   9.476   2.306   9.454
21766WAT     H265541   9.518   2.151   9.429
21767WAT      O65542   9.175   0.944   1.016
21767WAT     H165543   9.176   0.861   0.960
21767WAT     H265544   9.263   0.955   1.062
21768WAT      O65545   4.463   0.471   9.574
21768WAT     H165546   4.519   0.552   9.559
21768WAT     H265547   4.522   0.393   9.596
21769WAT      O65548   6.622   4.268   1.074
21769WAT     H165549   6.594   4.243   1.166
21769WAT     H265550   6.547   4.249   1.010
21770WAT      O65551   2.369   2.631   9.427
21770WAT     H165552   2.293   2.694   9.439
21770WAT     H265553   2.450   2.667   9.474
21771WAT      O65554   5.793   5.947   0.204
21771WAT     H165555   5.805   5.869   0.143
21771WAT     H265556   5.821   5.921   0.297
21772WAT      O65557   3.111   6.132   3.208
21772WAT     H165558   3.061   6.121   3.293
21772WAT     H265559   3.210   6.127   3.225
21773WAT      O65560   9.721   3.533   1.289
21773WAT     H165561   9.637   3.486   1.264
21773WAT     H265562   9.717   3.628   1.256
21774WAT      O65563   2.766   6.814   3.560
21774WAT     H165564   2.668   6.830   3.553
21774WAT     H265565   2.803   6.870   3.635
21775WAT      O65566   9.093   0.927   8.158
21775WAT     H165567   9.118   1.018   8.191
21775WAT     H265568   9.173   0.880   8.122
21776WAT      O65569   1.038   8.250   9.653
21776WAT     H165570   1.111   8.317   9.643
21776WAT     H265571   0.957   8.281   9.604
21777WAT      O65572   7.401   8.987   4.301
21777WAT     H165573   7.462   9.062   4.325
21777WAT     H265574   7.422   8.956   4.208
21778WAT      O65575   5.761   2.259   1.777
21778WAT     H165576   5.694   2.198   1.734
21778WAT     H265577   5.805   2.212   1.854
21779WAT      O65578   5.892   3.036   3.753
21779WAT     H165579   5.961   3.050   3.825
21779WAT     H265580   5.829   3.113   3.752
21780WAT      O65581   2.256   7.554   3.176
21780WAT     H165582   2.247   7.488   3.252
21780WAT     H265583   2.175   7.548   3.118
21781WAT      O65584   4.231   8.512   4.456
21781WAT     H165585   4.249   8.539   4.550
21781WAT     H265586   4.201   8.591   4.403
21782WAT      O65587   3.738   1.410   4.070
21782WAT     H165588   3.768   1.321   4.035
21782WAT     H265589   3.723   1.472   3.993
21783WAT      O65590   7.470   7.189   9.272
21783WAT     H165591   7.520   7.267   9.310
21783WAT     H265592   7.415   7.146   9.344
21784WAT      O65593   8.356   3.058   5.123
21784WAT     H165594   8.352   3.015   5.213
21784WAT     H265595   8.433   3.020   5.072
21785WAT      O65596   1.499   9.266   1.212
21785WAT     H165597   1.514   9.310   1.124
21785WAT     H265598   1.587   9.246   1.255
21786WAT      O65599   4.482   3.856   9.491
21786WAT     H165600   4.463   3.949   9.460
21786WAT     H265601   4.399   3.817   9.530
21787WAT      O65602   7.786   2.774   6.829
21787WAT     H165603   7.848   2.735   6.761
21787WAT     H265604   7.772   2.872   6.810
21788WAT      O65605   3.717   3.683   0.539
21788WAT     H165606   3.719   3.583   0.537
21788WAT     H265607   3.691   3.714   0.631
21789WAT      O65608   0.882   1.373   7.214
21789WAT     H165609   0.957   1.356   7.278
21789WAT     H265610   0.864   1.291   7.161
21790WAT      O65611   2.662   6.862   9.685
21790WAT     H165612   2.612   6.798   9.628
21790WAT     H265613   2.598   6.924   9.731
21791WAT      O65614   8.841   7.264   7.503
21791WAT     H165615   8.906   7.274   7.427
21791WAT     H265616   8.885   7.219   7.580
21792WAT      O65617   9.602   1.178   7.045
21792WAT     H165618   9.593   1.202   7.142
21792WAT     H265619   9.514   1.193   6.999
21793WAT      O65620   4.634   5.876   0.858
21793WAT     H165621   4.568   5.851   0.787
21793WAT     H265622   4.623   5.816   0.937
21794WAT      O65623   5.062   2.466   3.773
21794WAT     H165624   5.077   2.374   3.809
21794WAT     H265625   5.145   2.520   3.784
21795WAT      O65626   0.254   9.835   1.297
21795WAT     H165627   0.198   9.889   1.360
21795WAT     H265628   0.306   9.767   1.348
21796WAT      O65629   6.158   2.549   5.360
21796WAT     H165630   6.191   2.462   5.322
21796WAT     H265631   6.228   2.619   5.350
21797WAT      O65632   4.504   8.905   1.848
21797WAT     H165633   4.490   8.966   1.927
21797WAT     H265634   4.568   8.833   1.873
21798WAT      O65635   2.651   4.370   9.109
21798WAT     H165636   2.569   4.362   9.053
21798WAT     H265637   2.727   4.405   9.054
21799WAT      O65638   4.497   1.287   5.346
21799WAT     H165639   4.479   1.197   5.307
21799WAT     H265640   4.435   1.354   5.304
21800WAT      O65641   5.300   8.737   2.280
21800WAT     H165642   5.334   8.673   2.212
21800WAT     H265643   5.377   8.783   2.325
21801WAT      O65644   8.190   1.765   7.339
21801WAT     H165645   8.103   1.781   7.386
21801WAT     H265646   8.241   1.695   7.390
21802WAT      O65647   6.569   9.165   9.860
21802WAT     H165648   6.643   9.150   9.794
21802WAT     H265649   6.586   9.250   9.911
21803WAT      O65650   1.280   0.086   8.294
21803WAT     H165651   1.214   0.133   8.353
21803WAT     H265652   1.308   0.000   8.337
21804WAT      O65653   5.252   4.326   2.039
21804WAT     H165654   5.201   4.398   2.085
21804WAT     H265655   5.345   4.323   2.076
21805WAT      O65656   8.019   5.504   7.982
21805WAT     H165657   8.051   5.509   7.887
21805WAT     H265658   7.929   5.462   7.984
21806WAT      O65659   3.022   3.973   2.504
21806WAT     H165660   3.016   3.874   2.492
21806WAT     H265661   2.981   4.018   2.425
21807WAT      O65662   6.152   3.188   6.869
21807WAT     H165663   6.125   3.099   6.906
21807WAT     H265664   6.072   3.232   6.827
21808WAT      O65665   4.767   4.387   3.333
21808WAT     H165666   4.838   4.318   3.347
21808WAT     H265667   4.764   4.448   3.412
21809WAT      O65668   3.076   7.219   8.234
21809WAT     H165669   2.998   7.268   8.274
21809WAT     H265670   3.055   7.194   8.140
21810WAT      O65671   5.115   5.741   3.158
21810WAT     H165672   5.164   5.822   3.124
21810WAT     H265673   5.181   5.675   3.194
21811WAT      O65674   8.356   1.698   5.613
21811WAT     H165675   8.323   1.758   5.686
21811WAT     H265676   8.281   1.678   5.550
21812WAT      O65677   7.852   2.188   0.036
21812WAT     H165678   7.875   2.092   0.052
21812WAT     H265679   7.930   2.245   0.064
21813WAT      O65680   1.755   9.714   6.922
21813WAT     H165681   1.839   9.702   6.868
21813WAT     H265682   1.677   9.716   6.860
21814WAT      O65683   7.905   3.565   0.018
21814WAT     H165684   7.813   3.596  -0.004
21814WAT     H265685   7.901   3.488   0.082
21815WAT      O65686   0.871   0.642   5.126
21815WAT     H165687   0.860   0.720   5.063
21815WAT     H265688   0.969   0.623   5.138
21816WAT      O65689   1.901   0.042   8.267
21816WAT     H165690   1.828  -0.003   8.215
21816WAT     H265691   1.962   0.090   8.205
21817WAT      O65692   6.879   5.695   9.264
21817WAT     H165693   6.829   5.772   9.225
21817WAT     H265694   6.882   5.704   9.363
21818WAT      O65695   5.249   1.473   2.097
21818WAT     H165696   5.231   1.553   2.041
21818WAT     H265697   5.348   1.460   2.107
21819WAT      O65698   7.866   8.789   9.604
21819WAT     H165699   7.879   8.691   9.585
21819WAT     H265700   7.823   8.799   9.694
21820WAT      O65701   1.164   8.864   8.543
21820WAT     H165702   1.163   8.956   8.584
21820WAT     H265703   1.079   8.817   8.566
21821WAT      O65704   2.077   1.948   0.190
21821WAT     H165705   1.987   1.952   0.146
21821WAT     H265706   2.117   1.857   0.175
21822WAT      O65707   4.849   1.244   8.286
21822WAT     H165708   4.938   1.289   8.288
21822WAT     H265709   4.783   1.300   8.335
21823WAT      O65710   1.364   0.213   6.432
21823WAT     H165711   1.338   0.297   6.479
21823WAT     H265712   1.452   0.226   6.386
21824WAT      O65713   7.270   5.180   7.926
21824WAT     H165714   7.189   5.204   7.979
21824WAT     H265715   7.324   5.112   7.976
21825WAT      O65716   4.087   4.669   2.977
21825WAT     H165717   4.139   4.607   2.918
21825WAT     H265718   3.989   4.651   2.967
21826WAT      O65719   9.546   0.252   7.007
21826WAT     H165720   9.476   0.181   7.000
21826WAT     H265721   9.536   0.315   6.929
21827WAT      O65722   0.385   8.259   2.859
21827WAT     H165723   0.293   8.292   2.839
21827WAT     H265724   0.409   8.280   2.954
21828WAT      O65725   2.896   3.071   6.869
21828WAT     H165726   2.883   3.138   6.942
21828WAT     H265727   2.984   3.024   6.882
21829WAT      O65728   2.476   4.380   5.388
21829WAT     H165729   2.409   4.452   5.405
21829WAT     H265730   2.442   4.293   5.423
21830WAT      O65731   8.646   9.647   2.186
21830WAT     H165732   8.744   9.661   2.206
21830WAT     H265733   8.592   9.713   2.238
21831WAT      O65734   6.129   4.198   6.647
21831WAT     H165735   6.053   4.176   6.709
21831WAT     H265736   6.188   4.117   6.638
21832WAT      O65737   7.547   1.064   7.968
21832WAT     H165738   7.632   1.116   7.956
21832WAT     H265739   7.498   1.097   8.048
21833WAT      O65740   2.482   5.568   5.946
21833WAT     H165741   2.388   5.603   5.945
21833WAT     H265742   2.539   5.627   6.003
21834WAT      O65743   5.802   4.929   2.842
21834WAT     H165744   5.804   4.965   2.749
21834WAT     H265745   5.894   4.932   2.881
21835WAT      O65746   9.379   6.102   8.290
21835WAT     H165747   9.357   6.199   8.281
21835WAT     H265748   9.477   6.091   8.304
21836WAT      O65749   9.299   4.119   5.149
21836WAT     H165750   9.379   4.110   5.207
21836WAT     H265751   9.325   4.105   5.054
21837WAT      O65752   2.158   7.604   7.935
21837WAT     H165753   2.195   7.654   8.013
21837WAT     H265754   2.083   7.656   7.894
21838WAT      O65755   4.542   4.296   7.802
21838WAT     H165756   4.547   4.208   7.756
21838WAT     H265757   4.595   4.364   7.751
21839WAT      O65758   7.839   7.079   4.476
21839WAT     H165759   7.879   7.171   4.475
21839WAT     H265760   7.790   7.065   4.562
21840WAT      O65761   4.320   0.237   9.771
21840WAT     H165762   4.259   0.245   9.849
21840WAT     H265763   4.274   0.190   9.696
21841WAT      O65764   1.971   7.051   6.495
21841WAT     H165765   1.898   6.985   6.479
21841WAT     H265766   1.942   7.117   6.564
21842WAT      O65767   3.290   2.738   2.041
21842WAT     H165768   3.204   2.696   2.010
21842WAT     H265769   3.319   2.695   2.126
21843WAT      O65770   9.233   5.967   8.446
21843WAT     H165771   9.194   5.876   8.429
21843WAT     H265772   9.281   5.998   8.365
21844WAT      O65773   5.162   4.665   5.993
21844WAT     H165774   5.235   4.612   5.952
21844WAT     H265775   5.088   4.678   5.927
21845WAT      O65776   7.608   7.932   3.398
21845WAT     H165777   7.632   7.941   3.301
21845WAT     H265778   7.680   7.975   3.454
21846WAT      O65779   8.585   9.310   1.453
21846WAT     H165780   8.556   9.270   1.540
21846WAT     H265781   8.558   9.406   1.451
21847WAT      O65782   3.282   5.745   9.710
21847WAT     H165783   3.196   5.724   9.663
21847WAT     H265784   3.356   5.689   9.672
21848WAT      O65785   1.241   7.231   4.726
21848WAT     H165786   1.175   7.303   4.747
21848WAT     H265787   1.308   7.265   4.660
21849WAT      O65788   5.240   2.147   4.794
21849WAT     H165789   5.288   2.067   4.830
21849WAT     H265790   5.216   2.131   4.699
21850WAT      O65791   1.650   8.681   0.207
21850WAT     H165792   1.731   8.662   0.263
21850WAT     H265793   1.593   8.750   0.252
21851WAT      O65794   1.066   7.137   1.297
21851WAT     H165795   1.021   7.076   1.231
21851WAT     H265796   1.050   7.232   1.270
21852WAT      O65797   3.542   2.497   2.006
21852WAT     H165798   3.503   2.474   2.095
21852WAT     H265799   3.593   2.582   2.013
21853WAT      O65800   2.687   4.619   9.247
21853WAT     H165801   2.667   4.521   9.248
21853WAT     H265802   2.610   4.669   9.286
21854WAT      O65803   6.476   0.253   1.780
21854WAT     H165804   6.476   0.332   1.840
21854WAT     H265805   6.445   0.280   1.689
21855WAT      O65806   7.841   6.450   4.389
21855WAT     H165807   7.886   6.361   4.399
21855WAT     H265808   7.908   6.517   4.357
21856WAT      O65809   2.018   5.579   3.744
21856WAT     H165810   1.995   5.489   3.706
21856WAT     H265811   2.113   5.578   3.775
21857WAT      O65812   7.301   3.538   3.457
21857WAT     H165813   7.283   3.626   3.501
21857WAT     H265814   7.233   3.471   3.486
21858WAT      O65815   9.432   9.401   3.182
21858WAT     H165816   9.457   9.389   3.278
21858WAT     H265817   9.437   9.313   3.135
21859WAT      O65818   9.022   7.360   0.171
21859WAT     H165819   9.005   7.262   0.167
21859WAT     H265820   8.935   7.408   0.184
21860WAT      O65821   1.868   5.546   0.810
21860WAT     H165822   1.801   5.595   0.755
21860WAT     H265823   1.823   5.498   0.885
21861WAT      O65824   4.097   3.923   7.537
21861WAT     H165825   4.108   3.938   7.439
21861WAT     H265826   4.187   3.921   7.580
21862WAT      O65827   6.732   8.962   7.867
21862WAT     H165828   6.653   8.950   7.927
21862WAT     H265829   6.759   9.058   7.865
21863WAT      O65830   2.574   0.695   3.729
21863WAT     H165831   2.492   0.657   3.772
21863WAT     H265832   2.617   0.761   3.792
21864WAT      O65833   6.364   3.272   5.124
21864WAT     H165834   6.348   3.210   5.048
21864WAT     H265835   6.449   3.246   5.170
21865WAT      O65836   7.961   6.547   2.819
21865WAT     H165837   7.886   6.584   2.874
21865WAT     H265838   8.043   6.539   2.876
21866WAT      O65839   4.241   2.720   5.992
21866WAT     H165840   4.312   2.789   5.994
21866WAT     H265841   4.228   2.689   5.898
21867WAT      O65842   4.922   2.240   1.956
21867WAT     H165843   4.995   2.171   1.956
21867WAT     H265844   4.945   2.312   1.891
21868WAT      O65845   1.948   7.542   2.772
21868WAT     H165846   1.892   7.566   2.693
21868WAT     H265847   1.923   7.601   2.849
21869WAT      O65848   3.215   6.863   4.650
21869WAT     H165849   3.170   6.951   4.634
21869WAT     H265850   3.230   6.851   4.748
21870WAT      O65851   7.419   2.780   5.441
21870WAT     H165852   7.400   2.878   5.445
21870WAT     H265853   7.482   2.761   5.366
21871WAT      O65854   3.438   1.165   5.596
21871WAT     H165855   3.454   1.140   5.501
21871WAT     H265856   3.514   1.133   5.653
21872WAT      O65857   3.994   7.359   4.598
21872WAT     H165858   4.050   7.407   4.666
21872WAT     H265859   3.962   7.424   4.529
21873WAT      O65860   6.175   2.406   6.295
21873WAT     H165861   6.148   2.492   6.339
21873WAT     H265862   6.116   2.332   6.328
21874WAT      O65863   6.153   6.053   1.119
21874WAT     H165864   6.125   6.091   1.207
21874WAT     H265865   6.251   6.065   1.106
21875WAT      O65866   9.889   5.978   8.826
21875WAT     H165867   9.792   5.965   8.846
21875WAT     H265868   9.944   5.941   8.901
21876WAT      O65869   7.382   3.482   2.655
21876WAT     H165870   7.315   3.467   2.583
21876WAT     H265871   7.343   3.455   2.743
21877WAT      O65872   8.181   1.133   1.325
21877WAT     H165873   8.165   1.203   1.394
21877WAT     H265874   8.095   1.110   1.280
21878WAT      O65875   7.554   7.715   2.805
21878WAT     H165876   7.623   7.782   2.778
21878WAT     H265877   7.465   7.741   2.768
21879WAT      O65878   9.640   5.969   8.916
21879WAT     H165879   9.543   5.958   8.938
21879WAT     H265880   9.670   6.060   8.944
21880WAT      O65881   1.691   6.031   3.708
21880WAT     H165882   1.605   6.082   3.706
21880WAT     H265883   1.768   6.094   3.701
21881WAT      O65884   8.223   1.371   2.987
21881WAT     H165885   8.174   1.316   3.054
21881WAT     H265886   8.185   1.354   2.896
21882WAT      O65887   9.665   8.737   7.848
21882WAT     H165888   9.724   8.693   7.780
21882WAT     H265889   9.703   8.826   7.873
21883WAT      O65890   2.711   6.821   6.029
21883WAT     H165891   2.787   6.818   6.095
21883WAT     H265892   2.744   6.857   5.942
21884WAT      O65893   7.908   3.995   4.736
21884WAT     H165894   7.860   4.078   4.704
21884WAT     H265895   7.910   3.928   4.661
21885WAT      O65896   3.403   1.996   9.830
21885WAT     H165897   3.320   2.007   9.884
21885WAT     H265898   3.404   2.064   9.757
21886WAT      O65899   0.529   3.494   5.502
21886WAT     H165900   0.493   3.448   5.583
21886WAT     H265901   0.628   3.489   5.503
21887WAT      O65902   4.108   6.239   9.703
21887WAT     H165903   4.129   6.335   9.724
21887WAT     H265904   4.173   6.179   9.750
21888WAT      O65905   7.152   5.158   0.717
21888WAT     H165906   7.139   5.256   0.703
21888WAT     H265907   7.246   5.141   0.750
21889WAT      O65908   8.223   8.570   3.233
21889WAT     H165909   8.274   8.619   3.303
21889WAT     H265910   8.133   8.611   3.223
21890WAT      O65911   7.309   6.827   8.526
21890WAT     H165912   7.320   6.862   8.619
21890WAT     H265913   7.326   6.729   8.525
21891WAT      O65914   2.027   0.240   7.213
21891WAT     H165915   1.950   0.274   7.265
21891WAT     H265916   2.111   0.250   7.266
21892WAT      O65917   1.503   6.311   8.618
21892WAT     H165918   1.469   6.279   8.529
21892WAT     H265919   1.552   6.237   8.664
21893WAT      O65920   1.294   1.367   3.400
21893WAT     H165921   1.360   1.300   3.432
21893WAT     H265922   1.279   1.436   3.471
21894WAT      O65923   0.503   2.833   9.829
21894WAT     H165924   0.576   2.898   9.850
21894WAT     H265925   0.423   2.883   9.796
21895WAT      O65926   9.326   3.281   6.245
21895WAT     H165927   9.319   3.185   6.272
21895WAT     H265928   9.419   3.313   6.261
21896WAT      O65929   3.971   6.185   4.895
21896WAT     H165930   4.068   6.186   4.919
21896WAT     H265931   3.954   6.112   4.829
21897WAT      O65932   3.797   6.127   6.285
21897WAT     H165933   3.698   6.138   6.295
21897WAT     H265934   3.836   6.212   6.249
21898WAT      O65935   1.495   8.372   6.389
21898WAT     H165936   1.566   8.333   6.331
21898WAT     H265937   1.516   8.354   6.485
21899WAT      O65938   2.394   6.907   5.404
21899WAT     H165939   2.383   6.957   5.318
21899WAT     H265940   2.393   6.809   5.385
21900WAT      O65941   0.336   1.711   8.501
21900WAT     H165942   0.310   1.648   8.574
21900WAT     H265943   0.340   1.804   8.537
21901WAT      O65944   6.552   8.340   0.766
21901WAT     H165945   6.453   8.332   0.752
21901WAT     H265946   6.584   8.266   0.825
21902WAT      O65947   9.426   1.045   4.707
21902WAT     H165948   9.501   1.054   4.641
21902WAT     H265949   9.358   1.116   4.690
21903WAT      O65950   2.098   8.615   9.640
21903WAT     H165951   2.143   8.585   9.556
21903WAT     H265952   2.006   8.648   9.619
21904WAT      O65953   9.313   9.836   5.198
21904WAT     H165954   9.317   9.804   5.103
21904WAT     H265955   9.395   9.889   5.219
21905WAT      O65956   3.378   5.489   4.536
21905WAT     H165957   3.381   5.440   4.449
21905WAT     H265958   3.471   5.507   4.568
21906WAT      O65959   1.103   1.617   5.761
21906WAT     H165960   1.138   1.540   5.814
21906WAT     H265961   1.008   1.636   5.787
21907WAT      O65962   9.729   5.431   7.539
21907WAT     H165963   9.719   5.414   7.637
21907WAT     H265964   9.793   5.365   7.500
21908WAT      O65965   4.926   2.283   5.159
21908WAT     H165966   4.870   2.276   5.241
21908WAT     H265967   4.977   2.198   5.145
21909WAT      O65968   0.915   7.685   9.722
21909WAT     H165969   0.944   7.771   9.682
21909WAT     H265970   0.832   7.700   9.776
21910WAT      O65971   1.987   8.355   9.391
21910WAT     H165972   1.928   8.436   9.390
21910WAT     H265973   1.962   8.297   9.467
21911WAT      O65974   0.576   3.901   3.549
21911WAT     H165975   0.608   3.857   3.633
21911WAT     H265976   0.650   3.957   3.510
21912WAT      O65977   3.355   1.257   4.382
21912WAT     H165978   3.437   1.292   4.336
21912WAT     H265979   3.341   1.161   4.358
21913WAT      O65980   3.081   9.759   5.932
21913WAT     H165981   3.113   9.835   5.989
21913WAT     H265982   2.982   9.754   5.936
21914WAT      O65983   4.000   4.145   4.706
21914WAT     H165984   4.082   4.087   4.702
21914WAT     H265985   3.926   4.095   4.750
21915WAT      O65986   6.489   9.677   7.614
21915WAT     H165987   6.397   9.648   7.640
21915WAT     H265988   6.556   9.609   7.644
21916WAT      O65989   7.051   1.745   2.481
21916WAT     H165990   7.014   1.664   2.437
21916WAT     H265991   6.983   1.783   2.544
21917WAT      O65992   4.192   0.544   5.342
21917WAT     H165993   4.095   0.568   5.331
21917WAT     H265994   4.248   0.603   5.284
21918WAT      O65995   8.878   2.482   6.646
21918WAT     H165996   8.919   2.393   6.668
21918WAT     H265997   8.831   2.518   6.727
21919WAT      O65998   0.442   7.167   5.281
21919WAT     H165999   0.380   7.124   5.348
21919WAT     H266000   0.399   7.166   5.191
21920WAT      O66001   6.306   1.449   8.767
21920WAT     H166002   6.247   1.515   8.721
21920WAT     H266003   6.262   1.360   8.769
21921WAT      O66004   4.165   3.483   9.607
21921WAT     H166005   4.120   3.412   9.553
21921WAT     H266006   4.169   3.455   9.703
21922WAT      O66007   2.934   0.223   3.337
21922WAT     H166008   2.990   0.172   3.272
21922WAT     H266009   2.988   0.246   3.418
21923WAT      O66010   8.250   2.001   3.704
21923WAT     H166011   8.214   2.040   3.789
21923WAT     H266012   8.230   1.903   3.701
21924WAT      O66013   4.774   4.121   6.137
21924WAT     H166014   4.834   4.197   6.163
21924WAT     H266015   4.695   4.157   6.087
21925WAT      O66016   6.523   8.445   1.607
21925WAT     H166017   6.488   8.389   1.532
21925WAT     H266018   6.620   8.465   1.590
21926WAT      O66019   0.639   8.230   6.080
21926WAT     H166020   0.691   8.229   5.995
21926WAT     H266021   0.701   8.246   6.157
21927WAT      O66022   8.122   3.999   7.265
21927WAT     H166023   8.185   3.993   7.187
21927WAT     H266024   8.108   4.094   7.290
21928WAT      O66025   7.334   0.673   7.212
21928WAT     H166026   7.419   0.725   7.212
21928WAT     H266027   7.321   0.629   7.124
21929WAT      O66028   3.569   5.274   5.187
21929WAT     H166029   3.656   5.239   5.153
21929WAT     H266030   3.493   5.224   5.146
21930WAT      O66031   5.099   3.822   2.743
21930WAT     H166032   5.059   3.913   2.733
21930WAT     H266033   5.198   3.831   2.753
21931WAT      O66034   5.022   6.358   5.612
21931WAT     H166035   5.090   6.396   5.675
21931WAT     H266036   4.985   6.273   5.649
21932WAT      O66037   7.557   6.353   8.932
21932WAT     H166038   7.509   6.295   8.866
21932WAT     H266039   7.498   6.428   8.960
21933WAT      O66040   3.211   5.012   5.766
21933WAT     H166041   3.175   4.998   5.674
21933WAT     H266042   3.307   4.982   5.769
21934WAT      O66043   7.313   6.358   3.118
21934WAT     H166044   7.232   6.417   3.122
21934WAT     H266045   7.378   6.385   3.189
21935WAT      O66046   2.504   7.286   3.951
21935WAT     H166047   2.544   7.354   3.890
21935WAT     H266048   2.529   7.194   3.919
21936WAT      O66049   5.151   6.709   4.535
21936WAT     H166050   5.179   6.619   4.501
21936WAT     H266051   5.209   6.734   4.613
21937WAT      O66052   0.948   8.763   8.919
21937WAT     H166053   1.011   8.701   8.966
21937WAT     H266054   0.958   8.856   8.954
21938WAT      O66055   0.662   3.321   3.282
21938WAT     H166056   0.715   3.240   3.307
21938WAT     H266057   0.724   3.392   3.248
21939WAT      O66058   1.872   6.214   0.444
21939WAT     H166059   1.820   6.227   0.360
21939WAT     H266060   1.837   6.134   0.492
21940WAT      O66061   5.341   3.005   1.316
21940WAT     H166062   5.428   2.970   1.281
21940WAT     H266063   5.319   2.959   1.402
21941WAT      O66064   7.639   1.259   6.251
21941WAT     H166065   7.708   1.320   6.212
21941WAT     H266066   7.563   1.248   6.187
21942WAT      O66067   9.570   8.283   1.539
21942WAT     H166068   9.479   8.320   1.519
21942WAT     H266069   9.616   8.342   1.606
21943WAT      O66070   4.781   5.775   4.645
21943WAT     H166071   4.728   5.842   4.593
21943WAT     H266072   4.871   5.763   4.602
21944WAT      O66073   3.138   4.800   0.385
21944WAT     H166074   3.103   4.791   0.478
21944WAT     H266075   3.219   4.742   0.374
21945WAT      O66076   7.869   1.257   7.183
21945WAT     H166077   7.816   1.323   7.129
21945WAT     H266078   7.943   1.219   7.127
21946WAT      O66079   3.626   8.568   5.007
21946WAT     H166080   3.721   8.538   4.993
21946WAT     H266081   3.601   8.632   4.934
21947WAT      O66082   1.160   4.187   4.544
21947WAT     H166083   1.141   4.277   4.506
21947WAT     H266084   1.197   4.127   4.472
21948WAT      O66085   1.033   1.137   3.897
21948WAT     H166086   0.985   1.152   3.983
21948WAT     H266087   1.024   1.217   3.839
21949WAT      O66088   6.607   1.024   0.775
21949WAT     H166089   6.667   0.964   0.827
21949WAT     H266090   6.513   0.990   0.778
21950WAT      O66091   2.441   0.496   1.089
21950WAT     H166092   2.380   0.430   1.045
21950WAT     H266093   2.391   0.581   1.105
21951WAT      O66094   1.482   4.021   8.344
21951WAT     H166095   1.450   4.110   8.378
21951WAT     H266096   1.471   4.017   8.245
21952WAT      O66097   9.287   3.672   8.051
21952WAT     H166098   9.361   3.606   8.069
21952WAT     H266099   9.311   3.761   8.090
21953WAT      O66100   4.252   2.676   0.459
21953WAT     H166101   4.229   2.622   0.378
21953WAT     H266102   4.176   2.738   0.480
21954WAT      O66103   6.167   0.188   7.194
21954WAT     H166104   6.125   0.279   7.193
21954WAT     H266105   6.242   0.186   7.128
21955WAT      O66106   4.392   4.213   0.140
21955WAT     H166107   4.447   4.229   0.222
21955WAT     H266108   4.350   4.299   0.111
21956WAT      O66109   4.437   8.491   9.505
21956WAT     H166110   4.385   8.414   9.468
21956WAT     H266111   4.452   8.477   9.603
21957WAT      O66112   7.584   5.184   1.389
21957WAT     H166113   7.583   5.188   1.489
21957WAT     H266114   7.519   5.114   1.358
21958WAT      O66115   3.148   9.807   8.720
21958WAT     H166116   3.216   9.858   8.667
21958WAT     H266117   3.188   9.778   8.807
21959WAT      O66118   1.480   0.172   7.282
21959WAT     H166119   1.481   0.170   7.382
21959WAT     H266120   1.558   0.226   7.250
21960WAT      O66121   2.105   8.272   5.139
21960WAT     H166122   2.200   8.301   5.124
21960WAT     H266123   2.043   8.342   5.102
21961WAT      O66124   4.248   3.596   3.206
21961WAT     H166125   4.189   3.594   3.125
21961WAT     H266126   4.195   3.573   3.287
21962WAT      O66127   2.757   2.737   8.365
21962WAT     H166128   2.697   2.683   8.307
21962WAT     H266129   2.725   2.734   8.459
21963WAT      O66130   6.674   7.175   1.955
21963WAT     H166131   6.655   7.225   1.870
21963WAT     H266132   6.712   7.238   2.022
21964WAT      O66133   3.955   3.252   7.909
21964WAT     H166134   3.925   3.330   7.854
21964WAT     H266135   3.904   3.251   7.995
21965WAT      O66136   4.991   9.393   9.350
21965WAT     H166137   4.892   9.377   9.351
21965WAT     H266138   5.024   9.390   9.256
21966WAT      O66139   0.618   2.670   7.718
21966WAT     H166140   0.585   2.705   7.805
21966WAT     H266141   0.676   2.739   7.673
21967WAT      O66142   2.768   1.055   2.723
21967WAT     H166143   2.686   1.024   2.771
21967WAT     H266144   2.747   1.070   2.626
21968WAT      O66145   8.442   0.018   4.926
21968WAT     H166146   8.513   0.031   4.995
21968WAT     H266147   8.430   0.104   4.876
21969WAT      O66148   0.461   6.130   7.041
21969WAT     H166149   0.516   6.208   7.069
21969WAT     H266150   0.458   6.126   6.941
21970WAT      O66151   1.574   1.228   3.198
21970WAT     H166152   1.670   1.206   3.183
21970WAT     H266153   1.550   1.210   3.293
21971WAT      O66154   0.395   9.727   8.095
21971WAT     H166155   0.370   9.632   8.078
21971WAT     H266156   0.494   9.738   8.083
21972WAT      O66157   5.079   1.010   7.942
21972WAT     H166158   5.085   0.959   8.028
21972WAT     H266159   4.983   1.029   7.921
21973WAT      O66160   9.401   2.891   2.274
21973WAT     H166161   9.385   2.843   2.187
21973WAT     H266162   9.337   2.968   2.282
21974WAT      O66163   5.892   1.942   9.361
21974WAT     H166164   5.846   1.901   9.440
21974WAT     H266165   5.956   1.877   9.322
21975WAT      O66166   3.860   7.046   7.089
21975WAT     H166167   3.817   7.049   6.999
21975WAT     H266168   3.932   7.116   7.094
21976WAT      O66169   0.221   6.127   3.208
21976WAT     H166170   0.226   6.120   3.308
21976WAT     H266171   0.134   6.090   3.177
21977WAT      O66172   9.553   6.757   4.951
21977WAT     H166173   9.525   6.692   4.880
21977WAT     H266174   9.472   6.804   4.986
21978WAT      O66175   5.720   6.059   2.875
21978WAT     H166176   5.801   6.048   2.817
21978WAT     H266177   5.739   6.025   2.967
21979WAT      O66178   3.160   5.165   1.172
21979WAT     H166179   3.137   5.262   1.173
21979WAT     H266180   3.193   5.139   1.081
21980WAT      O66181   7.257   1.951   7.189
21980WAT     H166182   7.226   2.037   7.230
21980WAT     H266183   7.343   1.967   7.140
21981WAT      O66184   7.906   7.226   7.945
21981WAT     H166185   8.002   7.203   7.959
21981WAT     H266186   7.859   7.147   7.904
21982WAT      O66187   0.871   2.095   0.783
21982WAT     H166188   0.778   2.061   0.789
21982WAT     H266189   0.923   2.067   0.864
21983WAT      O66190   3.776   2.862   2.593
21983WAT     H166191   3.678   2.839   2.594
21983WAT     H266192   3.790   2.945   2.539
21984WAT      O66193   7.954   8.830   0.185
21984WAT     H166194   7.893   8.760   0.223
21984WAT     H266195   8.027   8.785   0.134
21985WAT      O66196   6.851   5.691   1.924
21985WAT     H166197   6.832   5.609   1.977
21985WAT     H266198   6.773   5.754   1.929
21986WAT      O66199   0.657   6.332   3.831
21986WAT     H166200   0.589   6.265   3.861
21986WAT     H266201   0.749   6.291   3.837
21987WAT      O66202   2.551   7.005   3.130
21987WAT     H166203   2.546   7.067   3.208
21987WAT     H266204   2.632   7.027   3.075
21988WAT      O66205   7.146   0.953   4.078
21988WAT     H166206   7.170   0.886   4.008
21988WAT     H266207   7.177   1.043   4.049
21989WAT      O66208   6.097   1.015   0.690
21989WAT     H166209   6.126   1.103   0.653
21989WAT     H266210   6.065   0.956   0.616
21990WAT      O66211   2.654   5.189   0.529
21990WAT     H166212   2.661   5.107   0.586
21990WAT     H266213   2.597   5.257   0.575
21991WAT      O66214   1.116   1.286   6.500
21991WAT     H166215   1.168   1.225   6.560
21991WAT     H266216   1.121   1.253   6.406
21992WAT      O66217   6.962   7.079   0.377
21992WAT     H166218   6.893   7.063   0.447
21992WAT     H266219   6.992   6.992   0.338
21993WAT      O66220   2.260   8.222   8.931
21993WAT     H166221   2.240   8.312   8.971
21993WAT     H266222   2.214   8.151   8.984
21994WAT      O66223   7.196   7.559   0.093
21994WAT     H166224   7.165   7.478   0.142
21994WAT     H266225   7.235   7.625   0.157
21995WAT      O66226   7.922   2.949   8.539
21995WAT     H166227   7.979   3.017   8.491
21995WAT     H266228   7.829   2.984   8.548
21996WAT      O66229   3.050   2.192   0.139
21996WAT     H166230   3.015   2.248   0.214
21996WAT     H266231   2.978   2.180   0.070
21997WAT      O66232   4.044   1.970   7.954
21997WAT     H166233   4.031   2.008   7.862
21997WAT     H266234   3.960   1.982   8.007
21998WAT      O66235   0.729   8.461   3.660
21998WAT     H166236   0.775   8.480   3.573
21998WAT     H266237   0.638   8.423   3.641
21999WAT      O66238   5.457   8.085   2.129
21999WAT     H166239   5.411   8.158   2.180
21999WAT     H266240   5.523   8.125   2.066
22000WAT      O66241   9.875   6.185   2.389
22000WAT     H166242   9.805   6.225   2.330
22000WAT     H266243   9.866   6.223   2.481
22001WAT      O66244   2.893   4.171   6.609
22001WAT     H166245   2.835   4.090   6.600
22001WAT     H266246   2.987   4.148   6.585
22002WAT      O66247   8.847   4.529   1.345
22002WAT     H166248   8.796   4.580   1.276
22002WAT     H266249   8.791   4.454   1.379
22003WAT      O66250   6.076   3.153   9.216
22003WAT     H166251   5.985   3.177   9.181
22003WAT     H266252   6.133   3.235   9.222
22004WAT      O66253   2.661   5.271   5.405
22004WAT     H166254   2.571   5.311   5.388
22004WAT     H266255   2.709   5.259   5.318
22005WAT      O66256   4.851   8.419   4.561
22005WAT     H166257   4.774   8.439   4.622
22005WAT     H266258   4.917   8.360   4.607
22006WAT      O66259   8.444   1.670   0.608
22006WAT     H166260   8.455   1.572   0.629
22006WAT     H266261   8.451   1.683   0.509
22007WAT      O66262   6.552   3.000   7.233
22007WAT     H166263   6.583   2.908   7.255
22007WAT     H266264   6.452   3.002   7.231
22008WAT      O66265   8.225   7.134   1.759
22008WAT     H166266   8.283   7.180   1.691
22008WAT     H266267   8.189   7.049   1.721
22009WAT      O66268   2.741   0.483   6.087
22009WAT     H166269   2.826   0.487   6.140
22009WAT     H266270   2.703   0.391   6.091
22010WAT      O66271   8.666   7.783   6.886
22010WAT     H166272   8.667   7.797   6.985
22010WAT     H266273   8.693   7.689   6.865
22011WAT      O66274   4.355   9.102   5.282
22011WAT     H166275   4.327   9.126   5.375
22011WAT     H266276   4.398   9.181   5.239
22012WAT      O66277   0.087   0.328   0.368
22012WAT     H166278   0.027   0.330   0.288
22012WAT     H266279   0.132   0.417   0.378
22013WAT      O66280   8.227   4.371   1.499
22013WAT     H166281   8.286   4.290   1.497
22013WAT     H266282   8.186   4.385   1.408
22014WAT      O66283   4.117   5.274   0.722
22014WAT     H166284   4.040   5.316   0.769
22014WAT     H266285   4.202   5.318   0.752
22015WAT      O66286   4.534   2.931   4.079
22015WAT     H166287   4.485   2.888   4.003
22015WAT     H266288   4.481   3.008   4.113
22016WAT      O66289   9.569   5.391   8.497
22016WAT     H166290   9.573   5.380   8.397
22016WAT     H266291   9.548   5.303   8.539
22017WAT      O66292   3.810   0.272   5.915
22017WAT     H166293   3.720   0.308   5.941
22017WAT     H266294   3.849   0.222   5.992
22018WAT      O66295   1.269   9.419   9.267
22018WAT     H166296   1.295   9.328   9.299
22018WAT     H266297   1.245   9.476   9.345
22019WAT      O66298   6.998   6.045   0.126
22019WAT     H166299   7.045   6.131   0.144
22019WAT     H266300   7.008   6.021   0.029
22020WAT      O66301   4.974   5.509   4.737
22020WAT     H166302   4.990   5.509   4.836
22020WAT     H266303   5.043   5.566   4.692
22021WAT      O66304   7.551   1.069   1.578
22021WAT     H166305   7.637   1.120   1.586
22021WAT     H266306   7.538   1.012   1.659
22022WAT      O66307   1.221   1.245   9.737
22022WAT     H166308   1.293   1.177   9.752
22022WAT     H266309   1.262   1.337   9.734
22023WAT      O66310   4.683   7.471   0.519
22023WAT     H166311   4.610   7.457   0.585
22023WAT     H266312   4.662   7.549   0.461
22024WAT      O66313   8.839   3.375   1.357
22024WAT     H166314   8.935   3.396   1.379
22024WAT     H266315   8.802   3.448   1.299
22025WAT      O66316   8.151   8.091   6.149
22025WAT     H166317   8.173   8.188   6.163
22025WAT     H266318   8.209   8.054   6.077
22026WAT      O66319   9.180   9.195   1.306
22026WAT     H166320   9.127   9.134   1.364
22026WAT     H266321   9.197   9.281   1.355
22027WAT      O66322   1.066   2.439   4.984
22027WAT     H166323   1.097   2.533   4.976
22027WAT     H266324   1.068   2.395   4.894
22028WAT      O66325   3.951   5.403   3.813
22028WAT     H166326   3.917   5.320   3.857
22028WAT     H266327   4.050   5.408   3.824
22029WAT      O66328   8.300   5.701   4.211
22029WAT     H166329   8.231   5.634   4.184
22029WAT     H266330   8.286   5.727   4.306
22030WAT      O66331   4.625   2.805   3.489
22030WAT     H166332   4.583   2.830   3.402
22030WAT     H266333   4.718   2.773   3.473
22031WAT      O66334   2.198   5.224   5.864
22031WAT     H166335   2.252   5.215   5.780
22031WAT     H266336   2.258   5.218   5.943
22032WAT      O66337   8.812   1.187   1.308
22032WAT     H166338   8.781   1.105   1.260
22032WAT     H266339   8.812   1.265   1.245
22033WAT      O66340   1.591   4.441   0.784
22033WAT     H166341   1.572   4.517   0.722
22033WAT     H266342   1.686   4.412   0.774
22034WAT      O66343   9.875   0.564   4.345
22034WAT     H166344   9.955   0.545   4.288
22034WAT     H266345   9.879   0.659   4.378
22035WAT      O66346   0.636   2.208   6.409
22035WAT     H166347   0.724   2.195   6.453
22035WAT     H266348   0.627   2.143   6.333
22036WAT      O66349   8.323   6.249   9.278
22036WAT     H166350   8.257   6.175   9.291
22036WAT     H266351   8.416   6.210   9.275
22037WAT      O66352   1.021   5.231   4.460
22037WAT     H166353   1.061   5.213   4.370
22037WAT     H266354   0.925   5.257   4.449
22038WAT      O66355   6.787   4.452   4.533
22038WAT     H166356   6.749   4.456   4.626
22038WAT     H266357   6.828   4.362   4.518
22039WAT      O66358   4.647   5.893   0.040
22039WAT     H166359   4.719   5.947   0.082
22039WAT     H266360   4.571   5.952   0.013
22040WAT      O66361   4.685   5.610   7.745
22040WAT     H166362   4.741   5.684   7.782
22040WAT     H266363   4.731   5.522   7.760
22041WAT      O66364   9.764   3.473   7.808
22041WAT     H166365   9.853   3.483   7.765
22041WAT     H266366   9.773   3.422   7.893
22042WAT      O66367   8.920   8.747   2.484
22042WAT     H166368   8.860   8.699   2.419
22042WAT     H266369   8.864   8.800   2.548
22043WAT      O66370   2.390   6.833   7.193
22043WAT     H166371   2.434   6.890   7.124
22043WAT     H266372   2.444   6.750   7.209
22044WAT      O66373   5.230   1.990   3.284
22044WAT     H166374   5.200   1.987   3.188
22044WAT     H266375   5.161   2.039   3.338
22045WAT      O66376   9.705   2.389   5.752
22045WAT     H166377   9.793   2.345   5.736
22045WAT     H266378   9.637   2.351   5.688
22046WAT      O66379   4.214   9.698   4.787
22046WAT     H166380   4.277   9.620   4.792
22046WAT     H266381   4.154   9.698   4.867
22047WAT      O66382   9.675   4.023   0.577
22047WAT     H166383   9.763   4.046   0.535
22047WAT     H266384   9.601   4.070   0.527
22048WAT      O66385   5.694   9.593   2.927
22048WAT     H166386   5.717   9.564   3.020
22048WAT     H266387   5.699   9.693   2.921
22049WAT      O66388   9.813   5.420   4.153
22049WAT     H166389   9.846   5.514   4.165
22049WAT     H266390   9.876   5.370   4.094
22050WAT      O66391   3.929   5.381   8.911
22050WAT     H166392   3.899   5.475   8.895
22050WAT     H266393   3.850   5.325   8.935
22051WAT      O66394   5.907   3.736   5.382
22051WAT     H166395   5.901   3.661   5.449
22051WAT     H266396   5.847   3.716   5.305
22052WAT      O66397   6.395   4.428   0.879
22052WAT     H166398   6.325   4.497   0.861
22052WAT     H266399   6.363   4.364   0.949
22053WAT      O66400   3.592   9.824   1.215
22053WAT     H166401   3.498   9.848   1.235
22053WAT     H266402   3.654   9.883   1.267
22054WAT      O66403   8.955   2.541   4.201
22054WAT     H166404   8.881   2.605   4.221
22054WAT     H266405   9.022   2.544   4.275
22055WAT      O66406   7.529   8.326   4.788
22055WAT     H166407   7.515   8.414   4.742
22055WAT     H266408   7.582   8.341   4.872
22056WAT      O66409   3.050   6.159   2.079
22056WAT     H166410   3.131   6.122   2.125
22056WAT     H266411   3.079   6.212   1.998
22057WAT      O66412   8.079   5.287   8.379
22057WAT     H166413   8.165   5.276   8.429
22057WAT     H266414   8.082   5.372   8.326
22058WAT      O66415   9.150   5.926   1.348
22058WAT     H166416   9.151   6.015   1.303
22058WAT     H266417   9.220   5.923   1.419
22059WAT      O66418   2.069   4.188   1.848
22059WAT     H166419   2.034   4.268   1.897
22059WAT     H266420   2.168   4.181   1.861
22060WAT      O66421   6.472   8.320   8.837
22060WAT     H166422   6.390   8.288   8.883
22060WAT     H266423   6.449   8.393   8.773
22061WAT      O66424   4.940   8.901   9.376
22061WAT     H166425   4.932   8.911   9.475
22061WAT     H266426   4.921   8.807   9.349
22062WAT      O66427   4.762   0.113   1.882
22062WAT     H166428   4.858   0.127   1.860
22062WAT     H266429   4.720   0.201   1.906
22063WAT      O66430   0.390   2.822   1.459
22063WAT     H166431   0.301   2.779   1.446
22063WAT     H266432   0.439   2.777   1.533
22064WAT      O66433   6.757   8.915   5.490
22064WAT     H166434   6.827   8.976   5.451
22064WAT     H266435   6.787   8.883   5.580
22065WAT      O66436   0.153   8.303   8.928
22065WAT     H166437   0.171   8.311   9.026
22065WAT     H266438   0.056   8.281   8.914
22066WAT      O66439   3.760   7.084   3.252
22066WAT     H166440   3.680   7.132   3.289
22066WAT     H266441   3.824   7.064   3.325
22067WAT      O66442   2.212   1.561   4.639
22067WAT     H166443   2.210   1.608   4.727
22067WAT     H266444   2.135   1.498   4.633
22068WAT      O66445   8.413   4.811   3.385
22068WAT     H166446   8.448   4.901   3.358
22068WAT     H266447   8.452   4.785   3.473
22069WAT      O66448   5.390   8.853   5.970
22069WAT     H166449   5.463   8.914   5.999
22069WAT     H266450   5.347   8.811   6.050
22070WAT      O66451   5.007   0.523   4.310
22070WAT     H166452   5.022   0.470   4.227
22070WAT     H266453   4.913   0.557   4.312
22071WAT      O66454   7.194   6.409   0.461
22071WAT     H166455   7.193   6.317   0.423
22071WAT     H266456   7.272   6.419   0.523
22072WAT      O66457   5.333   8.852   4.708
22072WAT     H166458   5.312   8.755   4.692
22072WAT     H266459   5.274   8.909   4.651
22073WAT      O66460   7.027   8.516   4.899
22073WAT     H166461   6.932   8.511   4.870
22073WAT     H266462   7.084   8.550   4.824
22074WAT      O66463   8.487   6.066   5.457
22074WAT     H166464   8.551   6.061   5.534
22074WAT     H266465   8.472   5.975   5.419
22075WAT      O66466   1.379   7.583   3.323
22075WAT     H166467   1.435   7.501   3.310
22075WAT     H266468   1.329   7.604   3.239
22076WAT      O66469   2.271   5.780   8.102
22076WAT     H166470   2.196   5.775   8.037
22076WAT     H266471   2.292   5.688   8.135
22077WAT      O66472   6.990   4.836   4.349
22077WAT     H166473   6.946   4.884   4.425
22077WAT     H266474   7.085   4.868   4.341
22078WAT      O66475   9.584   1.933   5.194
22078WAT     H166476   9.675   1.910   5.161
22078WAT     H266477   9.590   2.011   5.258
22079WAT      O66478   1.882   2.669   6.900
22079WAT     H166479   1.939   2.748   6.922
22079WAT     H266480   1.786   2.693   6.912
22080WAT      O66481   5.796   6.259   0.594
22080WAT     H166482   5.702   6.225   0.598
22080WAT     H266483   5.796   6.354   0.563
22081WAT      O66484   4.067   8.423   0.636
22081WAT     H166485   4.118   8.500   0.675
22081WAT     H266486   4.052   8.354   0.707
22082WAT      O66487   5.962   4.051   9.120
22082WAT     H166488   6.058   4.057   9.150
22082WAT     H266489   5.909   4.000   9.188
22083WAT      O66490   4.904   5.222   3.298
22083WAT     H166491   4.894   5.254   3.392
22083WAT     H266492   5.000   5.227   3.270
22084WAT      O66493   3.229   2.594   8.310
22084WAT     H166494   3.232   2.561   8.216
22084WAT     H266495   3.313   2.645   8.331
22085WAT      O66496   0.855   4.111   2.165
22085WAT     H166497   0.798   4.160   2.231
22085WAT     H266498   0.855   4.013   2.186
22086WAT      O66499   9.459   8.417   5.932
22086WAT     H166500   9.461   8.479   6.011
22086WAT     H266501   9.501   8.329   5.959
22087WAT      O66502   0.568   2.067   3.554
22087WAT     H166503   0.649   2.115   3.587
22087WAT     H266504   0.542   1.997   3.620
22088WAT      O66505   7.382   4.193   7.377
22088WAT     H166506   7.300   4.213   7.324
22088WAT     H266507   7.426   4.279   7.403
22089WAT      O66508   7.568   6.290   4.920
22089WAT     H166509   7.653   6.297   4.869
22089WAT     H266510   7.559   6.198   4.958
22090WAT      O66511   5.445   2.281   2.602
22090WAT     H166512   5.354   2.238   2.599
22090WAT     H266513   5.448   2.356   2.536
22091WAT      O66514   6.207   4.728   5.337
22091WAT     H166515   6.247   4.638   5.354
22091WAT     H266516   6.230   4.757   5.244
22092WAT      O66517   0.690   9.562   5.757
22092WAT     H166518   0.594   9.542   5.738
22092WAT     H266519   0.741   9.476   5.768
22093WAT      O66520   0.583   6.424   8.493
22093WAT     H166521   0.556   6.441   8.398
22093WAT     H266522   0.682   6.433   8.501
22094WAT      O66523   7.773   3.003   9.346
22094WAT     H166524   7.684   3.048   9.358
22094WAT     H266525   7.759   2.906   9.328
22095WAT      O66526   6.069   8.312   8.146
22095WAT     H166527   6.088   8.404   8.111
22095WAT     H266528   6.069   8.314   8.246
22096WAT      O66529   5.106   9.472   6.204
22096WAT     H166530   5.114   9.373   6.218
22096WAT     H266531   5.021   9.504   6.244
22097WAT      O66532   0.579   7.483   8.413
22097WAT     H166533   0.655   7.457   8.473
22097WAT     H266534   0.608   7.476   8.318
22098WAT      O66535   0.241   1.292   6.153
22098WAT     H166536   0.147   1.320   6.174
22098WAT     H266537   0.241   1.236   6.070
22099WAT      O66538   5.226   1.363   7.634
22099WAT     H166539   5.133   1.328   7.624
22099WAT     H266540   5.289   1.287   7.652
22100WAT      O66541   9.178   2.218   5.203
22100WAT     H166542   9.201   2.161   5.281
22100WAT     H266543   9.095   2.184   5.159
22101WAT      O66544   9.184   3.621   6.308
22101WAT     H166545   9.281   3.631   6.288
22101WAT     H266546   9.172   3.567   6.392
22102WAT      O66547   6.429   7.350   0.803
22102WAT     H166548   6.372   7.287   0.856
22102WAT     H266549   6.370   7.410   0.749
22103WAT      O66550   4.496   7.147   5.835
22103WAT     H166551   4.492   7.048   5.819
22103WAT     H266552   4.564   7.167   5.905
22104WAT      O66553   8.611   3.584   8.878
22104WAT     H166554   8.578   3.601   8.785
22104WAT     H266555   8.705   3.550   8.875
22105WAT      O66556   4.895   4.474   5.599
22105WAT     H166557   4.987   4.485   5.560
22105WAT     H266558   4.834   4.542   5.559
22106WAT      O66559   6.309   2.819   7.266
22106WAT     H166560   6.302   2.918   7.250
22106WAT     H266561   6.218   2.778   7.256
22107WAT      O66562   9.685   5.224   3.868
22107WAT     H166563   9.627   5.193   3.944
22107WAT     H266564   9.673   5.161   3.791
22108WAT      O66565   7.441   3.564   1.134
22108WAT     H166566   7.421   3.661   1.145
22108WAT     H266567   7.521   3.553   1.074
22109WAT      O66568   4.931   0.177   4.266
22109WAT     H166569   5.017   0.160   4.315
22109WAT     H266570   4.942   0.258   4.207
22110WAT      O66571   3.335   3.590   6.365
22110WAT     H166572   3.396   3.541   6.428
22110WAT     H266573   3.385   3.611   6.281
22111WAT      O66574   4.996   6.541   9.090
22111WAT     H166575   5.092   6.526   9.112
22111WAT     H266576   4.981   6.638   9.072
22112WAT      O66577   6.488   7.873   9.274
22112WAT     H166578   6.395   7.910   9.275
22112WAT     H266579   6.551   7.938   9.315
22113WAT      O66580   1.194   0.998   5.408
22113WAT     H166581   1.242   1.080   5.377
22113WAT     H266582   1.232   0.918   5.361
22114WAT      O66583   3.483   1.853   4.344
22114WAT     H166584   3.407   1.792   4.322
22114WAT     H266585   3.447   1.944   4.365
22115WAT      O66586   1.373   5.050   9.648
22115WAT     H166587   1.298   5.088   9.593
22115WAT     H266588   1.342   4.965   9.691
22116WAT      O66589   3.735   2.687   0.417
22116WAT     H166590   3.798   2.619   0.380
22116WAT     H266591   3.705   2.659   0.508
22117WAT      O66592   1.727   5.509   6.129
22117WAT     H166593   1.722   5.435   6.062
22117WAT     H266594   1.815   5.506   6.176
22118WAT      O66595   2.866   4.804   2.640
22118WAT     H166596   2.785   4.806   2.698
22118WAT     H266597   2.937   4.749   2.683
22119WAT      O66598   6.146   5.664   7.264
22119WAT     H166599   6.117   5.715   7.345
22119WAT     H266600   6.152   5.725   7.186
22120WAT      O66601   7.251   3.930   2.689
22120WAT     H166602   7.297   3.844   2.668
22120WAT     H266603   7.270   3.956   2.784
22121WAT      O66604   1.414   3.728   8.801
22121WAT     H166605   1.447   3.793   8.732
22121WAT     H266606   1.328   3.688   8.770
22122WAT      O66607   8.908   0.993   5.904
22122WAT     H166608   8.904   1.087   5.938
22122WAT     H266609   8.967   0.989   5.823
22123WAT      O66610   1.080   7.451   7.146
22123WAT     H166611   1.151   7.521   7.142
22123WAT     H266612   1.113   7.367   7.104
22124WAT      O66613   1.902   4.110   2.462
22124WAT     H166614   1.960   4.043   2.508
22124WAT     H266615   1.890   4.084   2.366
22125WAT      O66616   0.858   8.185   8.644
22125WAT     H166617   0.773   8.234   8.628
22125WAT     H266618   0.884   8.133   8.562
22126WAT      O66619   2.693   3.818   1.419
22126WAT     H166620   2.776   3.769   1.391
22126WAT     H266621   2.710   3.864   1.506
22127WAT      O66622   1.477   3.503   6.770
22127WAT     H166623   1.438   3.488   6.679
22127WAT     H266624   1.425   3.450   6.837
22128WAT      O66625   8.831   4.593   2.655
22128WAT     H166626   8.900   4.520   2.654
22128WAT     H266627   8.744   4.557   2.688
22129WAT      O66628   5.190   9.191   3.639
22129WAT     H166629   5.104   9.184   3.588
22129WAT     H266630   5.260   9.137   3.593
22130WAT      O66631   3.656   6.740   1.006
22130WAT     H166632   3.688   6.737   1.101
22130WAT     H266633   3.596   6.818   0.994
22131WAT      O66634   8.026   2.973   5.042
22131WAT     H166635   8.011   2.927   5.129
22131WAT     H266636   7.959   2.942   4.975
22132WAT      O66637   0.343   2.512   4.836
22132WAT     H166638   0.248   2.487   4.857
22132WAT     H266639   0.366   2.597   4.883
22133WAT      O66640   9.615   3.460   4.098
22133WAT     H166641   9.568   3.396   4.038
22133WAT     H266642   9.579   3.552   4.084
22134WAT      O66643   7.137   1.090   8.143
22134WAT     H166644   7.183   1.178   8.140
22134WAT     H266645   7.202   1.019   8.171
22135WAT      O66646   2.200   9.304   8.754
22135WAT     H166647   2.138   9.227   8.741
22135WAT     H266648   2.147   9.387   8.772
22136WAT      O66649   3.424   0.054   6.589
22136WAT     H166650   3.455  -0.040   6.605
22136WAT     H266651   3.459   0.113   6.661
22137WAT      O66652   7.233   0.849   8.518
22137WAT     H166653   7.277   0.764   8.547
22137WAT     H266654   7.245   0.919   8.588
22138WAT      O66655   7.975   0.554   7.743
22138WAT     H166656   7.887   0.533   7.702
22138WAT     H266657   7.961   0.585   7.838
22139WAT      O66658   3.609   1.465   6.374
22139WAT     H166659   3.527   1.464   6.317
22139WAT     H266660   3.685   1.507   6.324
22140WAT      O66661   6.909   9.500   8.964
22140WAT     H166662   6.949   9.509   9.055
22140WAT     H266663   6.811   9.520   8.968
22141WAT      O66664   8.044   5.182   0.231
22141WAT     H166665   8.094   5.096   0.231
22141WAT     H266666   7.986   5.186   0.149
22142WAT      O66667   8.012   7.304   4.752
22142WAT     H166668   8.085   7.354   4.799
22142WAT     H266669   7.970   7.239   4.816
22143WAT      O66670   4.388   4.999   7.924
22143WAT     H166671   4.318   4.935   7.955
22143WAT     H266672   4.438   5.035   8.003
22144WAT      O66673   7.400   8.904   8.362
22144WAT     H166674   7.439   8.812   8.363
22144WAT     H266675   7.348   8.918   8.278
22145WAT      O66676   4.600   7.957   5.355
22145WAT     H166677   4.697   7.933   5.354
22145WAT     H266678   4.548   7.884   5.310
22146WAT      O66679   7.731   0.071   0.479
22146WAT     H166680   7.717   0.169   0.476
22146WAT     H266681   7.642   0.024   0.478
22147WAT      O66682   3.131   2.429   2.415
22147WAT     H166683   3.062   2.470   2.355
22147WAT     H266684   3.221   2.469   2.394
22148WAT      O66685   4.182   8.404   7.910
22148WAT     H166686   4.246   8.476   7.939
22148WAT     H266687   4.230   8.339   7.851
22149WAT      O66688   1.553   2.302   9.830
22149WAT     H166689   1.652   2.315   9.827
22149WAT     H266690   1.507   2.389   9.818
22150WAT      O66691   3.403   7.032   8.202
22150WAT     H166692   3.385   7.027   8.103
22150WAT     H266693   3.449   7.119   8.222
22151WAT      O66694   8.349   3.134   8.420
22151WAT     H166695   8.392   3.224   8.413
22151WAT     H266696   8.391   3.083   8.494
22152WAT      O66697   7.710   2.286   0.427
22152WAT     H166698   7.667   2.233   0.501
22152WAT     H266699   7.683   2.247   0.339
22153WAT      O66700   8.738   8.599   7.449
22153WAT     H166701   8.833   8.609   7.479
22153WAT     H266702   8.681   8.573   7.527
22154WAT      O66703   0.290   9.174   0.927
22154WAT     H166704   0.267   9.268   0.954
22154WAT     H266705   0.301   9.171   0.827
22155WAT      O66706   9.359   2.376   4.017
22155WAT     H166707   9.446   2.327   4.008
22155WAT     H266708   9.369   2.468   3.981
22156WAT      O66709   8.102   1.100   7.680
22156WAT     H166710   8.067   1.188   7.649
22156WAT     H266711   8.202   1.104   7.686
22157WAT      O66712   8.602   2.665   0.960
22157WAT     H166713   8.610   2.634   1.054
22157WAT     H266714   8.510   2.700   0.943
22158WAT      O66715   3.576   7.158   0.806
22158WAT     H166716   3.606   7.253   0.796
22158WAT     H266717   3.496   7.143   0.748
22159WAT      O66718   7.010   4.797   4.064
22159WAT     H166719   7.002   4.780   4.162
22159WAT     H266720   6.930   4.846   4.032
22160WAT      O66721   6.913   6.900   9.655
22160WAT     H166722   6.846   6.972   9.637
22160WAT     H266723   6.958   6.874   9.570
22161WAT      O66724   2.822   7.584   0.427
22161WAT     H166725   2.783   7.650   0.490
22161WAT     H266726   2.885   7.630   0.364
22162WAT      O66727   2.485   0.847   2.568
22162WAT     H166728   2.468   0.943   2.590
22162WAT     H266729   2.425   0.789   2.623
22163WAT      O66730   3.943   1.984   4.583
22163WAT     H166731   4.040   1.974   4.561
22163WAT     H266732   3.898   2.041   4.514
22164WAT      O66733   5.784   8.800   3.797
22164WAT     H166734   5.873   8.755   3.798
22164WAT     H266735   5.775   8.857   3.879
22165WAT      O66736   1.657   6.538   0.406
22165WAT     H166737   1.731   6.527   0.472
22165WAT     H266738   1.636   6.449   0.365
22166WAT      O66739   7.005   7.778   7.986
22166WAT     H166740   6.930   7.844   7.994
22166WAT     H266741   7.065   7.805   7.910
22167WAT      O66742   0.352   1.857   6.512
22167WAT     H166743   0.357   1.793   6.435
22167WAT     H266744   0.377   1.949   6.480
22168WAT      O66745   0.811   4.170   1.299
22168WAT     H166746   0.824   4.199   1.204
22168WAT     H266747   0.895   4.187   1.350
22169WAT      O66748   8.348   0.690   0.786
22169WAT     H166749   8.284   0.703   0.710
22169WAT     H266750   8.434   0.736   0.765
22170WAT      O66751   9.700   1.542   0.817
22170WAT     H166752   9.735   1.563   0.726
22170WAT     H266753   9.700   1.443   0.831
22171WAT      O66754   5.216   5.053   7.178
22171WAT     H166755   5.250   5.082   7.088
22171WAT     H266756   5.133   4.999   7.166
22172WAT      O66757   3.259   3.051   4.273
22172WAT     H166758   3.308   3.059   4.187
22172WAT     H266759   3.253   3.140   4.317
22173WAT      O66760   3.130   8.624   1.442
22173WAT     H166761   3.154   8.625   1.539
22173WAT     H266762   3.031   8.612   1.433
22174WAT      O66763   3.145   4.474   2.305
22174WAT     H166764   3.232   4.427   2.289
22174WAT     H266765   3.153   4.570   2.277
22175WAT      O66766   1.221   6.475   9.869
22175WAT     H166767   1.307   6.489   9.918
22175WAT     H266768   1.227   6.517   9.778
22176WAT      O66769   1.665   4.005   8.752
22176WAT     H166770   1.711   4.090   8.728
22176WAT     H266771   1.641   4.007   8.849
22177WAT      O66772   2.821   9.833   7.731
22177WAT     H166773   2.812   9.741   7.769
22177WAT     H266774   2.874   9.890   7.795
22178WAT      O66775   5.898   5.700   3.474
22178WAT     H166776   5.879   5.640   3.552
22178WAT     H266777   5.821   5.698   3.410
22179WAT      O66778   1.554   7.410   1.696
22179WAT     H166779   1.489   7.460   1.752
22179WAT     H266780   1.561   7.315   1.729
22180WAT      O66781   1.491   1.059   0.170
22180WAT     H166782   1.407   1.028   0.215
22180WAT     H266783   1.564   1.066   0.237
22181WAT      O66784   0.964   5.251   9.663
22181WAT     H166785   0.938   5.332   9.717
22181WAT     H266786   0.963   5.170   9.722
22182WAT      O66787   4.577   2.768   2.408
22182WAT     H166788   4.509   2.768   2.482
22182WAT     H266789   4.663   2.730   2.442
22183WAT      O66790   7.529   0.527   8.994
22183WAT     H166791   7.525   0.563   9.087
22183WAT     H266792   7.469   0.581   8.935
22184WAT      O66793   9.187   7.575   0.098
22184WAT     H166794   9.137   7.614   0.021
22184WAT     H266795   9.131   7.504   0.142
22185WAT      O66796   3.159   3.924   8.686
22185WAT     H166797   3.083   3.875   8.727
22185WAT     H266798   3.229   3.859   8.657
22186WAT      O66799   3.782   5.843   5.419
22186WAT     H166800   3.709   5.877   5.479
22186WAT     H266801   3.805   5.750   5.444
22187WAT      O66802   4.773   9.427   4.851
22187WAT     H166803   4.850   9.402   4.793
22187WAT     H266804   4.804   9.488   4.924
22188WAT      O66805   0.556   6.067   0.313
22188WAT     H166806   0.600   5.984   0.349
22188WAT     H266807   0.458   6.062   0.328
22189WAT      O66808   8.574   8.915   8.071
22189WAT     H166809   8.590   8.911   7.972
22189WAT     H266810   8.654   8.879   8.119
22190WAT      O66811   2.503   6.165   2.813
22190WAT     H166812   2.459   6.094   2.867
22190WAT     H266813   2.469   6.162   2.719
22191WAT      O66814   9.553   9.724   3.820
22191WAT     H166815   9.567   9.657   3.748
22191WAT     H266816   9.490   9.795   3.788
22192WAT      O66817   6.793   7.513   4.624
22192WAT     H166818   6.703   7.505   4.667
22192WAT     H266819   6.784   7.549   4.531
22193WAT      O66820   5.234   3.428   8.590
22193WAT     H166821   5.286   3.513   8.586
22193WAT     H266822   5.187   3.421   8.678
22194WAT      O66823   2.133   9.170   5.376
22194WAT     H166824   2.110   9.076   5.399
22194WAT     H266825   2.095   9.192   5.286
22195WAT      O66826   2.071   8.263   5.537
22195WAT     H166827   2.002   8.316   5.487
22195WAT     H266828   2.073   8.169   5.503
22196WAT      O66829   4.669   8.007   0.996
22196WAT     H166830   4.644   7.911   0.983
22196WAT     H266831   4.760   8.023   0.958
22197WAT      O66832   1.034   3.923   5.902
22197WAT     H166833   1.089   4.006   5.895
22197WAT     H266834   0.981   3.925   5.987
22198WAT      O66835   8.487   6.948   3.219
22198WAT     H166836   8.459   6.994   3.136
22198WAT     H266837   8.437   6.986   3.297
22199WAT      O66838   0.038   7.644   8.123
22199WAT     H166839   0.043   7.715   8.193
22199WAT     H266840   0.017   7.685   8.035
22200WAT      O66841   4.772   6.891   6.234
22200WAT     H166842   4.825   6.890   6.319
22200WAT     H266843   4.687   6.840   6.248
22201WAT      O66844   7.811   6.355   8.853
22201WAT     H166845   7.864   6.275   8.881
22201WAT     H266846   7.715   6.341   8.877
22202WAT      O66847   6.755   3.328   3.057
22202WAT     H166848   6.788   3.345   2.964
22202WAT     H266849   6.744   3.230   3.071
22203WAT      O66850   5.174   7.602   7.099
22203WAT     H166851   5.175   7.634   7.004
22203WAT     H266852   5.242   7.654   7.152
22204WAT      O66853   9.244   1.635   0.128
22204WAT     H166854   9.316   1.621   0.060
22204WAT     H266855   9.157   1.602   0.091
22205WAT      O66856   3.647   3.057   7.291
22205WAT     H166857   3.641   3.019   7.199
22205WAT     H266858   3.554   3.076   7.325
22206WAT      O66859   1.119   6.850   0.678
22206WAT     H166860   1.072   6.762   0.680
22206WAT     H266861   1.119   6.886   0.585
22207WAT      O66862   0.559   7.496   3.389
22207WAT     H166863   0.569   7.586   3.347
22207WAT     H266864   0.636   7.438   3.361
22208WAT      O66865   9.803   0.608   9.078
22208WAT     H166866   9.894   0.569   9.093
22208WAT     H266867   9.788   0.618   8.979
22209WAT      O66868   8.899   1.956   7.835
22209WAT     H166869   8.825   1.992   7.892
22209WAT     H266870   8.968   2.027   7.822
22210WAT      O66871   5.658   4.264   6.532
22210WAT     H166872   5.617   4.224   6.450
22210WAT     H266873   5.714   4.343   6.507
22211WAT      O66874   7.211   1.026   0.561
22211WAT     H166875   7.294   0.990   0.604
22211WAT     H266876   7.131   0.981   0.599
22212WAT      O66877   0.225   5.034   2.472
22212WAT     H166878   0.133   5.074   2.470
22212WAT     H266879   0.277   5.065   2.393
22213WAT      O66880   4.313   8.424   5.116
22213WAT     H166881   4.277   8.357   5.050
22213WAT     H266882   4.284   8.399   5.208
22214WAT      O66883   3.350   5.904   6.602
22214WAT     H166884   3.380   5.930   6.693
22214WAT     H266885   3.320   5.809   6.602
22215WAT      O66886   9.575   0.458   7.649
22215WAT     H166887   9.586   0.365   7.617
22215WAT     H266888   9.628   0.471   7.733
22216WAT      O66889   2.586   2.449   5.106
22216WAT     H166890   2.611   2.541   5.076
22216WAT     H266891   2.643   2.381   5.059
22217WAT      O66892   2.433   4.002   4.193
22217WAT     H166893   2.478   3.981   4.106
22217WAT     H266894   2.501   4.001   4.266
22218WAT      O66895   8.652   4.921   8.936
22218WAT     H166896   8.619   4.969   8.855
22218WAT     H266897   8.583   4.927   9.008
22219WAT      O66898   8.199   2.421   6.097
22219WAT     H166899   8.172   2.326   6.086
22219WAT     H266900   8.150   2.477   6.030
22220WAT      O66901   2.757   1.323   8.065
22220WAT     H166902   2.736   1.276   8.151
22220WAT     H266903   2.766   1.256   7.991
22221WAT      O66904   6.986   5.035   9.251
22221WAT     H166905   6.954   5.101   9.184
22221WAT     H266906   6.908   4.981   9.284
22222WAT      O66907   1.668   1.848   1.673
22222WAT     H166908   1.766   1.868   1.674
22222WAT     H266909   1.654   1.749   1.675
22223WAT      O66910   0.286   2.232   7.478
22223WAT     H166911   0.219   2.212   7.549
22223WAT     H266912   0.296   2.331   7.467
22224WAT      O66913   1.861   5.129   7.054
22224WAT     H166914   1.893   5.223   7.058
22224WAT     H266915   1.933   5.067   7.085
22225WAT      O66916   6.628   6.665   2.836
22225WAT     H166917   6.603   6.704   2.925
22225WAT     H266918   6.551   6.676   2.773
22226WAT      O66919   9.500   8.746   8.155
22226WAT     H166920   9.538   8.771   8.066
22226WAT     H266921   9.554   8.790   8.227
22227WAT      O66922   6.334   4.925   8.261
22227WAT     H166923   6.257   4.887   8.209
22227WAT     H266924   6.363   5.011   8.219
22228WAT      O66925   3.786   2.346   2.266
22228WAT     H166926   3.805   2.392   2.353
22228WAT     H266927   3.829   2.395   2.191
22229WAT      O66928   6.981   0.227   2.814
22229WAT     H166929   7.000   0.293   2.741
22229WAT     H266930   6.907   0.260   2.872
22230WAT      O66931   9.190   7.912   4.340
22230WAT     H166932   9.280   7.949   4.362
22230WAT     H266933   9.128   7.987   4.314
22231WAT      O66934   0.399   1.125   2.799
22231WAT     H166935   0.475   1.128   2.733
22231WAT     H266936   0.326   1.185   2.769
22232WAT      O66937   1.981   9.259   5.604
22232WAT     H166938   2.040   9.229   5.529
22232WAT     H266939   1.927   9.338   5.574
22233WAT      O66940   3.390   4.044   2.326
22233WAT     H166941   3.350   4.035   2.418
22233WAT     H266942   3.467   3.981   2.317
22234WAT      O66943   1.789   1.109   7.876
22234WAT     H166944   1.788   1.152   7.786
22234WAT     H266945   1.873   1.056   7.887
22235WAT      O66946   6.231   3.057   8.639
22235WAT     H166947   6.208   3.147   8.602
22235WAT     H266948   6.286   3.007   8.572
22236WAT      O66949   5.164   2.727   9.051
22236WAT     H166950   5.207   2.636   9.055
22236WAT     H266951   5.178   2.766   8.960
22237WAT      O66952   2.542   1.974   3.408
22237WAT     H166953   2.530   1.935   3.500
22237WAT     H266954   2.615   2.043   3.410
22238WAT      O66955   6.107   9.694   1.878
22238WAT     H166956   6.109   9.763   1.950
22238WAT     H266957   6.115   9.603   1.919
22239WAT      O66958   7.702   5.548   3.977
22239WAT     H166959   7.606   5.535   3.956
22239WAT     H266960   7.722   5.507   4.066
22240WAT      O66961   1.794   2.770   5.316
22240WAT     H166962   1.807   2.761   5.414
22240WAT     H266963   1.809   2.681   5.272
22241WAT      O66964   0.582   8.651   5.155
22241WAT     H166965   0.642   8.571   5.159
22241WAT     H266966   0.629   8.730   5.193
22242WAT      O66967   8.431   6.659   1.708
22242WAT     H166968   8.341   6.617   1.699
22242WAT     H266969   8.440   6.700   1.799
22243WAT      O66970   5.785   5.336   7.229
22243WAT     H166971   5.835   5.252   7.248
22243WAT     H266972   5.794   5.399   7.306
22244WAT      O66973   6.012   2.919   5.547
22244WAT     H166974   6.087   2.882   5.491
22244WAT     H266975   6.001   3.016   5.528
22245WAT      O66976   3.827   0.456   4.161
22245WAT     H166977   3.738   0.466   4.115
22245WAT     H266978   3.826   0.373   4.217
22246WAT      O66979   7.290   0.415   3.244
22246WAT     H166980   7.390   0.416   3.241
22246WAT     H266981   7.253   0.467   3.167
22247WAT      O66982   9.750   1.976   4.509
22247WAT     H166983   9.849   1.987   4.522
22247WAT     H266984   9.729   1.878   4.502
22248WAT      O66985   8.846   2.992   1.386
22248WAT     H166986   8.860   2.940   1.302
22248WAT     H266987   8.920   3.057   1.398
22249WAT      O66988   2.998   0.967   0.779
22249WAT     H166989   2.963   1.034   0.845
22249WAT     H266990   2.963   0.988   0.688
22250WAT      O66991   0.009   0.895   7.288
22250WAT     H166992  -0.003   0.797   7.306
22250WAT     H266993  -0.063   0.947   7.333
22251WAT      O66994   2.477   1.026   8.091
22251WAT     H166995   2.459   1.032   7.993
22251WAT     H266996   2.411   1.082   8.141
22252WAT      O66997   4.364   8.453   0.343
22252WAT     H166998   4.273   8.424   0.373
22252WAT     H266999   4.404   8.515   0.411
22253WAT      O67000   8.164   4.575   9.583
22253WAT     H167001   8.200   4.661   9.620
22253WAT     H267002   8.066   4.569   9.600
22254WAT      O67003   5.232   2.403   7.454
22254WAT     H167004   5.277   2.380   7.367
22254WAT     H267005   5.175   2.326   7.483
22255WAT      O67006   4.723   6.881   3.183
22255WAT     H167007   4.807   6.928   3.158
22255WAT     H267008   4.668   6.940   3.243
22256WAT      O67009   6.892   5.736   4.341
22256WAT     H167010   6.801   5.765   4.372
22256WAT     H267011   6.962   5.788   4.391
22257WAT      O67012   0.373   0.950   8.173
22257WAT     H167013   0.411   0.867   8.132
22257WAT     H267014   0.436   0.985   8.243
22258WAT      O67015   8.253   6.428   0.301
22258WAT     H167016   8.320   6.431   0.375
22258WAT     H267017   8.299   6.401   0.216
22259WAT      O67018   0.913   3.839   2.206
22259WAT     H167019   0.944   3.814   2.115
22259WAT     H267020   0.894   3.756   2.259
22260WAT      O67021   5.702   6.512   5.853
22260WAT     H167022   5.796   6.479   5.857
22260WAT     H267023   5.657   6.495   5.941
22261WAT      O67024   5.502   2.216   8.047
22261WAT     H167025   5.515   2.161   8.129
22261WAT     H267026   5.407   2.246   8.041
22262WAT      O67027   2.660   9.680   1.275
22262WAT     H167028   2.644   9.600   1.217
22262WAT     H267029   2.757   9.704   1.273
22263WAT      O67030   2.000   1.394   4.624
22263WAT     H167031   1.919   1.453   4.628
22263WAT     H267032   1.980   1.314   4.568
22264WAT      O67033   2.486   4.037   0.897
22264WAT     H167034   2.456   4.130   0.874
22264WAT     H267035   2.509   3.988   0.813
22265WAT      O67036   5.938   7.314   6.565
22265WAT     H167037   5.880   7.314   6.646
22265WAT     H267038   5.998   7.394   6.567
22266WAT      O67039   1.652   8.346   5.266
22266WAT     H167040   1.599   8.420   5.307
22266WAT     H267041   1.603   8.260   5.277
22267WAT      O67042   0.347   2.740   6.207
22267WAT     H167043   0.336   2.684   6.289
22267WAT     H267044   0.440   2.779   6.207
22268WAT      O67045   7.844   9.766   4.121
22268WAT     H167046   7.779   9.808   4.185
22268WAT     H267047   7.906   9.836   4.086
22269WAT      O67048   7.063   8.057   5.502
22269WAT     H167049   7.106   8.146   5.518
22269WAT     H267050   7.134   7.989   5.486
22270WAT      O67051   8.557   5.502   7.768
22270WAT     H167052   8.493   5.490   7.692
22270WAT     H267053   8.643   5.541   7.734
22271WAT      O67054   3.407   0.029   2.063
22271WAT     H167055   3.493  -0.012   2.031
22271WAT     H267056   3.331  -0.008   2.010
22272WAT      O67057   4.133   8.064   9.326
22272WAT     H167058   4.175   7.989   9.274
22272WAT     H267059   4.093   8.027   9.410
22273WAT      O67060   3.131   9.193   7.969
22273WAT     H167061   3.107   9.257   7.896
22273WAT     H267062   3.073   9.210   8.049
22274WAT      O67063   2.810   8.798   0.291
22274WAT     H167064   2.758   8.881   0.311
22274WAT     H267065   2.809   8.781   0.193
22275WAT      O67066   2.041   2.330   1.958
22275WAT     H167067   2.116   2.311   2.022
22275WAT     H267068   1.960   2.360   2.009
22276WAT      O67069   9.216   1.129   5.356
22276WAT     H167070   9.305   1.149   5.398
22276WAT     H267071   9.224   1.046   5.301
22277WAT      O67072   0.368   2.394   5.631
22277WAT     H167073   0.282   2.359   5.668
22277WAT     H267074   0.414   2.323   5.578
22278WAT      O67075   2.106   2.576   1.035
22278WAT     H167076   2.177   2.531   1.089
22278WAT     H267077   2.104   2.673   1.055
22279WAT      O67078   0.603   3.954   0.406
22279WAT     H167079   0.582   3.967   0.503
22279WAT     H267080   0.685   4.006   0.382
22280WAT      O67081   2.178   1.521   0.533
22280WAT     H167082   2.209   1.518   0.438
22280WAT     H267083   2.092   1.573   0.537
22281WAT      O67084   8.463   4.227   6.518
22281WAT     H167085   8.482   4.318   6.482
22281WAT     H267086   8.533   4.163   6.486
22282WAT      O67087   9.058   6.576   8.415
22282WAT     H167088   9.116   6.645   8.373
22282WAT     H267089   9.083   6.485   8.380
22283WAT      O67090   4.764   8.821   3.349
22283WAT     H167091   4.701   8.769   3.407
22283WAT     H267092   4.781   8.770   3.265
22284WAT      O67093   0.225   2.797   0.807
22284WAT     H167094   0.205   2.731   0.880
22284WAT     H267095   0.143   2.814   0.754
22285WAT      O67096   6.948   7.924   1.484
22285WAT     H167097   6.866   7.974   1.457
22285WAT     H267098   7.013   7.987   1.526
22286WAT      O67099   9.737   7.265   5.928
22286WAT     H167100   9.770   7.316   5.848
22286WAT     H267101   9.728   7.327   6.006
22287WAT      O67102   2.497   8.406   4.426
22287WAT     H167103   2.525   8.310   4.416
22287WAT     H267104   2.570   8.457   4.471
22288WAT      O67105   4.397   0.948   3.506
22288WAT     H167106   4.298   0.934   3.502
22288WAT     H267107   4.418   1.043   3.484
22289WAT      O67108   5.444   3.490   6.885
22289WAT     H167109   5.523   3.550   6.896
22289WAT     H267110   5.398   3.478   6.973
22290WAT      O67111   0.723   3.120   1.636
22290WAT     H167112   0.700   3.123   1.539
22290WAT     H267113   0.793   3.050   1.651
22291WAT      O67114   2.478   2.405   4.848
22291WAT     H167115   2.464   2.439   4.941
22291WAT     H267116   2.469   2.306   4.846
22292WAT      O67117   8.135   7.981   2.371
22292WAT     H167118   8.097   8.074   2.370
22292WAT     H267119   8.082   7.924   2.433
22293WAT      O67120   5.800   5.477   2.992
22293WAT     H167121   5.801   5.577   2.985
22293WAT     H267122   5.814   5.450   3.087
22294WAT      O67123   7.457   4.102   9.263
22294WAT     H167124   7.549   4.120   9.297
22294WAT     H267125   7.459   4.092   9.163
22295WAT      O67126   8.211   3.250   6.807
22295WAT     H167127   8.136   3.313   6.788
22295WAT     H267128   8.215   3.233   6.906
22296WAT      O67129   5.695   2.742   9.294
22296WAT     H167130   5.700   2.681   9.373
22296WAT     H267131   5.786   2.755   9.256
22297WAT      O67132   0.654   1.718   4.075
22297WAT     H167133   0.632   1.646   4.140
22297WAT     H267134   0.635   1.807   4.116
22298WAT      O67135   0.460   4.123   8.056
22298WAT     H167136   0.527   4.049   8.058
22298WAT     H267137   0.461   4.167   7.966
22299WAT      O67138   0.465   3.220   6.916
22299WAT     H167139   0.529   3.218   6.993
22299WAT     H267140   0.510   3.256   6.835
22300WAT      O67141   9.362   4.494   0.085
22300WAT     H167142   9.449   4.537   0.060
22300WAT     H267143   9.290   4.526   0.022
22301WAT      O67144   1.732   2.819   2.309
22301WAT     H167145   1.659   2.766   2.266
22301WAT     H267146   1.770   2.884   2.243
22302WAT      O67147   1.609   4.599   8.163
22302WAT     H167148   1.698   4.603   8.208
22302WAT     H267149   1.587   4.688   8.123
22303WAT      O67150   0.476   2.405   7.231
22303WAT     H167151   0.566   2.442   7.210
22303WAT     H267152   0.450   2.432   7.324
22304WAT      O67153   3.472   7.233   4.281
22304WAT     H167154   3.390   7.193   4.240
22304WAT     H267155   3.449   7.268   4.372
22305WAT      O67156   3.913   3.302   0.574
22305WAT     H167157   3.862   3.332   0.494
22305WAT     H267158   3.938   3.381   0.630
22306WAT      O67159   0.763   8.658   1.071
22306WAT     H167160   0.750   8.644   1.169
22306WAT     H267161   0.845   8.713   1.055
22307WAT      O67162   8.137   6.976   7.126
22307WAT     H167163   8.184   6.987   7.038
22307WAT     H267164   8.161   7.052   7.186
22308WAT      O67165   8.046   4.583   6.942
22308WAT     H167166   7.977   4.525   6.985
22308WAT     H267167   8.103   4.626   7.013
22309WAT      O67168   9.847   3.851   5.066
22309WAT     H167169   9.915   3.814   5.002
22309WAT     H267170   9.894   3.894   5.143
22310WAT      O67171   5.024   0.318   6.811
22310WAT     H167172   4.991   0.404   6.772
22310WAT     H267173   5.009   0.318   6.910
22311WAT      O67174   0.675   3.112   3.776
22311WAT     H167175   0.593   3.123   3.831
22311WAT     H267176   0.713   3.020   3.790
22312WAT      O67177   8.156   7.856   2.146
22312WAT     H167178   8.166   7.894   2.237
22312WAT     H267179   8.059   7.840   2.127
22313WAT      O67180   5.859   5.503   8.842
22313WAT     H167181   5.895   5.443   8.914
22313WAT     H267182   5.935   5.547   8.794
22314WAT      O67183   9.224   8.773   4.324
22314WAT     H167184   9.212   8.687   4.373
22314WAT     H267185   9.299   8.763   4.258
22315WAT      O67186   4.222   3.140   9.227
22315WAT     H167187   4.287   3.192   9.282
22315WAT     H267188   4.218   3.046   9.259
22316WAT      O67189   3.338   6.018   7.773
22316WAT     H167190   3.378   6.012   7.681
22316WAT     H267191   3.408   6.001   7.842
22317WAT      O67192   1.921   0.456   7.361
22317WAT     H167193   1.901   0.554   7.358
22317WAT     H267194   2.017   0.443   7.387
22318WAT      O67195   5.546   5.741   6.232
22318WAT     H167196   5.517   5.648   6.211
22318WAT     H267197   5.466   5.798   6.253
22319WAT      O67198   4.829   7.897   1.867
22319WAT     H167199   4.733   7.913   1.844
22319WAT     H267200   4.884   7.972   1.831
22320WAT      O67201   2.831   0.313   2.767
22320WAT     H167202   2.895   0.342   2.696
22320WAT     H267203   2.737   0.316   2.731
22321WAT      O67204   6.031   7.224   3.299
22321WAT     H167205   6.048   7.192   3.392
22321WAT     H267206   5.947   7.182   3.264
22322WAT      O67207   4.730   0.458   7.015
22322WAT     H167208   4.811   0.489   7.065
22322WAT     H267209   4.736   0.360   6.999
22323WAT      O67210   9.656   8.181   6.241
22323WAT     H167211   9.740   8.127   6.246
22323WAT     H267212   9.594   8.152   6.314
22324WAT      O67213   9.217   8.730   6.220
22324WAT     H167214   9.207   8.673   6.302
22324WAT     H267215   9.213   8.827   6.246
22325WAT      O67216   9.757   5.761   8.323
22325WAT     H167217   9.844   5.796   8.357
22325WAT     H267218   9.688   5.768   8.395
22326WAT      O67219   3.099   0.529   0.454
22326WAT     H167220   3.006   0.496   0.435
22326WAT     H267221   3.099   0.586   0.535
22327WAT      O67222   4.507   6.186   1.414
22327WAT     H167223   4.548   6.212   1.327
22327WAT     H267224   4.452   6.262   1.449
22328WAT      O67225   1.493   4.015   8.075
22328WAT     H167226   1.526   4.095   8.026
22328WAT     H267227   1.403   3.989   8.040
22329WAT      O67228   5.537   2.152   5.458
22329WAT     H167229   5.583   2.076   5.504
22329WAT     H267230   5.496   2.212   5.526
22330WAT      O67231   5.022   9.506   1.182
22330WAT     H167232   5.060   9.422   1.145
22330WAT     H267233   5.096   9.565   1.216
22331WAT      O67234   0.068   3.812   7.061
22331WAT     H167235   0.130   3.742   7.026
22331WAT     H267236   0.058   3.801   7.160
22332WAT      O67237   4.441   2.006   5.347
22332WAT     H167238   4.445   2.071   5.423
22332WAT     H267239   4.443   1.913   5.382
22333WAT      O67240   5.953   6.874   8.569
22333WAT     H167241   6.047   6.873   8.535
22333WAT     H267242   5.935   6.789   8.619
22334WAT      O67243   0.493   6.890   8.992
22334WAT     H167244   0.438   6.901   8.909
22334WAT     H267245   0.437   6.914   9.072
22335WAT      O67246   3.384   8.000   4.815
22335WAT     H167247   3.433   8.026   4.899
22335WAT     H267248   3.443   7.945   4.757
22336WAT      O67249   3.697   1.117   4.850
22336WAT     H167250   3.613   1.138   4.800
22336WAT     H267251   3.681   1.123   4.948
22337WAT      O67252   3.494   4.278   9.500
22337WAT     H167253   3.446   4.351   9.451
22337WAT     H267254   3.428   4.223   9.552
22338WAT      O67255   6.584   5.263   8.471
22338WAT     H167256   6.551   5.188   8.529
22338WAT     H267257   6.681   5.279   8.490
22339WAT      O67258   4.897   7.301   5.058
22339WAT     H167259   4.865   7.394   5.075
22339WAT     H267260   4.818   7.239   5.053
22340WAT      O67261   6.208   2.460   2.873
22340WAT     H167262   6.149   2.527   2.919
22340WAT     H267263   6.197   2.371   2.917
22341WAT      O67264   4.880   9.468   4.403
22341WAT     H167265   4.811   9.538   4.419
22341WAT     H267266   4.961   9.511   4.362
22342WAT      O67267   0.650   6.291   4.918
22342WAT     H167268   0.674   6.258   4.827
22342WAT     H267269   0.698   6.237   4.987
22343WAT      O67270   4.646   7.060   0.005
22343WAT     H167271   4.704   7.086  -0.071
22343WAT     H267272   4.658   6.962   0.024
22344WAT      O67273   5.655   1.518   1.003
22344WAT     H167274   5.565   1.531   1.046
22344WAT     H267275   5.642   1.496   0.907
22345WAT      O67276   9.732   4.262   8.803
22345WAT     H167277   9.790   4.249   8.723
22345WAT     H267278   9.648   4.309   8.776
22346WAT      O67279   6.581   3.179   4.867
22346WAT     H167280   6.609   3.254   4.927
22346WAT     H267281   6.539   3.217   4.785
22347WAT      O67282   7.045   2.336   0.364
22347WAT     H167283   7.073   2.400   0.435
22347WAT     H267284   7.123   2.278   0.339
22348WAT      O67285   4.318   5.636   8.932
22348WAT     H167286   4.240   5.684   8.971
22348WAT     H267287   4.359   5.691   8.860
22349WAT      O67288   4.345   0.049   1.646
22349WAT     H167289   4.315   0.005   1.730
22349WAT     H267290   4.445   0.060   1.648
22350WAT      O67291   4.996   8.770   2.191
22350WAT     H167292   5.074   8.824   2.223
22350WAT     H267293   5.015   8.673   2.203
22351WAT      O67294   1.440   2.725   4.908
22351WAT     H167295   1.420   2.679   4.821
22351WAT     H267296   1.370   2.701   4.975
22352WAT      O67297   1.663   4.443   5.120
22352WAT     H167298   1.713   4.405   5.198
22352WAT     H267299   1.565   4.428   5.133
22353WAT      O67300   7.470   0.907   0.046
22353WAT     H167301   7.495   0.851  -0.033
22353WAT     H267302   7.511   0.998   0.038
22354WAT      O67303   0.603   4.353   8.691
22354WAT     H167304   0.653   4.403   8.761
22354WAT     H267305   0.517   4.401   8.671
22355WAT      O67306   2.415   9.402   2.958
22355WAT     H167307   2.500   9.431   2.914
22355WAT     H267308   2.398   9.459   3.039
22356WAT      O67309   6.580   7.734   0.501
22356WAT     H167310   6.652   7.721   0.569
22356WAT     H267311   6.609   7.802   0.434
22357WAT      O67312   1.392   8.734   7.233
22357WAT     H167313   1.467   8.788   7.269
22357WAT     H267314   1.310   8.790   7.226
22358WAT      O67315   2.911   8.384   3.154
22358WAT     H167316   2.843   8.426   3.214
22358WAT     H267317   3.002   8.398   3.193
22359WAT      O67318   0.063   3.216   0.599
22359WAT     H167319   0.151   3.251   0.633
22359WAT     H267320   0.076   3.176   0.509
22360WAT      O67321   2.244   7.362   3.361
22360WAT     H167322   2.154   7.370   3.403
22360WAT     H267323   2.282   7.271   3.380
22361WAT      O67324   5.803   8.608   9.164
22361WAT     H167325   5.821   8.619   9.067
22361WAT     H267326   5.710   8.575   9.177
22362WAT      O67327   1.512   1.164   8.512
22362WAT     H167328   1.609   1.170   8.488
22362WAT     H267329   1.501   1.104   8.592
22363WAT      O67330   5.760   5.891   5.708
22363WAT     H167331   5.737   5.840   5.626
22363WAT     H267332   5.859   5.900   5.715
22364WAT      O67333   7.421   3.867   8.441
22364WAT     H167334   7.501   3.913   8.403
22364WAT     H267335   7.421   3.771   8.413
22365WAT      O67336   6.116   2.930   6.932
22365WAT     H167337   6.080   2.880   6.854
22365WAT     H267338   6.206   2.894   6.956
22366WAT      O67339   1.611   0.821   0.103
22366WAT     H167340   1.579   0.909   0.139
22366WAT     H267341   1.534   0.773   0.061
22367WAT      O67342   3.837   3.161   3.462
22367WAT     H167343   3.911   3.124   3.519
22367WAT     H267344   3.877   3.210   3.384
22368WAT      O67345   9.000   2.240   1.386
22368WAT     H167346   8.930   2.311   1.395
22368WAT     H267347   9.029   2.211   1.477
22369WAT      O67348   2.168   1.478   5.757
22369WAT     H167349   2.255   1.518   5.784
22369WAT     H267350   2.093   1.535   5.791
22370WAT      O67351   0.024   3.650   5.357
22370WAT     H167352   0.113   3.616   5.388
22370WAT     H267353   0.005   3.737   5.403
22371WAT      O67354   4.022   1.036   0.415
22371WAT     H167355   3.965   0.994   0.345
22371WAT     H267356   4.026   1.135   0.400
22372WAT      O67357   6.943   4.079   2.055
22372WAT     H167358   6.880   4.020   2.104
22372WAT     H267359   6.991   4.026   1.985
22373WAT      O67360   6.082   4.648   5.713
22373WAT     H167361   6.001   4.701   5.688
22373WAT     H267362   6.063   4.550   5.705
22374WAT      O67363   8.232   3.084   5.620
22374WAT     H167364   8.253   3.064   5.525
22374WAT     H267365   8.310   3.129   5.663
22375WAT      O67366   1.780   3.792   7.833
22375WAT     H167367   1.799   3.886   7.802
22375WAT     H267368   1.833   3.728   7.778
22376WAT      O67369   9.121   6.425   1.283
22376WAT     H167370   9.171   6.488   1.344
22376WAT     H267371   9.051   6.476   1.233
22377WAT      O67372   3.060   0.369   8.938
22377WAT     H167373   3.026   0.310   8.865
22377WAT     H267374   2.987   0.386   9.004
22378WAT      O67375   9.180   3.933   8.116
22378WAT     H167376   9.159   3.879   8.197
22378WAT     H267377   9.097   3.950   8.063
22379WAT      O67378   2.431   0.774   9.443
22379WAT     H167379   2.444   0.814   9.352
22379WAT     H267380   2.433   0.846   9.512
22380WAT      O67381   6.649   0.068   2.783
22380WAT     H167382   6.697   0.046   2.868
22380WAT     H267383   6.599   0.153   2.795
22381WAT      O67384   9.423   6.364   8.672
22381WAT     H167385   9.392   6.322   8.757
22381WAT     H267386   9.344   6.382   8.613
22382WAT      O67387   4.086   0.166   7.610
22382WAT     H167388   4.154   0.145   7.680
22382WAT     H267389   4.008   0.213   7.652
22383WAT      O67390   0.532   6.565   6.383
22383WAT     H167391   0.523   6.507   6.464
22383WAT     H267392   0.454   6.550   6.322
22384WAT      O67393   2.354   0.332   2.784
22384WAT     H167394   2.378   0.320   2.881
22384WAT     H267395   2.274   0.392   2.777
22385WAT      O67396   3.151   0.204   9.132
22385WAT     H167397   3.127   0.271   9.061
22385WAT     H267398   3.241   0.166   9.112
22386WAT      O67399   5.252   5.549   1.587
22386WAT     H167400   5.320   5.571   1.517
22386WAT     H267401   5.209   5.462   1.566
22387WAT      O67402   9.412   8.167   8.334
22387WAT     H167403   9.331   8.112   8.353
22387WAT     H267404   9.488   8.135   8.390
22388WAT      O67405   3.498   5.536   5.533
22388WAT     H167406   3.405   5.523   5.501
22388WAT     H267407   3.496   5.575   5.626
22389WAT      O67408   2.145   6.360   4.295
22389WAT     H167409   2.141   6.262   4.274
22389WAT     H267410   2.213   6.376   4.366
22390WAT      O67411   0.206   2.210   6.270
22390WAT     H167412   0.124   2.267   6.267
22390WAT     H267413   0.222   2.171   6.179
22391WAT      O67414   2.088   2.104   6.582
22391WAT     H167415   2.121   2.067   6.669
22391WAT     H267416   2.030   2.036   6.537
22392WAT      O67417   4.786   1.506   1.322
22392WAT     H167418   4.871   1.547   1.356
22392WAT     H267419   4.777   1.413   1.359
22393WAT      O67420   1.621   3.736   9.725
22393WAT     H167421   1.553   3.743   9.652
22393WAT     H267422   1.593   3.667   9.791
22394WAT      O67423   5.031   8.626   9.811
22394WAT     H167424   4.997   8.719   9.794
22394WAT     H267425   5.116   8.631   9.863
22395WAT      O67426   3.397   5.419   8.658
22395WAT     H167427   3.483   5.471   8.658
22395WAT     H267428   3.322   5.478   8.690
22396WAT      O67429   4.278   1.720   8.755
22396WAT     H167430   4.335   1.801   8.745
22396WAT     H267431   4.214   1.714   8.678
22397WAT      O67432   2.722   5.860   9.233
22397WAT     H167433   2.737   5.764   9.208
22397WAT     H267434   2.648   5.864   9.301
22398WAT      O67435   0.483   1.949   1.280
22398WAT     H167436   0.509   2.009   1.356
22398WAT     H267437   0.560   1.940   1.217
22399WAT      O67438   9.383   8.554   1.150
22399WAT     H167439   9.388   8.607   1.235
22399WAT     H267440   9.316   8.596   1.089
22400WAT      O67441   4.835   6.206   4.621
22400WAT     H167442   4.799   6.197   4.714
22400WAT     H267443   4.760   6.192   4.556
22401WAT      O67444   9.012   5.937   8.239
22401WAT     H167445   8.954   5.998   8.293
22401WAT     H267446   8.997   5.842   8.266
22402WAT      O67447   2.262   0.485   7.845
22402WAT     H167448   2.211   0.558   7.799
22402WAT     H267449   2.294   0.519   7.934
22403WAT      O67450   1.354   2.072   0.786
22403WAT     H167451   1.318   2.137   0.853
22403WAT     H267452   1.281   2.009   0.758
22404WAT      O67453   7.799   9.409   1.958
22404WAT     H167454   7.803   9.491   2.017
22404WAT     H267455   7.703   9.383   1.946
22405WAT      O67456   1.757   5.996   2.341
22405WAT     H167457   1.668   6.037   2.362
22405WAT     H267458   1.830   6.054   2.379
22406WAT      O67459   1.262   5.874   1.997
22406WAT     H167460   1.310   5.832   1.921
22406WAT     H267461   1.212   5.803   2.048
22407WAT      O67462   2.441   1.126   3.420
22407WAT     H167463   2.518   1.176   3.382
22407WAT     H267464   2.467   1.085   3.507
22408WAT      O67465   9.509   7.045   0.716
22408WAT     H167466   9.445   7.121   0.702
22408WAT     H267467   9.457   6.962   0.738
22409WAT      O67468   0.520   0.357   0.632
22409WAT     H167469   0.528   0.312   0.543
22409WAT     H267470   0.561   0.448   0.627
22410WAT      O67471   8.508   5.530   7.205
22410WAT     H167472   8.443   5.603   7.185
22410WAT     H267473   8.597   5.553   7.166
22411WAT      O67474   4.865   2.773   3.396
22411WAT     H167475   4.908   2.788   3.485
22411WAT     H267476   4.932   2.735   3.333
22412WAT      O67477   4.417   6.580   1.091
22412WAT     H167478   4.343   6.519   1.119
22412WAT     H267479   4.398   6.617   1.000
22413WAT      O67480   5.676   4.265   4.159
22413WAT     H167481   5.750   4.308   4.211
22413WAT     H267482   5.662   4.314   4.073
22414WAT      O67483   8.137   4.865   6.843
22414WAT     H167484   8.189   4.941   6.804
22414WAT     H267485   8.102   4.807   6.770
22415WAT      O67486   7.879   1.958   1.454
22415WAT     H167487   7.821   2.016   1.511
22415WAT     H267488   7.832   1.870   1.438
22416WAT      O67489   9.587   8.474   8.612
22416WAT     H167490   9.661   8.474   8.680
22416WAT     H267491   9.624   8.452   8.522
22417WAT      O67492   5.150   6.358   2.814
22417WAT     H167493   5.111   6.450   2.818
22417WAT     H267494   5.226   6.351   2.880
22418WAT      O67495   2.111   2.670   4.877
22418WAT     H167496   2.031   2.617   4.849
22418WAT     H267497   2.090   2.720   4.961
22419WAT      O67498   2.858   6.243   2.560
22419WAT     H167499   2.796   6.166   2.544
22419WAT     H267500   2.852   6.271   2.655
22420WAT      O67501   7.829   5.331   2.910
22420WAT     H167502   7.925   5.358   2.918
22420WAT     H267503   7.819   5.261   2.839
22421WAT      O67504   1.874   8.215   6.611
22421WAT     H167505   1.902   8.284   6.678
22421WAT     H267506   1.946   8.204   6.543
22422WAT      O67507   5.326   7.774   6.515
22422WAT     H167508   5.353   7.678   6.522
22422WAT     H267509   5.404   7.833   6.536
22423WAT      O67510   2.255   5.017   4.633
22423WAT     H167511   2.340   4.992   4.587
22423WAT     H267512   2.234   5.113   4.615
22424WAT      O67513   4.214   8.018   2.176
22424WAT     H167514   4.269   7.992   2.097
22424WAT     H267515   4.263   7.995   2.260
22425WAT      O67516   9.775   0.570   8.356
22425WAT     H167517   9.805   0.517   8.435
22425WAT     H267518   9.828   0.544   8.276
22426WAT      O67519   7.355   2.645   6.692
22426WAT     H167520   7.344   2.557   6.646
22426WAT     H267521   7.334   2.719   6.629
22427WAT      O67522   4.478   1.377   0.387
22427WAT     H167523   4.470   1.286   0.348
22427WAT     H267524   4.442   1.445   0.323
22428WAT      O67525   7.213   7.307   2.554
22428WAT     H167526   7.138   7.318   2.489
22428WAT     H267527   7.264   7.223   2.534
22429WAT      O67528   6.317   6.862   7.714
22429WAT     H167529   6.242   6.902   7.767
22429WAT     H267530   6.365   6.794   7.770
22430WAT      O67531   4.796   2.985   3.188
22430WAT     H167532   4.811   2.914   3.257
22430WAT     H267533   4.780   2.942   3.099
22431WAT      O67534   3.960   8.836   8.645
22431WAT     H167535   3.897   8.760   8.659
22431WAT     H267536   4.049   8.800   8.617
22432WAT      O67537   9.061   8.427   1.304
22432WAT     H167538   9.010   8.512   1.311
22432WAT     H267539   8.997   8.350   1.293
22433WAT      O67540   6.661   1.302   8.382
22433WAT     H167541   6.623   1.368   8.447
22433WAT     H267542   6.592   1.277   8.315
22434WAT      O67543   8.999   5.192   5.608
22434WAT     H167544   9.015   5.237   5.520
22434WAT     H267545   9.024   5.096   5.600
22435WAT      O67546   1.755   2.570   8.581
22435WAT     H167547   1.805   2.630   8.519
22435WAT     H267548   1.809   2.488   8.599
22436WAT      O67549   5.580   0.581   7.159
22436WAT     H167550   5.549   0.630   7.078
22436WAT     H267551   5.566   0.638   7.240
22437WAT      O67552   6.530   7.018   2.321
22437WAT     H167553   6.529   6.932   2.372
22437WAT     H267554   6.531   6.999   2.223
22438WAT      O67555   7.607   1.575   0.384
22438WAT     H167556   7.592   1.482   0.349
22438WAT     H267557   7.556   1.587   0.469
22439WAT      O67558   3.940   6.656   2.756
22439WAT     H167559   3.844   6.673   2.780
22439WAT     H267560   3.998   6.682   2.833
22440WAT      O67561   3.541   8.688   2.442
22440WAT     H167562   3.562   8.708   2.538
22440WAT     H267563   3.611   8.730   2.384
22441WAT      O67564   4.809   2.547   3.790
22441WAT     H167565   4.783   2.602   3.869
22441WAT     H267566   4.906   2.524   3.796
22442WAT      O67567   8.679   1.713   8.321
22442WAT     H167568   8.670   1.650   8.245
22442WAT     H267569   8.606   1.697   8.387
22443WAT      O67570   0.634   4.052   6.110
22443WAT     H167571   0.602   4.035   6.017
22443WAT     H267572   0.607   4.145   6.137
22444WAT      O67573   9.518   3.699   5.785
22444WAT     H167574   9.531   3.641   5.866
22444WAT     H267575   9.484   3.644   5.709
22445WAT      O67576   6.687   9.679   4.963
22445WAT     H167577   6.603   9.630   4.988
22445WAT     H267578   6.683   9.773   4.997
22446WAT      O67579   8.489   4.938   3.048
22446WAT     H167580   8.570   4.885   3.026
22446WAT     H267581   8.427   4.939   2.969
22447WAT      O67582   3.743   9.754   0.233
22447WAT     H167583   3.744   9.659   0.200
22447WAT     H267584   3.815   9.766   0.302
22448WAT      O67585   6.013   8.051   4.326
22448WAT     H167586   5.996   8.111   4.248
22448WAT     H267587   5.926   8.027   4.369
22449WAT      O67588   5.936   5.420   5.231
22449WAT     H167589   6.010   5.483   5.256
22449WAT     H267590   5.960   5.373   5.146
22450WAT      O67591   2.753   3.610   8.845
22450WAT     H167592   2.687   3.575   8.912
22450WAT     H267593   2.822   3.541   8.826
22451WAT      O67594   5.537   3.954   5.031
22451WAT     H167595   5.471   4.027   5.049
22451WAT     H267596   5.516   3.911   4.944
22452WAT      O67597   2.941   5.643   1.812
22452WAT     H167598   2.880   5.610   1.885
22452WAT     H267599   2.888   5.693   1.744
22453WAT      O67600   7.956   7.751   5.323
22453WAT     H167601   7.982   7.841   5.358
22453WAT     H267602   7.989   7.680   5.387
22454WAT      O67603   1.810   7.620   6.275
22454WAT     H167604   1.710   7.614   6.282
22454WAT     H267605   1.849   7.532   6.304
22455WAT      O67606   7.705   6.117   0.033
22455WAT     H167607   7.654   6.034   0.055
22455WAT     H267608   7.793   6.116   0.080
22456WAT      O67609   2.753   2.791   7.441
22456WAT     H167610   2.840   2.811   7.487
22456WAT     H267611   2.678   2.830   7.494
22457WAT      O67612   8.566   8.789   0.321
22457WAT     H167613   8.649   8.843   0.327
22457WAT     H267614   8.589   8.693   0.304
22458WAT      O67615   3.044   7.709   8.925
22458WAT     H167616   2.997   7.781   8.976
22458WAT     H267617   3.138   7.738   8.906
22459WAT      O67618   9.824   4.052   4.240
22459WAT     H167619   9.772   3.981   4.194
22459WAT     H267620   9.890   4.010   4.303
22460WAT      O67621   4.112   0.178   5.652
22460WAT     H167622   4.161   0.264   5.640
22460WAT     H267623   4.169   0.113   5.701
22461WAT      O67624   4.486   3.131   2.500
22461WAT     H167625   4.531   3.199   2.443
22461WAT     H267626   4.396   3.164   2.528
22462WAT      O67627   0.831   2.827   8.794
22462WAT     H167628   0.784   2.909   8.826
22462WAT     H267629   0.916   2.815   8.846
22463WAT      O67630   3.394   7.622   0.150
22463WAT     H167631   3.307   7.574   0.134
22463WAT     H267632   3.381   7.693   0.219
22464WAT      O67633   3.318   8.668   5.986
22464WAT     H167634   3.334   8.668   5.887
22464WAT     H267635   3.223   8.642   6.005
22465WAT      O67636   5.673   8.620   2.504
22465WAT     H167637   5.678   8.580   2.596
22465WAT     H267638   5.606   8.694   2.504
22466WAT      O67639   1.859   5.046   0.692
22466WAT     H167640   1.937   5.106   0.678
22466WAT     H267641   1.820   5.062   0.782
22467WAT      O67642   4.274   3.471   2.772
22467WAT     H167643   4.311   3.541   2.711
22467WAT     H267644   4.273   3.382   2.726
22468WAT      O67645   6.048   1.047   2.858
22468WAT     H167646   6.132   1.045   2.911
22468WAT     H267647   6.051   1.124   2.794
22469WAT      O67648   8.232   6.112   7.634
22469WAT     H167649   8.317   6.059   7.630
22469WAT     H267650   8.174   6.086   7.557
22470WAT      O67651   1.398   4.818   4.853
22470WAT     H167652   1.426   4.764   4.774
22470WAT     H267653   1.440   4.909   4.848
22471WAT      O67654   4.504   2.113   9.219
22471WAT     H167655   4.499   2.105   9.319
22471WAT     H267656   4.489   2.208   9.193
22472WAT      O67657   6.225   3.091   2.286
22472WAT     H167658   6.312   3.054   2.253
22472WAT     H267659   6.187   3.030   2.356
22473WAT      O67660   4.446   5.709   3.378
22473WAT     H167661   4.358   5.678   3.343
22473WAT     H267662   4.437   5.733   3.475
22474WAT      O67663   5.859   6.026   5.365
22474WAT     H167664   5.887   5.995   5.274
22474WAT     H267665   5.804   5.956   5.409
22475WAT      O67666   9.089   4.809   2.846
22475WAT     H167667   9.037   4.741   2.897
22475WAT     H267668   9.135   4.765   2.769
22476WAT      O67669   5.851   2.988   4.528
22476WAT     H167670   5.772   2.953   4.478
22476WAT     H267671   5.935   2.960   4.481
22477WAT      O67672   0.545   1.725   7.353
22477WAT     H167673   0.568   1.628   7.344
22477WAT     H267674   0.606   1.779   7.296
22478WAT      O67675   0.611   4.288   3.590
22478WAT     H167676   0.541   4.359   3.577
22478WAT     H267677   0.616   4.231   3.509
22479WAT      O67678   0.959   7.723   5.099
22479WAT     H167679   1.039   7.665   5.116
22479WAT     H267680   0.989   7.806   5.051
22480WAT      O67681   9.365   5.520   4.021
22480WAT     H167682   9.357   5.614   4.055
22480WAT     H267683   9.411   5.464   4.091
22481WAT      O67684   6.476   3.644   6.623
22481WAT     H167685   6.534   3.604   6.694
22481WAT     H267686   6.382   3.649   6.657
22482WAT      O67687   0.216   0.007   0.609
22482WAT     H167688   0.172   0.001   0.699
22482WAT     H267689   0.308   0.046   0.620
22483WAT      O67690   3.553   3.817   2.270
22483WAT     H167691   3.640   3.845   2.312
22483WAT     H267692   3.498   3.768   2.339
22484WAT      O67693   9.679   0.470   9.267
22484WAT     H167694   9.688   0.373   9.248
22484WAT     H267695   9.739   0.522   9.206
22485WAT      O67696   0.108   6.564   4.776
22485WAT     H167697   0.170   6.506   4.723
22485WAT     H267698   0.149   6.655   4.785
22486WAT      O67699   1.509   0.174   6.674
22486WAT     H167700   1.486   0.165   6.577
22486WAT     H267701   1.425   0.177   6.728
22487WAT      O67702   4.446   8.524   9.053
22487WAT     H167703   4.523   8.471   9.017
22487WAT     H267704   4.375   8.461   9.085
22488WAT      O67705   8.233   4.281   8.429
22488WAT     H167706   8.219   4.250   8.523
22488WAT     H267707   8.224   4.381   8.425
22489WAT      O67708   1.035   5.046   3.285
22489WAT     H167709   1.113   5.097   3.318
22489WAT     H267710   1.064   4.983   3.213
22490WAT      O67711   4.027   0.938   1.536
22490WAT     H167712   3.978   0.851   1.537
22490WAT     H267713   4.010   0.984   1.449
22491WAT      O67714   9.490   9.255   4.749
22491WAT     H167715   9.420   9.212   4.806
22491WAT     H267716   9.487   9.354   4.761
22492WAT      O67717   5.430   9.314   3.947
22492WAT     H167718   5.456   9.235   3.892
22492WAT     H267719   5.386   9.382   3.889
22493WAT      O67720   6.511   5.599   2.498
22493WAT     H167721   6.562   5.682   2.475
22493WAT     H267722   6.425   5.623   2.543
22494WAT      O67723   4.280   3.138   6.274
22494WAT     H167724   4.315   3.187   6.354
22494WAT     H267725   4.241   3.050   6.302
22495WAT      O67726   2.692   9.180   4.191
22495WAT     H167727   2.609   9.176   4.246
22495WAT     H267728   2.750   9.101   4.213
22496WAT      O67729   6.186   5.368   2.528
22496WAT     H167730   6.156   5.405   2.440
22496WAT     H267731   6.237   5.283   2.512
22497WAT      O67732   6.018   4.014   6.222
22497WAT     H167733   6.009   3.955   6.141
22497WAT     H267734   6.093   4.078   6.208
22498WAT      O67735   4.097   2.350   4.952
22498WAT     H167736   4.011   2.388   4.988
22498WAT     H267737   4.077   2.270   4.896
22499WAT      O67738   7.205   9.074   1.271
22499WAT     H167739   7.303   9.077   1.288
22499WAT     H267740   7.156   9.124   1.343
22500WAT      O67741   3.466   9.711   6.200
22500WAT     H167742   3.527   9.760   6.137
22500WAT     H267743   3.515   9.635   6.242
22501WAT      O67744   9.627   8.799   2.877
22501WAT     H167745   9.720   8.817   2.846
22501WAT     H267746   9.562   8.835   2.809
22502WAT      O67747   7.631   1.283   1.202
22502WAT     H167748   7.673   1.206   1.154
22502WAT     H267749   7.641   1.366   1.148
22503WAT      O67750   6.608   8.793   6.172
22503WAT     H167751   6.538   8.722   6.177
22503WAT     H267752   6.654   8.799   6.261
22504WAT      O67753   9.474   9.220   5.946
22504WAT     H167754   9.471   9.220   5.846
22504WAT     H267755   9.403   9.159   5.982
22505WAT      O67756   7.607   8.250   3.124
22505WAT     H167757   7.625   8.253   3.222
22505WAT     H267758   7.509   8.262   3.108
22506WAT      O67759   9.662   4.687   5.071
22506WAT     H167760   9.661   4.770   5.014
22506WAT     H267761   9.569   4.652   5.080
22507WAT      O67762   4.160   4.803   0.531
22507WAT     H167763   4.247   4.849   0.511
22507WAT     H267764   4.102   4.864   0.585
22508WAT      O67765   0.566   0.925   1.802
22508WAT     H167766   0.607   0.972   1.724
22508WAT     H267767   0.625   0.937   1.883
22509WAT      O67768   1.070   6.246   6.436
22509WAT     H167769   1.101   6.160   6.476
22509WAT     H267770   0.970   6.250   6.435
22510WAT      O67771   7.216   6.924   3.650
22510WAT     H167772   7.196   6.990   3.578
22510WAT     H267773   7.299   6.874   3.628
22511WAT      O67774   8.861   1.274   5.944
22511WAT     H167775   8.898   1.344   6.005
22511WAT     H267776   8.773   1.242   5.979
22512WAT      O67777   1.548   3.281   7.051
22512WAT     H167778   1.468   3.310   6.999
22512WAT     H267779   1.629   3.328   7.016
22513WAT      O67780   0.539   0.602   2.014
22513WAT     H167781   0.633   0.582   1.987
22513WAT     H267782   0.507   0.533   2.079
22514WAT      O67783   9.408   6.921   0.058
22514WAT     H167784   9.436   7.012   0.089
22514WAT     H267785   9.310   6.910   0.073
22515WAT      O67786   6.517   3.278   6.077
22515WAT     H167787   6.598   3.267   6.134
22515WAT     H267788   6.439   3.305   6.134
22516WAT      O67789   7.892   2.664   9.328
22516WAT     H167790   7.922   2.598   9.259
22516WAT     H267791   7.942   2.749   9.318
22517WAT      O67792   0.868   4.443   5.574
22517WAT     H167793   0.944   4.447   5.510
22517WAT     H267794   0.902   4.456   5.667
22518WAT      O67795   4.630   1.784   3.358
22518WAT     H167796   4.640   1.765   3.260
22518WAT     H267797   4.688   1.861   3.383
22519WAT      O67798   2.143   7.098   2.887
22519WAT     H167799   2.139   7.123   2.984
22519WAT     H267800   2.074   7.150   2.837
22520WAT      O67801   6.877   4.062   2.392
22520WAT     H167802   6.879   4.105   2.482
22520WAT     H267803   6.971   4.051   2.359
22521WAT      O67804   1.423   6.616   0.557
22521WAT     H167805   1.435   6.663   0.644
22521WAT     H267806   1.508   6.621   0.504
22522WAT      O67807   4.064   9.112   8.959
22522WAT     H167808   4.069   9.197   8.906
22522WAT     H267809   4.138   9.051   8.931
22523WAT      O67810   7.309   8.139   2.088
22523WAT     H167811   7.388   8.123   2.029
22523WAT     H267812   7.226   8.108   2.042
22524WAT      O67813   6.238   7.530   3.965
22524WAT     H167814   6.154   7.513   3.914
22524WAT     H267815   6.234   7.620   4.008
22525WAT      O67816   1.868   7.555   0.862
22525WAT     H167817   1.899   7.460   0.865
22525WAT     H267818   1.888   7.599   0.950
22526WAT      O67819   5.001   0.792   1.311
22526WAT     H167820   4.917   0.742   1.332
22526WAT     H267821   4.989   0.889   1.331
22527WAT      O67822   9.663   4.244   4.139
22527WAT     H167823   9.747   4.208   4.180
22527WAT     H267824   9.681   4.332   4.097
22528WAT      O67825   2.464   3.988   2.568
22528WAT     H167826   2.378   3.962   2.613
22528WAT     H267827   2.540   3.940   2.612
22529WAT      O67828   2.187   7.192   7.742
22529WAT     H167829   2.175   7.135   7.823
22529WAT     H267830   2.209   7.286   7.770
22530WAT      O67831   1.570   2.862   8.064
22530WAT     H167832   1.490   2.839   8.008
22530WAT     H267833   1.553   2.836   8.159
22531WAT      O67834   9.585   0.767   1.957
22531WAT     H167835   9.600   0.740   1.861
22531WAT     H267836   9.673   0.781   2.001
22532WAT      O67837   0.395   6.157   6.483
22532WAT     H167838   0.411   6.184   6.388
22532WAT     H267839   0.308   6.107   6.489
22533WAT      O67840   4.986   8.627   4.718
22533WAT     H167841   5.086   8.626   4.705
22533WAT     H267842   4.941   8.608   4.631
22534WAT      O67843   3.796   2.522   1.127
22534WAT     H167844   3.735   2.481   1.195
22534WAT     H267845   3.848   2.450   1.081
22535WAT      O67846   2.298   4.336   9.312
22535WAT     H167847   2.310   4.398   9.235
22535WAT     H267848   2.275   4.388   9.394
22536WAT      O67849   6.078   5.966   0.272
22536WAT     H167850   6.034   5.878   0.289
22536WAT     H267851   6.081   5.984   0.174
22537WAT      O67852   6.887   6.610   5.169
22537WAT     H167853   6.910   6.707   5.172
22537WAT     H267854   6.971   6.556   5.167
22538WAT      O67855   6.975   1.178   7.910
22538WAT     H167856   7.021   1.107   7.964
22538WAT     H267857   6.908   1.226   7.966
22539WAT      O67858   7.558   7.091   6.146
22539WAT     H167859   7.486   7.051   6.089
22539WAT     H267860   7.555   7.190   6.138
22540WAT      O67861   5.505   2.478   7.468
22540WAT     H167862   5.496   2.561   7.413
22540WAT     H267863   5.414   2.438   7.483
22541WAT      O67864   3.717   7.272   0.404
22541WAT     H167865   3.792   7.315   0.454
22541WAT     H267866   3.634   7.275   0.460
22542WAT      O67867   4.293   6.922   0.679
22542WAT     H167868   4.311   7.003   0.623
22542WAT     H267869   4.205   6.932   0.725
22543WAT      O67870   1.581   0.083   7.813
22543WAT     H167871   1.534   0.104   7.899
22543WAT     H267872   1.656   0.019   7.830
22544WAT      O67873   0.250   7.220   7.856
22544WAT     H167874   0.198   7.166   7.922
22544WAT     H267875   0.344   7.230   7.888
22545WAT      O67876   8.571   1.691   2.723
22545WAT     H167877   8.588   1.701   2.625
22545WAT     H267878   8.577   1.594   2.749
22546WAT      O67879   4.054   1.072   2.302
22546WAT     H167880   4.056   0.973   2.319
22546WAT     H267881   4.033   1.088   2.206
22547WAT      O67882   0.008   0.755   3.275
22547WAT     H167883  -0.034   0.834   3.229
22547WAT     H267884  -0.034   0.743   3.365
22548WAT      O67885   0.812   1.423   8.771
22548WAT     H167886   0.869   1.492   8.728
22548WAT     H267887   0.764   1.463   8.849
22549WAT      O67888   1.672   4.210   1.397
22549WAT     H167889   1.639   4.116   1.406
22549WAT     H267890   1.640   4.249   1.310
22550WAT      O67891   2.384   9.665   6.159
22550WAT     H167892   2.365   9.583   6.214
22550WAT     H267893   2.428   9.638   6.073
22551WAT      O67894   0.887   6.657   6.897
22551WAT     H167895   0.864   6.717   6.820
22551WAT     H267896   0.901   6.564   6.863
22552WAT      O67897   8.632   4.569   8.152
22552WAT     H167898   8.688   4.651   8.134
22552WAT     H267899   8.664   4.494   8.093
22553WAT      O67900   7.688   6.438   3.513
22553WAT     H167901   7.702   6.537   3.510
22553WAT     H267902   7.614   6.413   3.451
22554WAT      O67903   1.803   8.661   8.801
22554WAT     H167904   1.860   8.588   8.838
22554WAT     H267905   1.725   8.676   8.861
22555WAT      O67906   4.134   7.107   7.397
22555WAT     H167907   4.166   7.057   7.316
22555WAT     H267908   4.207   7.168   7.429
22556WAT      O67909   7.246   6.517   6.528
22556WAT     H167910   7.179   6.501   6.601
22556WAT     H267911   7.277   6.612   6.532
22557WAT      O67912   2.370   1.581   2.866
22557WAT     H167913   2.310   1.607   2.941
22557WAT     H267914   2.461   1.622   2.879
22558WAT      O67915   8.658   9.457   5.200
22558WAT     H167916   8.741   9.459   5.145
22558WAT     H267917   8.577   9.455   5.141
22559WAT      O67918   9.056   0.637   2.138
22559WAT     H167919   9.013   0.551   2.166
22559WAT     H267920   9.035   0.655   2.042
22560WAT      O67921   6.019   3.663   7.857
22560WAT     H167922   6.078   3.615   7.922
22560WAT     H267923   6.061   3.750   7.831
22561WAT      O67924   7.051   4.162   5.310
22561WAT     H167925   7.010   4.179   5.399
22561WAT     H267926   6.995   4.098   5.258
22562WAT      O67927   7.325   1.084   8.636
22562WAT     H167928   7.407   1.108   8.585
22562WAT     H267929   7.268   1.166   8.648
22563WAT      O67930   6.407   0.135   1.024
22563WAT     H167931   6.347   0.199   0.976
22563WAT     H267932   6.354   0.058   1.058
22564WAT      O67933   5.433   3.754   4.849
22564WAT     H167934   5.459   3.746   4.753
22564WAT     H267935   5.361   3.688   4.871
22565WAT      O67936   5.073   0.393   8.398
22565WAT     H167937   5.170   0.413   8.408
22565WAT     H267938   5.037   0.442   8.318
22566WAT      O67939   5.845   8.910   6.054
22566WAT     H167940   5.905   8.971   6.106
22566WAT     H267941   5.879   8.816   6.061
22567WAT      O67942   7.424   6.017   0.450
22567WAT     H167943   7.335   6.032   0.407
22567WAT     H267944   7.478   6.101   0.444
22568WAT      O67945   5.783   3.430   3.766
22568WAT     H167946   5.720   3.483   3.710
22568WAT     H267947   5.875   3.434   3.727
22569WAT      O67948   0.474   0.718   5.955
22569WAT     H167949   0.530   0.641   5.923
22569WAT     H267950   0.514   0.804   5.924
22570WAT      O67951   1.234   3.318   9.540
22570WAT     H167952   1.249   3.388   9.610
22570WAT     H267953   1.156   3.344   9.483
22571WAT      O67954   1.954   7.283   3.691
22571WAT     H167955   2.031   7.230   3.726
22571WAT     H267956   1.871   7.257   3.740
22572WAT      O67957   0.435   9.327   4.962
22572WAT     H167958   0.376   9.247   4.968
22572WAT     H267959   0.431   9.379   5.047
22573WAT      O67960   0.572   3.939   5.879
22573WAT     H167961   0.635   3.866   5.907
22573WAT     H267962   0.608   3.984   5.797
22574WAT      O67963   8.454   6.141   3.495
22574WAT     H167964   8.453   6.227   3.445
22574WAT     H267965   8.510   6.150   3.577
22575WAT      O67966   8.855   6.352   7.542
22575WAT     H167967   8.930   6.287   7.555
22575WAT     H267968   8.877   6.438   7.587
22576WAT      O67969   2.109   6.817   2.808
22576WAT     H167970   2.034   6.751   2.814
22576WAT     H267971   2.090   6.894   2.869
22577WAT      O67972   4.196   1.933   8.166
22577WAT     H167973   4.220   1.838   8.186
22577WAT     H267974   4.154   1.939   8.076
22578WAT      O67975   0.789   0.801   0.275
22578WAT     H167976   0.812   0.768   0.366
22578WAT     H267977   0.718   0.744   0.235
22579WAT      O67978   2.834   4.874   3.083
22579WAT     H167979   2.770   4.825   3.023
22579WAT     H267980   2.805   4.864   3.178
22580WAT      O67981   4.938   1.556   3.136
22580WAT     H167982   4.947   1.458   3.124
22580WAT     H267983   4.994   1.586   3.214
22581WAT      O67984   1.662   2.679   1.030
22581WAT     H167985   1.722   2.599   1.031
22581WAT     H267986   1.585   2.665   1.091
22582WAT      O67987   3.173   6.322   9.223
22582WAT     H167988   3.134   6.407   9.258
22582WAT     H267989   3.258   6.302   9.272
22583WAT      O67990   5.805   5.532   3.689
22583WAT     H167991   5.897   5.565   3.711
22583WAT     H267992   5.765   5.491   3.772
22584WAT      O67993   0.798   0.495   9.488
22584WAT     H167994   0.772   0.481   9.393
22584WAT     H267995   0.842   0.412   9.523
22585WAT      O67996   7.365   5.257   2.976
22585WAT     H167997   7.399   5.164   2.973
22585WAT     H267998   7.367   5.297   2.884
22586WAT      O67999   0.421   0.841   0.422
22586WAT     H168000   0.464   0.909   0.481
22586WAT     H268001   0.432   0.750   0.463
22587WAT      O68002   8.085   9.152   4.715
22587WAT     H168003   8.106   9.165   4.618
22587WAT     H268004   8.164   9.179   4.770
22588WAT      O68005   8.260   5.531   3.470
22588WAT     H168006   8.182   5.560   3.524
22588WAT     H268007   8.313   5.463   3.521
22589WAT      O68008   3.385   0.565   5.839
22589WAT     H168009   3.333   0.566   5.754
22589WAT     H268010   3.482   0.583   5.819
22590WAT      O68011   7.789   3.946   1.780
22590WAT     H168012   7.862   3.923   1.715
22590WAT     H268013   7.822   4.017   1.842
22591WAT      O68014   4.810   1.794   2.831
22591WAT     H168015   4.878   1.729   2.795
22591WAT     H268016   4.768   1.843   2.756
22592WAT      O68017   2.746   5.040   5.852
22592WAT     H168018   2.768   4.986   5.771
22592WAT     H268019   2.824   5.099   5.875
22593WAT      O68020   0.120   0.629   3.886
22593WAT     H168021   0.040   0.584   3.925
22593WAT     H268022   0.187   0.560   3.859
22594WAT      O68023   2.977   2.696   5.785
22594WAT     H168024   2.966   2.604   5.747
22594WAT     H268025   2.896   2.751   5.765
22595WAT      O68026   2.722   9.042   8.128
22595WAT     H168027   2.685   8.959   8.170
22595WAT     H268028   2.672   9.061   8.044
22596WAT      O68029   4.357   4.089   3.571
22596WAT     H168030   4.399   4.178   3.587
22596WAT     H268031   4.273   4.080   3.625
22597WAT      O68032   2.593   3.075   7.920
22597WAT     H168033   2.539   3.154   7.951
22597WAT     H268034   2.559   2.992   7.966
22598WAT      O68035   1.477   8.429   3.191
22598WAT     H168036   1.377   8.419   3.191
22598WAT     H268037   1.515   8.374   3.266
22599WAT      O68038   1.133   0.812   8.613
22599WAT     H168039   1.106   0.716   8.610
22599WAT     H268040   1.068   0.863   8.670
22600WAT      O68041   2.920   5.955   1.998
22600WAT     H168042   2.959   6.046   2.010
22600WAT     H268043   2.919   5.908   2.086
22601WAT      O68044   8.499   3.091   6.609
22601WAT     H168045   8.487   2.994   6.587
22601WAT     H268046   8.422   3.143   6.572
22602WAT      O68047   2.214   7.708   0.738
22602WAT     H168048   2.130   7.747   0.699
22602WAT     H268049   2.293   7.738   0.684
22603WAT      O68050   8.921   4.177   9.066
22603WAT     H168051   8.885   4.117   8.994
22603WAT     H268052   8.856   4.179   9.143
22604WAT      O68053   4.546   8.981   5.681
22604WAT     H168054   4.464   9.019   5.724
22604WAT     H268055   4.528   8.963   5.584
22605WAT      O68056   7.996   2.804   8.964
22605WAT     H168057   8.094   2.791   8.978
22605WAT     H268058   7.969   2.761   8.877
22606WAT      O68059   6.514   5.872   0.857
22606WAT     H168060   6.421   5.839   0.874
22606WAT     H268061   6.579   5.798   0.873
22607WAT      O68062   4.040   9.412   1.857
22607WAT     H168063   4.105   9.350   1.813
22607WAT     H268064   4.015   9.376   1.947
22608WAT      O68065   6.789   4.667   6.166
22608WAT     H168066   6.785   4.728   6.245
22608WAT     H268067   6.863   4.602   6.178
22609WAT      O68068   3.914   8.987   5.243
22609WAT     H168069   3.896   8.977   5.145
22609WAT     H268070   3.994   9.045   5.256
22610WAT      O68071   2.712   5.677   6.115
22610WAT     H168072   2.764   5.598   6.145
22610WAT     H268073   2.697   5.739   6.192
22611WAT      O68074   0.613   8.580   5.711
22611WAT     H168075   0.620   8.513   5.638
22611WAT     H268076   0.685   8.649   5.700
22612WAT      O68077   3.491   4.008   0.970
22612WAT     H168078   3.500   4.037   0.875
22612WAT     H268079   3.558   4.057   1.026
22613WAT      O68080   1.893   0.314   9.268
22613WAT     H168081   1.921   0.349   9.179
22613WAT     H268082   1.806   0.264   9.258
22614WAT      O68083   4.769   8.167   4.866
22614WAT     H168084   4.853   8.205   4.829
22614WAT     H268085   4.744   8.084   4.816
22615WAT      O68086   9.741   5.107   2.885
22615WAT     H168087   9.811   5.043   2.916
22615WAT     H268088   9.765   5.200   2.914
22616WAT      O68089   7.503   1.394   2.989
22616WAT     H168090   7.444   1.463   2.947
22616WAT     H268091   7.575   1.439   3.041
22617WAT      O68092   8.824   0.629   9.187
22617WAT     H168093   8.870   0.543   9.208
22617WAT     H268094   8.837   0.650   9.090
22618WAT      O68095   6.719   8.781   9.853
22618WAT     H168096   6.654   8.754   9.782
22618WAT     H268097   6.801   8.819   9.811
22619WAT      O68098   8.407   4.383   3.741
22619WAT     H168099   8.481   4.426   3.690
22619WAT     H268100   8.435   4.370   3.836
22620WAT      O68101   3.543   1.754   4.066
22620WAT     H168102   3.502   1.745   4.157
22620WAT     H268103   3.639   1.783   4.075
22621WAT      O68104   8.849   2.351   8.087
22621WAT     H168105   8.848   2.423   8.017
22621WAT     H268106   8.841   2.393   8.177
22622WAT      O68107   4.329   0.561   7.413
22622WAT     H168108   4.277   0.586   7.332
22622WAT     H268109   4.324   0.462   7.427
22623WAT      O68110   9.581   7.519   6.527
22623WAT     H168111   9.579   7.430   6.574
22623WAT     H268112   9.594   7.505   6.429
22624WAT      O68113   0.270   4.550   9.608
22624WAT     H168114   0.259   4.582   9.702
22624WAT     H268115   0.184   4.510   9.576
22625WAT      O68116   2.590   7.652   6.995
22625WAT     H168117   2.685   7.662   7.022
22625WAT     H268118   2.580   7.576   6.932
22626WAT      O68119   3.530   7.062   6.379
22626WAT     H168120   3.589   7.138   6.353
22626WAT     H268121   3.573   6.975   6.352
22627WAT      O68122   3.650   1.296   6.572
22627WAT     H168123   3.677   1.338   6.658
22627WAT     H268124   3.626   1.366   6.506
22628WAT      O68125   9.090   8.938   2.789
22628WAT     H168126   9.086   8.844   2.755
22628WAT     H268127   9.155   8.944   2.865
22629WAT      O68128   7.792   2.410   6.238
22629WAT     H168129   7.702   2.426   6.279
22629WAT     H268130   7.804   2.471   6.160
22630WAT      O68131   1.760   9.021   2.494
22630WAT     H168132   1.790   9.043   2.401
22630WAT     H268133   1.674   8.970   2.490
22631WAT      O68134   4.699   5.464   8.177
22631WAT     H168135   4.743   5.553   8.191
22631WAT     H268136   4.626   5.473   8.109
22632WAT      O68137   3.844   4.102   3.542
22632WAT     H168138   3.784   4.036   3.496
22632WAT     H268139   3.897   4.152   3.473
22633WAT      O68140   7.154   0.930   5.477
22633WAT     H168141   7.067   0.963   5.439
22633WAT     H268142   7.207   1.008   5.510
22634WAT      O68143   7.655   0.595   7.350
22634WAT     H168144   7.661   0.694   7.338
22634WAT     H268145   7.565   0.571   7.386
22635WAT      O68146   3.597   1.310   3.691
22635WAT     H168147   3.582   1.222   3.736
22635WAT     H268148   3.524   1.326   3.624
22636WAT      O68149   4.117   8.241   8.937
22636WAT     H168150   4.030   8.223   8.983
22636WAT     H268151   4.104   8.310   8.866
22637WAT      O68152   2.554   8.157   8.596
22637WAT     H168153   2.583   8.166   8.501
22637WAT     H268154   2.511   8.068   8.610
22638WAT      O68155   3.368   7.033   3.139
22638WAT     H168156   3.382   7.125   3.103
22638WAT     H268157   3.304   6.983   3.081
22639WAT      O68158   0.794   5.954   7.656
22639WAT     H168159   0.705   5.972   7.614
22639WAT     H268160   0.862   5.939   7.584
22640WAT      O68161   2.086   1.322   4.887
22640WAT     H168162   2.130   1.235   4.867
22640WAT     H268163   2.051   1.362   4.802
22641WAT      O68164   0.272   9.238   1.222
22641WAT     H168165   0.253   9.220   1.125
22641WAT     H268166   0.275   9.152   1.272
22642WAT      O68167   7.086   6.326   8.648
22642WAT     H168168   7.125   6.390   8.581
22642WAT     H268169   7.130   6.237   8.639
22643WAT      O68170   7.332   0.940   8.901
22643WAT     H168171   7.413   0.936   8.961
22643WAT     H268172   7.332   1.026   8.851
22644WAT      O68173   1.415   0.595   5.318
22644WAT     H168174   1.488   0.625   5.256
22644WAT     H268175   1.417   0.495   5.325
22645WAT      O68176   7.314   0.190   3.047
22645WAT     H168177   7.214   0.194   3.053
22645WAT     H268178   7.349   0.277   3.015
22646WAT      O68179   8.982   1.429   0.419
22646WAT     H168180   8.995   1.393   0.512
22646WAT     H268181   8.979   1.354   0.354
22647WAT      O68182   1.404   2.544   8.316
22647WAT     H168183   1.408   2.521   8.413
22647WAT     H268184   1.366   2.466   8.265
22648WAT      O68185   3.688   9.761   9.311
22648WAT     H168186   3.643   9.767   9.400
22648WAT     H268187   3.645   9.825   9.247
22649WAT      O68188   3.844   7.858   8.235
22649WAT     H168189   3.805   7.938   8.189
22649WAT     H268190   3.903   7.889   8.310
22650WAT      O68191   1.927   7.418   9.078
22650WAT     H168192   1.967   7.508   9.095
22650WAT     H268193   1.927   7.364   9.162
22651WAT      O68194   1.391   4.892   7.806
22651WAT     H168195   1.392   4.793   7.820
22651WAT     H268196   1.298   4.922   7.787
22652WAT      O68197   2.259   5.728   7.060
22652WAT     H168198   2.250   5.684   6.970
22652WAT     H268199   2.267   5.658   7.131
22653WAT      O68200   2.470   4.007   3.672
22653WAT     H168201   2.552   4.050   3.709
22653WAT     H268202   2.393   4.070   3.679
22654WAT      O68203   0.456   4.323   1.286
22654WAT     H168204   0.471   4.386   1.363
22654WAT     H268205   0.428   4.234   1.320
22655WAT      O68206   5.182   3.738   4.085
22655WAT     H168207   5.112   3.731   4.157
22655WAT     H268208   5.191   3.834   4.057
22656WAT      O68209   9.034   3.751   2.298
22656WAT     H168210   8.991   3.722   2.213
22656WAT     H268211   8.971   3.734   2.374
22657WAT      O68212   7.605   2.400   6.479
22657WAT     H168213   7.652   2.336   6.540
22657WAT     H268214   7.508   2.375   6.475
22658WAT      O68215   8.470   7.926   0.089
22658WAT     H168216   8.558   7.927   0.136
22658WAT     H268217   8.484   7.906  -0.008
22659WAT      O68218   1.155   0.991   5.700
22659WAT     H168219   1.152   0.898   5.737
22659WAT     H268220   1.151   0.988   5.600
22660WAT      O68221   5.567   4.495   3.602
22660WAT     H168222   5.609   4.586   3.606
22660WAT     H268223   5.589   4.453   3.515
22661WAT      O68224   9.443   0.213   2.303
22661WAT     H168225   9.485   0.199   2.392
22661WAT     H268226   9.446   0.311   2.280
22662WAT      O68227   4.499   9.731   7.380
22662WAT     H168228   4.436   9.665   7.420
22662WAT     H268229   4.585   9.686   7.359
22663WAT      O68230   6.126   3.166   8.930
22663WAT     H168231   6.112   3.257   8.892
22663WAT     H268232   6.123   3.171   9.030
22664WAT      O68233   0.923   6.522   1.645
22664WAT     H168234   0.841   6.502   1.591
22664WAT     H268235   0.968   6.437   1.670
22665WAT      O68236   5.736   8.507   1.814
22665WAT     H168237   5.763   8.594   1.773
22665WAT     H268238   5.638   8.509   1.834
22666WAT      O68239   3.855   8.217   5.522
22666WAT     H168240   3.885   8.285   5.454
22666WAT     H268241   3.814   8.139   5.475
22667WAT      O68242   2.700   3.820   2.115
22667WAT     H168243   2.678   3.743   2.175
22667WAT     H268244   2.686   3.906   2.163
22668WAT      O68245   9.261   6.716   6.469
22668WAT     H168246   9.354   6.730   6.503
22668WAT     H268247   9.215   6.805   6.458
22669WAT      O68248   0.263   2.820   1.989
22669WAT     H168249   0.256   2.726   2.023
22669WAT     H268250   0.248   2.821   1.891
22670WAT      O68251   8.590   0.783   0.725
22670WAT     H168252   8.664   0.784   0.792
22670WAT     H268253   8.628   0.769   0.633
22671WAT      O68254   3.473   2.898   1.197
22671WAT     H168255   3.544   2.961   1.166
22671WAT     H268256   3.386   2.922   1.154
22672WAT      O68257   9.552   0.216   4.731
22672WAT     H168258   9.453   0.218   4.744
22672WAT     H268259   9.587   0.309   4.729
22673WAT      O68260   9.503   1.103   9.499
22673WAT     H168261   9.574   1.160   9.542
22673WAT     H268262   9.472   1.148   9.415
22674WAT      O68263   4.941   7.114   6.430
22674WAT     H168264   5.026   7.127   6.481
22674WAT     H268265   4.955   7.141   6.335
22675WAT      O68266   6.018   2.592   5.910
22675WAT     H168267   6.087   2.524   5.937
22675WAT     H268268   6.057   2.654   5.842
22676WAT      O68269   1.455   0.075   2.999
22676WAT     H168270   1.400   0.031   2.928
22676WAT     H268271   1.449   0.022   3.084
22677WAT      O68272   7.337   4.806   2.514
22677WAT     H168273   7.274   4.742   2.470
22677WAT     H268274   7.400   4.755   2.574
22678WAT      O68275   1.257   2.433   2.236
22678WAT     H168276   1.309   2.355   2.202
22678WAT     H268277   1.305   2.475   2.312
22679WAT      O68278   4.970   9.619   7.474
22679WAT     H168279   4.941   9.523   7.477
22679WAT     H268280   5.070   9.624   7.478
22680WAT      O68281   1.096   8.650   4.918
22680WAT     H168282   1.024   8.614   4.978
22680WAT     H268283   1.057   8.665   4.827
22681WAT      O68284   4.583   5.270   1.711
22681WAT     H168285   4.630   5.331   1.775
22681WAT     H268286   4.536   5.324   1.641
22682WAT      O68287   3.250   2.306   1.465
22682WAT     H168288   3.158   2.282   1.435
22682WAT     H268289   3.312   2.308   1.387
22683WAT      O68290   2.110   0.531   9.673
22683WAT     H168291   2.156   0.620   9.667
22683WAT     H268292   2.079   0.503   9.582
22684WAT      O68293   0.518   4.262   6.274
22684WAT     H168294   0.597   4.307   6.232
22684WAT     H268295   0.461   4.330   6.320
22685WAT      O68296   7.831   8.457   0.855
22685WAT     H168297   7.815   8.360   0.873
22685WAT     H268298   7.926   8.471   0.828
22686WAT      O68299   1.687   4.345   8.333
22686WAT     H168300   1.609   4.323   8.274
22686WAT     H268301   1.730   4.260   8.363
22687WAT      O68302   7.547   8.836   5.688
22687WAT     H168303   7.628   8.849   5.745
22687WAT     H268304   7.487   8.916   5.696
22688WAT      O68305   5.469   4.186   7.265
22688WAT     H168306   5.412   4.219   7.190
22688WAT     H268307   5.455   4.088   7.277
22689WAT      O68308   0.061   0.854   4.242
22689WAT     H168309   0.161   0.850   4.235
22689WAT     H268310   0.022   0.880   4.154
22690WAT      O68311   9.686   3.154   9.239
22690WAT     H168312   9.744   3.085   9.283
22690WAT     H268313   9.679   3.133   9.141
22691WAT      O68314   7.809   0.862   3.247
22691WAT     H168315   7.785   0.948   3.290
22691WAT     H268316   7.886   0.820   3.296
22692WAT      O68317   1.969   9.126   4.427
22692WAT     H168318   1.891   9.090   4.377
22692WAT     H268319   2.023   9.050   4.464
22693WAT      O68320   6.693   1.975   2.020
22693WAT     H168321   6.783   2.009   2.050
22693WAT     H268322   6.641   2.050   1.980
22694WAT      O68323   5.364   8.227   7.261
22694WAT     H168324   5.379   8.165   7.338
22694WAT     H268325   5.268   8.256   7.261
22695WAT      O68326   1.748   2.653   8.856
22695WAT     H168327   1.709   2.660   8.764
22695WAT     H268328   1.826   2.592   8.855
22696WAT      O68329   6.411   2.461   5.028
22696WAT     H168330   6.340   2.529   5.050
22696WAT     H268331   6.385   2.373   5.067
22697WAT      O68332   5.022   8.624   3.910
22697WAT     H168333   5.114   8.648   3.943
22697WAT     H268334   4.968   8.587   3.985
22698WAT      O68335   0.569   7.836   3.768
22698WAT     H168336   0.622   7.918   3.749
22698WAT     H268337   0.507   7.853   3.845
22699WAT      O68338   7.313   1.355   0.362
22699WAT     H168339   7.287   1.353   0.458
22699WAT     H268340   7.276   1.275   0.315
22700WAT      O68341   6.867   2.365   3.799
22700WAT     H168342   6.881   2.368   3.700
22700WAT     H268343   6.903   2.448   3.841
22701WAT      O68344   8.158   0.700   8.926
22701WAT     H168345   8.258   0.702   8.924
22701WAT     H268346   8.128   0.606   8.943
22702WAT      O68347   4.005   2.211   9.536
22702WAT     H168348   3.966   2.183   9.448
22702WAT     H268349   4.014   2.132   9.595
22703WAT      O68350   0.168   9.537   3.638
22703WAT     H168351   0.143   9.505   3.546
22703WAT     H268352   0.267   9.549   3.643
22704WAT      O68353   3.070   0.080   5.310
22704WAT     H168354   2.978   0.079   5.271
22704WAT     H268355   3.133   0.033   5.248
22705WAT      O68356   6.472   0.335   8.465
22705WAT     H168357   6.442   0.251   8.419
22705WAT     H268358   6.397   0.401   8.465
22706WAT      O68359   6.488   7.544   6.176
22706WAT     H168360   6.486   7.551   6.276
22706WAT     H268361   6.555   7.474   6.149
22707WAT      O68362   9.161   9.404   3.555
22707WAT     H168363   9.210   9.317   3.563
22707WAT     H268364   9.070   9.395   3.594
22708WAT      O68365   0.993   4.095   3.829
22708WAT     H168366   1.082   4.072   3.868
22708WAT     H268367   0.990   4.069   3.733
22709WAT      O68368   6.905   2.462   3.522
22709WAT     H168369   6.847   2.460   3.441
22709WAT     H268370   6.982   2.524   3.506
22710WAT      O68371   0.185   8.248   5.163
22710WAT     H168372   0.208   8.180   5.093
22710WAT     H268373   0.116   8.210   5.225
22711WAT      O68374   5.636   3.383   1.191
22711WAT     H168375   5.654   3.448   1.117
22711WAT     H268376   5.553   3.410   1.240
22712WAT      O68377   8.668   4.653   2.390
22712WAT     H168378   8.692   4.591   2.465
22712WAT     H268379   8.602   4.608   2.330
22713WAT      O68380   6.373   3.826   5.698
22713WAT     H168381   6.320   3.895   5.648
22713WAT     H268382   6.362   3.841   5.796
22714WAT      O68383   1.629   1.020   9.697
22714WAT     H168384   1.598   1.007   9.603
22714WAT     H268385   1.551   1.043   9.755
22715WAT      O68386   2.593   1.385   5.681
22715WAT     H168387   2.661   1.329   5.729
22715WAT     H268388   2.637   1.468   5.647
22716WAT      O68389   0.331   5.216   1.157
22716WAT     H168390   0.381   5.302   1.161
22716WAT     H268391   0.396   5.140   1.163
22717WAT      O68392   4.653   0.633   6.497
22717WAT     H168393   4.689   0.539   6.499
22717WAT     H268394   4.568   0.637   6.550
22718WAT      O68395   9.225   3.579   7.509
22718WAT     H168396   9.244   3.581   7.411
22718WAT     H268397   9.246   3.669   7.549
22719WAT      O68398   7.310   2.555   7.763
22719WAT     H168399   7.226   2.522   7.722
22719WAT     H268400   7.388   2.502   7.729
22720WAT      O68401   2.911   2.181   9.780
22720WAT     H168402   2.811   2.181   9.788
22720WAT     H268403   2.936   2.174   9.683
22721WAT      O68404   3.237   6.893   6.479
22721WAT     H168405   3.158   6.904   6.540
22721WAT     H268406   3.213   6.834   6.402
22722WAT      O68407   5.289   3.786   8.687
22722WAT     H168408   5.350   3.715   8.654
22722WAT     H268409   5.258   3.764   8.780
22723WAT      O68410   4.384   1.402   2.620
22723WAT     H168411   4.444   1.458   2.678
22723WAT     H268412   4.428   1.389   2.531
22724WAT      O68413   6.916   4.872   0.843
22724WAT     H168414   6.832   4.889   0.895
22724WAT     H268415   6.987   4.937   0.871
22725WAT      O68416   4.804   2.352   0.411
22725WAT     H168417   4.903   2.365   0.416
22725WAT     H268418   4.768   2.336   0.502
22726WAT      O68419   2.229   6.207   9.820
22726WAT     H168420   2.251   6.110   9.806
22726WAT     H268421   2.258   6.259   9.740
22727WAT      O68422   0.572   5.280   6.060
22727WAT     H168423   0.573   5.227   5.975
22727WAT     H268424   0.577   5.378   6.038
22728WAT      O68425   5.338   5.790   2.455
22728WAT     H168426   5.256   5.782   2.511
22728WAT     H268427   5.416   5.751   2.505
22729WAT      O68428   5.507   2.935   0.752
22729WAT     H168429   5.549   2.989   0.825
22729WAT     H268430   5.453   2.994   0.692
22730WAT      O68431   9.673   8.068   3.505
22730WAT     H168432   9.573   8.064   3.510
22730WAT     H268433   9.707   8.133   3.573
22731WAT      O68434   3.711   3.979   4.086
22731WAT     H168435   3.761   4.064   4.069
22731WAT     H268436   3.774   3.902   4.075
22732WAT      O68437   9.520   3.226   6.691
22732WAT     H168438   9.602   3.240   6.746
22732WAT     H268439   9.447   3.284   6.726
22733WAT      O68440   7.867   7.369   3.425
22733WAT     H168441   7.873   7.469   3.429
22733WAT     H268442   7.809   7.337   3.500
22734WAT      O68443   0.697   6.620   7.106
22734WAT     H168444   0.701   6.667   7.194
22734WAT     H268445   0.774   6.648   7.050
22735WAT      O68446   2.731   0.909   4.354
22735WAT     H168447   2.741   0.935   4.450
22735WAT     H268448   2.792   0.833   4.334
22736WAT      O68449   7.518   7.422   4.789
22736WAT     H168450   7.471   7.508   4.770
22736WAT     H268451   7.450   7.349   4.800
22737WAT      O68452   4.537   4.202   7.485
22737WAT     H168453   4.441   4.213   7.459
22737WAT     H268454   4.592   4.272   7.440
22738WAT      O68455   8.573   0.262   2.184
22738WAT     H168456   8.561   0.358   2.207
22738WAT     H268457   8.666   0.234   2.204
22739WAT      O68458   6.879   6.244   6.726
22739WAT     H168459   6.813   6.264   6.799
22739WAT     H268460   6.929   6.328   6.704
22740WAT      O68461   6.102   5.697   6.059
22740WAT     H168462   6.015   5.673   6.017
22740WAT     H268463   6.094   5.692   6.158
22741WAT      O68464   8.938   4.896   3.725
22741WAT     H168465   8.947   4.807   3.769
22741WAT     H268466   8.843   4.927   3.734
22742WAT      O68467   2.888   1.189   6.808
22742WAT     H168468   2.961   1.228   6.751
22742WAT     H268469   2.904   1.091   6.820
22743WAT      O68470   1.968   4.277   8.080
22743WAT     H168471   1.887   4.325   8.048
22743WAT     H268472   1.963   4.181   8.055
22744WAT      O68473   4.442   3.718   1.999
22744WAT     H168474   4.434   3.818   1.999
22744WAT     H268475   4.514   3.691   1.935
22745WAT      O68476   2.212   4.649   3.354
22745WAT     H168477   2.191   4.644   3.257
22745WAT     H268478   2.263   4.732   3.374
22746WAT      O68479   5.245   4.364   1.302
22746WAT     H168480   5.342   4.361   1.328
22746WAT     H268481   5.190   4.322   1.373
22747WAT      O68482   8.411   6.175   1.246
22747WAT     H168483   8.466   6.147   1.324
22747WAT     H268484   8.320   6.203   1.277
22748WAT      O68485   3.002   4.783   5.344
22748WAT     H168486   3.078   4.722   5.364
22748WAT     H268487   2.982   4.781   5.246
22749WAT      O68488   7.158   0.169   5.669
22749WAT     H168489   7.230   0.198   5.606
22749WAT     H268490   7.081   0.233   5.663
22750WAT      O68491   4.507   6.984   2.104
22750WAT     H168492   4.527   7.045   2.181
22750WAT     H268493   4.541   7.025   2.020
22751WAT      O68494   3.303   1.820   5.827
22751WAT     H168495   3.299   1.720   5.827
22751WAT     H268496   3.241   1.855   5.897
22752WAT      O68497   8.435   5.022   2.381
22752WAT     H168498   8.479   5.110   2.403
22752WAT     H268499   8.450   4.958   2.455
22753WAT      O68500   3.966   9.746   3.139
22753WAT     H168501   3.968   9.798   3.225
22753WAT     H268502   4.032   9.785   3.075
22754WAT      O68503   1.968   5.089   2.784
22754WAT     H168504   2.055   5.045   2.807
22754WAT     H268505   1.938   5.145   2.861
22755WAT      O68506   2.494   7.482   3.456
22755WAT     H168507   2.408   7.445   3.420
22755WAT     H268508   2.535   7.415   3.518
22756WAT      O68509   2.357   0.158   1.813
22756WAT     H168510   2.447   0.142   1.851
22756WAT     H268511   2.361   0.152   1.713
22757WAT      O68512   0.840   4.042   8.228
22757WAT     H168513   0.855   4.021   8.325
22757WAT     H268514   0.806   4.135   8.219
22758WAT      O68515   3.289   6.031   5.828
22758WAT     H168516   3.237   6.103   5.782
22758WAT     H268517   3.380   6.065   5.852
22759WAT      O68518   2.631   3.828   0.388
22759WAT     H168519   2.591   3.918   0.371
22759WAT     H268520   2.566   3.756   0.364
22760WAT      O68521   0.908   8.724   1.926
22760WAT     H168522   0.998   8.719   1.883
22760WAT     H268523   0.918   8.757   2.020
22761WAT      O68524   3.678   7.996   5.455
22761WAT     H168525   3.647   8.043   5.538
22761WAT     H268526   3.683   7.898   5.473
22762WAT      O68527   1.004   6.265   1.640
22762WAT     H168528   1.048   6.175   1.651
22762WAT     H268529   0.910   6.260   1.674
22763WAT      O68530   9.734   5.275   0.825
22763WAT     H168531   9.813   5.295   0.767
22763WAT     H268532   9.717   5.353   0.886
22764WAT      O68533   9.849   0.170   0.065
22764WAT     H168534   9.851   0.113   0.147
22764WAT     H268535   9.868   0.114  -0.016
22765WAT      O68536   4.959   1.844   0.252
22765WAT     H168537   4.992   1.929   0.293
22765WAT     H268538   4.981   1.767   0.312
22766WAT      O68539   4.143   1.723   7.909
22766WAT     H168540   4.101   1.674   7.985
22766WAT     H268541   4.111   1.817   7.908
22767WAT      O68542   5.726   1.489   9.356
22767WAT     H168543   5.629   1.508   9.374
22767WAT     H268544   5.739   1.477   9.257
22768WAT      O68545   1.372   2.212   7.057
22768WAT     H168546   1.426   2.132   7.032
22768WAT     H268547   1.279   2.202   7.022
22769WAT      O68548   8.703   5.022   1.426
22769WAT     H168549   8.716   4.956   1.500
22769WAT     H268550   8.712   5.115   1.463
22770WAT      O68551   7.443   5.365   0.651
22770WAT     H168552   7.421   5.378   0.554
22770WAT     H268553   7.426   5.269   0.675
22771WAT      O68554   5.474   4.904   3.484
22771WAT     H168555   5.529   4.846   3.545
22771WAT     H268556   5.445   4.850   3.405
22772WAT      O68557   8.391   5.104   7.185
22772WAT     H168558   8.429   5.147   7.103
22772WAT     H268559   8.445   5.022   7.207
22773WAT      O68560   1.395   9.386   6.552
22773WAT     H168561   1.469   9.414   6.613
22773WAT     H268562   1.315   9.360   6.607
22774WAT      O68563   0.665   8.912   4.270
22774WAT     H168564   0.663   8.949   4.177
22774WAT     H268565   0.718   8.972   4.329
22775WAT      O68566   1.239   0.063   5.797
22775WAT     H168567   1.152   0.111   5.788
22775WAT     H268568   1.226  -0.033   5.771
22776WAT      O68569   8.671   8.973   9.591
22776WAT     H168570   8.765   8.969   9.556
22776WAT     H268571   8.608   8.982   9.515
22777WAT      O68572   0.388   2.165   3.412
22777WAT     H168573   0.400   2.106   3.332
22777WAT     H268574   0.453   2.139   3.483
22778WAT      O68575   5.365   9.576   0.500
22778WAT     H168576   5.429   9.607   0.571
22778WAT     H268577   5.280   9.628   0.506
22779WAT      O68578   8.738   2.506   3.983
22779WAT     H168579   8.795   2.513   4.065
22779WAT     H268580   8.749   2.588   3.927
22780WAT      O68581   7.730   8.056   5.032
22780WAT     H168582   7.691   8.072   5.122
22780WAT     H268583   7.713   8.135   4.973
22781WAT      O68584   3.049   3.687   7.368
22781WAT     H168585   2.958   3.648   7.378
22781WAT     H268586   3.061   3.762   7.434
22782WAT      O68587   7.910   0.735   7.944
22782WAT     H168588   7.879   0.663   8.006
22782WAT     H268589   7.917   0.821   7.994
22783WAT      O68590   8.434   0.677   8.941
22783WAT     H168591   8.457   0.590   8.897
22783WAT     H268592   8.471   0.679   9.034
22784WAT      O68593   9.708   6.144   4.637
22784WAT     H168594   9.772   6.134   4.561
22784WAT     H268595   9.644   6.067   4.637
22785WAT      O68596   4.011   1.076   4.934
22785WAT     H168597   3.918   1.110   4.950
22785WAT     H268598   4.073   1.153   4.919
22786WAT      O68599   3.703   9.062   0.387
22786WAT     H168600   3.687   8.965   0.368
22786WAT     H268601   3.720   9.111   0.301
22787WAT      O68602   8.893   9.572   3.658
22787WAT     H168603   8.810   9.603   3.704
22787WAT     H268604   8.880   9.577   3.559
22788WAT      O68605   2.104   4.145   3.744
22788WAT     H168606   2.150   4.189   3.821
22788WAT     H268607   2.070   4.214   3.681
22789WAT      O68608   3.317   9.387   8.612
22789WAT     H168609   3.338   9.289   8.607
22789WAT     H268610   3.268   9.414   8.529
22790WAT      O68611   7.163   3.496   4.508
22790WAT     H168612   7.222   3.488   4.588
22790WAT     H268613   7.197   3.434   4.436
22791WAT      O68614   4.681   2.186   1.013
22791WAT     H168615   4.769   2.148   0.984
22791WAT     H268616   4.667   2.276   0.972
22792WAT      O68617   5.912   9.750   2.316
22792WAT     H168618   5.995   9.724   2.365
22792WAT     H268619   5.892   9.846   2.333
22793WAT      O68620   6.713   1.809   1.805
22793WAT     H168621   6.811   1.792   1.793
22793WAT     H268622   6.698   1.863   1.887
22794WAT      O68623   9.239   0.109   1.750
22794WAT     H168624   9.217   0.021   1.707
22794WAT     H268625   9.185   0.120   1.834
22795WAT      O68626   1.884   2.253   0.468
22795WAT     H168627   1.815   2.249   0.539
22795WAT     H268628   1.858   2.321   0.399
22796WAT      O68629   2.892   2.417   5.721
22796WAT     H168630   2.808   2.433   5.774
22796WAT     H268631   2.953   2.357   5.772
22797WAT      O68632   0.569   7.530   8.773
22797WAT     H168633   0.474   7.500   8.766
22797WAT     H268634   0.628   7.451   8.792
22798WAT      O68635   6.619   4.242   3.321
22798WAT     H168636   6.696   4.241   3.257
22798WAT     H268637   6.638   4.181   3.398
22799WAT      O68638   5.577   4.819   3.890
22799WAT     H168639   5.493   4.765   3.891
22799WAT     H268640   5.598   4.850   3.982
22800WAT      O68641   3.926   1.992   9.733
22800WAT     H168642   3.941   1.941   9.818
22800WAT     H268643   3.912   1.927   9.658
22801WAT      O68644   3.087   3.272   5.255
22801WAT     H168645   3.176   3.256   5.213
22801WAT     H268646   3.021   3.205   5.222
22802WAT      O68647   1.312   2.787   0.409
22802WAT     H168648   1.382   2.843   0.453
22802WAT     H268649   1.243   2.761   0.476
22803WAT      O68650   8.541   0.617   1.689
22803WAT     H168651   8.626   0.639   1.737
22803WAT     H268652   8.532   0.518   1.683
22804WAT      O68653   8.463   8.181   3.631
22804WAT     H168654   8.364   8.174   3.641
22804WAT     H268655   8.504   8.091   3.647
22805WAT      O68656   0.687   9.735   2.128
22805WAT     H168657   0.619   9.794   2.085
22805WAT     H268658   0.748   9.697   2.058
22806WAT      O68659   1.280   3.360   6.979
22806WAT     H168660   1.196   3.309   6.960
22806WAT     H268661   1.258   3.457   6.991
22807WAT      O68662   2.533   6.193   6.058
22807WAT     H168663   2.588   6.199   6.142
22807WAT     H268664   2.457   6.258   6.064
22808WAT      O68665   2.559   0.266   5.671
22808WAT     H168666   2.528   0.314   5.752
22808WAT     H268667   2.525   0.313   5.589
22809WAT      O68668   8.635   1.649   4.673
22809WAT     H168669   8.642   1.712   4.596
22809WAT     H268670   8.723   1.645   4.721
22810WAT      O68671   6.066   4.188   4.383
22810WAT     H168672   5.979   4.202   4.336
22810WAT     H268673   6.141   4.204   4.320
22811WAT      O68674   1.025   3.716   2.904
22811WAT     H168675   1.124   3.709   2.914
22811WAT     H268676   0.983   3.722   2.995
22812WAT      O68677   9.561   3.864   4.380
22812WAT     H168678   9.537   3.792   4.445
22812WAT     H268679   9.620   3.826   4.309
22813WAT      O68680   7.753   6.514   1.976
22813WAT     H168681   7.718   6.573   2.048
22813WAT     H268682   7.688   6.511   1.900
22814WAT      O68683   5.067   1.072   9.480
22814WAT     H168684   5.055   1.070   9.381
22814WAT     H268685   5.048   1.165   9.513
22815WAT      O68686   1.344   8.977   8.371
22815WAT     H168687   1.336   8.948   8.275
22815WAT     H268688   1.274   8.931   8.425
22816WAT      O68689   2.552   3.541   1.155
22816WAT     H168690   2.583   3.498   1.240
22816WAT     H268691   2.469   3.496   1.123
22817WAT      O68692   0.289   5.637   0.853
22817WAT     H168693   0.236   5.570   0.906
22817WAT     H268694   0.228   5.707   0.817
22818WAT      O68695   2.871   5.882   2.764
22818WAT     H168696   2.851   5.827   2.684
22818WAT     H268697   2.790   5.890   2.822
22819WAT      O68698   4.426   9.142   4.620
22819WAT     H168699   4.354   9.132   4.690
22819WAT     H268700   4.389   9.191   4.542
22820WAT      O68701   3.813   4.413   1.057
22820WAT     H168702   3.795   4.314   1.057
22820WAT     H268703   3.766   4.455   0.979
22821WAT      O68704   6.707   2.737   8.231
22821WAT     H168705   6.661   2.653   8.201
22821WAT     H268706   6.709   2.803   8.156
22822WAT      O68707   8.670   9.570   3.800
22822WAT     H168708   8.671   9.587   3.898
22822WAT     H268709   8.577   9.584   3.765
22823WAT      O68710   8.997   7.443   5.513
22823WAT     H168711   9.017   7.433   5.610
22823WAT     H268712   8.969   7.537   5.494
22824WAT      O68713   7.305   4.627   3.294
22824WAT     H168714   7.249   4.707   3.313
22824WAT     H268715   7.296   4.601   3.198
22825WAT      O68716   6.453   9.349   0.642
22825WAT     H168717   6.379   9.393   0.591
22825WAT     H268718   6.477   9.404   0.722
22826WAT      O68719   8.885   4.140   2.773
22826WAT     H168720   8.909   4.134   2.677
22826WAT     H268721   8.805   4.082   2.791
22827WAT      O68722   0.775   9.236   3.104
22827WAT     H168723   0.858   9.261   3.155
22827WAT     H268724   0.752   9.141   3.123
22828WAT      O68725   5.261   1.067   6.992
22828WAT     H168726   5.346   1.025   7.022
22828WAT     H268727   5.185   1.003   7.005
22829WAT      O68728   2.756   4.380   6.521
22829WAT     H168729   2.815   4.306   6.552
22829WAT     H268730   2.751   4.379   6.421
22830WAT      O68731   0.911   4.838   3.653
22830WAT     H168732   0.998   4.801   3.620
22830WAT     H268733   0.840   4.768   3.645
22831WAT      O68734   8.889   3.102   9.406
22831WAT     H168735   8.968   3.064   9.358
22831WAT     H268736   8.805   3.077   9.359
22832WAT      O68737   3.285   1.145   8.380
22832WAT     H168738   3.241   1.079   8.320
22832WAT     H268739   3.274   1.117   8.476
22833WAT      O68740   1.842   2.971   7.578
22833WAT     H168741   1.847   2.873   7.557
22833WAT     H268742   1.924   3.017   7.543
22834WAT      O68743   1.020   4.397   2.023
22834WAT     H168744   1.026   4.420   1.926
22834WAT     H268745   0.934   4.350   2.041
22835WAT      O68746   4.147   2.028   8.635
22835WAT     H168747   4.163   2.125   8.652
22835WAT     H268748   4.050   2.007   8.646
22836WAT      O68749   2.652   4.203   2.844
22836WAT     H168750   2.686   4.297   2.856
22836WAT     H268751   2.648   4.158   2.933
22837WAT      O68752   3.823   5.674   6.857
22837WAT     H168753   3.897   5.626   6.808
22837WAT     H268754   3.773   5.608   6.913
22838WAT      O68755   9.583   6.901   9.352
22838WAT     H168756   9.539   6.870   9.436
22838WAT     H268757   9.651   6.971   9.373
22839WAT      O68758   3.200   8.286   5.178
22839WAT     H168759   3.202   8.213   5.246
22839WAT     H268760   3.288   8.333   5.176
22840WAT      O68761   3.657   2.733   4.514
22840WAT     H168762   3.585   2.665   4.500
22840WAT     H268763   3.738   2.688   4.551
22841WAT      O68764   3.277   3.549   0.490
22841WAT     H168765   3.273   3.514   0.584
22841WAT     H268766   3.294   3.647   0.492
22842WAT      O68767   2.212   9.272   8.022
22842WAT     H168768   2.206   9.177   7.991
22842WAT     H268769   2.158   9.330   7.961
22843WAT      O68770   7.076   1.114   7.121
22843WAT     H168771   7.104   1.136   7.028
22843WAT     H268772   7.036   1.196   7.164
22844WAT      O68773   7.510   0.290   8.182
22844WAT     H168774   7.526   0.281   8.083
22844WAT     H268775   7.529   0.384   8.210
22845WAT      O68776   1.011   5.559   3.253
22845WAT     H168777   0.980   5.467   3.277
22845WAT     H268778   0.935   5.624   3.264
22846WAT      O68779   0.931   6.964   1.088
22846WAT     H168780   0.854   6.968   1.026
22846WAT     H268781   0.996   6.895   1.056
22847WAT      O68782   3.731   2.609   7.239
22847WAT     H168783   3.753   2.694   7.192
22847WAT     H268784   3.648   2.622   7.294
22848WAT      O68785   5.812   5.389   3.234
22848WAT     H168786   5.848   5.381   3.327
22848WAT     H268787   5.802   5.298   3.194
22849WAT      O68788   5.453   6.593   8.640
22849WAT     H168789   5.491   6.506   8.669
22849WAT     H268790   5.525   6.650   8.601
22850WAT      O68791   6.569   3.821   4.513
22850WAT     H168792   6.587   3.880   4.591
22850WAT     H268793   6.470   3.815   4.497
22851WAT      O68794   1.641   7.875   4.441
22851WAT     H168795   1.551   7.911   4.415
22851WAT     H268796   1.676   7.925   4.519
22852WAT      O68797   7.840   9.569   3.956
22852WAT     H168798   7.771   9.598   3.889
22852WAT     H268799   7.837   9.630   4.035
22853WAT      O68800   9.770   1.783   7.188
22853WAT     H168801   9.779   1.706   7.124
22853WAT     H268802   9.700   1.761   7.256
22854WAT      O68803   3.614   6.001   3.668
22854WAT     H168804   3.704   6.041   3.684
22854WAT     H268805   3.553   6.026   3.744
22855WAT      O68806   6.991   2.506   4.296
22855WAT     H168807   7.024   2.541   4.383
22855WAT     H268808   6.932   2.574   4.252
22856WAT      O68809   9.723   2.071   8.160
22856WAT     H168810   9.736   1.972   8.162
22856WAT     H268811   9.811   2.116   8.146
22857WAT      O68812   5.594   4.894   4.157
22857WAT     H168813   5.599   4.960   4.232
22857WAT     H268814   5.559   4.807   4.192
22858WAT      O68815   8.813   2.405   2.793
22858WAT     H168816   8.801   2.305   2.793
22858WAT     H268817   8.729   2.448   2.827
22859WAT      O68818   8.563   2.152   5.923
22859WAT     H168819   8.514   2.127   5.840
22859WAT     H268820   8.657   2.176   5.901
22860WAT      O68821   4.085   8.206   1.997
22860WAT     H168822   4.104   8.123   2.050
22860WAT     H268823   4.053   8.180   1.906
22861WAT      O68824   6.714   1.028   1.203
22861WAT     H168825   6.794   1.087   1.192
22861WAT     H268826   6.729   0.965   1.279
22862WAT      O68827   3.989   0.803   8.672
22862WAT     H168828   4.024   0.725   8.724
22862WAT     H268829   3.910   0.775   8.619
22863WAT      O68830   3.493   1.248   2.178
22863WAT     H168831   3.586   1.211   2.169
22863WAT     H268832   3.489   1.307   2.258
22864WAT      O68833   0.333   0.792   7.001
22864WAT     H168834   0.236   0.814   7.011
22864WAT     H268835   0.343   0.698   6.969
22865WAT      O68836   3.149   0.722   3.011
22865WAT     H168837   3.118   0.693   3.101
22865WAT     H268838   3.181   0.643   2.959
22866WAT      O68839   3.233   5.747   2.200
22866WAT     H168840   3.310   5.684   2.190
22866WAT     H268841   3.189   5.760   2.112
22867WAT      O68842   0.302   4.488   8.296
22867WAT     H168843   0.290   4.423   8.371
22867WAT     H268844   0.397   4.517   8.291
22868WAT      O68845   0.891   4.943   8.136
22868WAT     H168846   0.990   4.940   8.153
22868WAT     H268847   0.875   4.975   8.042
22869WAT      O68848   7.042   1.008   3.098
22869WAT     H168849   7.080   1.011   3.191
22869WAT     H268850   7.024   0.913   3.072
22870WAT      O68851   0.516   5.180   2.598
22870WAT     H168852   0.536   5.092   2.642
22870WAT     H268853   0.488   5.247   2.667
22871WAT      O68854   3.581   6.065   4.107
22871WAT     H168855   3.670   6.103   4.081
22871WAT     H268856   3.589   6.016   4.193
22872WAT      O68857   3.425   2.802   4.299
22872WAT     H168858   3.408   2.730   4.367
22872WAT     H268859   3.359   2.876   4.311
22873WAT      O68860   2.973   0.585   3.250
22873WAT     H168861   3.013   0.535   3.174
22873WAT     H268862   2.884   0.546   3.273
22874WAT      O68863   3.532   1.458   4.225
22874WAT     H168864   3.624   1.447   4.187
22874WAT     H268865   3.464   1.430   4.158
22875WAT      O68866   5.870   7.448   3.959
22875WAT     H168867   5.878   7.360   4.007
22875WAT     H268868   5.889   7.434   3.861
22876WAT      O68869   5.580   4.274   3.195
22876WAT     H168870   5.583   4.205   3.123
22876WAT     H268871   5.649   4.344   3.178
22877WAT      O68872   0.602   2.294   2.447
22877WAT     H168873   0.569   2.387   2.460
22877WAT     H268874   0.524   2.233   2.429
22878WAT      O68875   5.160   6.129   6.912
22878WAT     H168876   5.114   6.092   6.993
22878WAT     H268877   5.258   6.137   6.929
22879WAT      O68878   9.178   7.018   5.020
22879WAT     H168879   9.193   6.955   4.943
22879WAT     H268880   9.148   7.106   4.985
22880WAT      O68881   5.576   6.880   3.481
22880WAT     H168882   5.565   6.979   3.486
22880WAT     H268883   5.507   6.842   3.420
22881WAT      O68884   4.353   6.128   6.018
22881WAT     H168885   4.278   6.190   5.997
22881WAT     H268886   4.327   6.069   6.094
22882WAT      O68887   4.091   0.734   8.004
22882WAT     H168888   4.000   0.694   7.990
22882WAT     H268889   4.099   0.769   8.097
22883WAT      O68890   5.625   5.132   4.762
22883WAT     H168891   5.572   5.053   4.790
22883WAT     H268892   5.713   5.102   4.726
22884WAT      O68893   7.149   1.824   2.024
22884WAT     H168894   7.240   1.864   2.018
22884WAT     H268895   7.104   1.856   2.108
22885WAT      O68896   3.115   3.087   3.494
22885WAT     H168897   3.204   3.120   3.526
22885WAT     H268898   3.042   3.136   3.541
22886WAT      O68899   7.569   6.237   0.456
22886WAT     H168900   7.546   6.307   0.524
22886WAT     H268901   7.650   6.267   0.404
22887WAT      O68902   8.063   5.477   7.281
22887WAT     H168903   8.135   5.417   7.317
22887WAT     H268904   8.073   5.484   7.182
22888WAT      O68905   1.955   6.945   0.786
22888WAT     H168906   1.963   7.035   0.744
22888WAT     H268907   1.962   6.953   0.885
22889WAT      O68908   6.688   7.198   7.620
22889WAT     H168909   6.764   7.136   7.641
22889WAT     H268910   6.620   7.150   7.565
22890WAT      O68911   0.834   3.922   3.164
22890WAT     H168912   0.878   3.842   3.203
22890WAT     H268913   0.894   4.002   3.172
22891WAT      O68914   3.419   1.570   0.108
22891WAT     H168915   3.481   1.626   0.162
22891WAT     H268916   3.331   1.617   0.099
22892WAT      O68917   2.107   3.132   2.127
22892WAT     H168918   2.044   3.113   2.203
22892WAT     H268919   2.071   3.091   2.043
22893WAT      O68920   9.042   9.738   2.892
22893WAT     H168921   9.065   9.644   2.866
22893WAT     H268922   9.115   9.800   2.862
22894WAT      O68923   1.595   5.577   8.998
22894WAT     H168924   1.655   5.657   8.997
22894WAT     H268925   1.650   5.494   8.991
22895WAT      O68926   0.436   2.864   5.390
22895WAT     H168927   0.404   2.785   5.442
22895WAT     H268928   0.368   2.938   5.397
22896WAT      O68929   3.211   7.301   3.921
22896WAT     H168930   3.249   7.387   3.887
22896WAT     H268931   3.114   7.314   3.941
22897WAT      O68932   9.657   7.082   7.197
22897WAT     H168933   9.749   7.054   7.168
22897WAT     H268934   9.634   7.170   7.155
22898WAT      O68935   1.683   7.038   2.219
22898WAT     H168936   1.721   6.946   2.223
22898WAT     H268937   1.616   7.049   2.293
22899WAT      O68938   3.641   1.771   9.145
22899WAT     H168939   3.713   1.831   9.110
22899WAT     H268940   3.563   1.826   9.174
22900WAT      O68941   5.775   7.859   6.430
22900WAT     H168942   5.782   7.824   6.523
22900WAT     H268943   5.684   7.841   6.393
22901WAT      O68944   7.648   6.782   5.454
22901WAT     H168945   7.648   6.881   5.467
22901WAT     H268946   7.559   6.745   5.479
22902WAT      O68947   4.352   5.206   1.834
22902WAT     H168948   4.351   5.125   1.894
22902WAT     H268949   4.445   5.224   1.803
22903WAT      O68950   1.938   0.097   7.608
22903WAT     H168951   2.032   0.063   7.601
22903WAT     H268952   1.934   0.174   7.672
22904WAT      O68953   5.849   1.676   3.626
22904WAT     H168954   5.872   1.684   3.723
22904WAT     H268955   5.792   1.596   3.612
22905WAT      O68956   4.997   5.318   9.094
22905WAT     H168957   4.898   5.317   9.086
22905WAT     H268958   5.038   5.304   9.004
22906WAT      O68959   7.824   8.940   4.181
22906WAT     H168960   7.865   9.010   4.123
22906WAT     H268961   7.731   8.921   4.150
22907WAT      O68962   3.073   7.950   1.002
22907WAT     H168963   3.055   8.049   1.002
22907WAT     H268964   3.131   7.928   1.080
22908WAT      O68965   2.304   1.387   5.330
22908WAT     H168966   2.313   1.298   5.285
22908WAT     H268967   2.368   1.451   5.289
22909WAT      O68968   5.489   6.499   5.646
22909WAT     H168969   5.569   6.475   5.700
22909WAT     H268970   5.450   6.417   5.604
22910WAT      O68971   4.419   2.191   7.705
22910WAT     H168972   4.409   2.267   7.769
22910WAT     H268973   4.341   2.188   7.644
22911WAT      O68974   9.348   9.838   4.573
22911WAT     H168975   9.447   9.834   4.583
22911WAT     H268976   9.306   9.758   4.616
22912WAT      O68977   6.095   6.993   3.484
22912WAT     H168978   6.105   6.968   3.388
22912WAT     H268979   6.006   6.961   3.518
22913WAT      O68980   7.143   8.393   2.775
22913WAT     H168981   7.064   8.335   2.754
22913WAT     H268982   7.126   8.441   2.861
22914WAT      O68983   3.597   7.780   1.464
22914WAT     H168984   3.668   7.834   1.420
22914WAT     H268985   3.534   7.841   1.512
22915WAT      O68986   3.162   9.467   5.292
22915WAT     H168987   3.227   9.479   5.216
22915WAT     H268988   3.170   9.375   5.328
22916WAT      O68989   6.646   1.286   7.178
22916WAT     H168990   6.736   1.324   7.203
22916WAT     H268991   6.577   1.357   7.186
22917WAT      O68992   6.003   0.343   6.964
22917WAT     H168993   5.914   0.382   6.941
22917WAT     H268994   6.031   0.374   7.055
22918WAT      O68995   5.353   1.359   2.431
22918WAT     H168996   5.286   1.310   2.486
22918WAT     H268997   5.428   1.298   2.408
22919WAT      O68998   0.331   4.160   2.307
22919WAT     H168999   0.251   4.101   2.295
22919WAT     H269000   0.308   4.254   2.280
22920WAT      O69001   6.672   8.612   8.238
22920WAT     H169002   6.640   8.555   8.162
22920WAT     H269003   6.731   8.557   8.298
22921WAT      O69004   1.275   4.772   1.978
22921WAT     H169005   1.326   4.858   1.968
22921WAT     H269006   1.258   4.755   2.075
22922WAT      O69007   0.588   8.004   5.847
22922WAT     H169008   0.492   8.023   5.827
22922WAT     H269009   0.643   8.086   5.831
22923WAT      O69010   6.747   4.260   4.809
22923WAT     H169011   6.730   4.247   4.711
22923WAT     H269012   6.666   4.233   4.861
22924WAT      O69013   7.904   6.374   3.107
22924WAT     H169014   7.923   6.283   3.070
22924WAT     H269015   7.914   6.372   3.207
22925WAT      O69016   2.689   8.160   7.389
22925WAT     H169017   2.776   8.177   7.435
22925WAT     H269018   2.692   8.072   7.343
22926WAT      O69019   6.757   1.257   7.550
22926WAT     H169020   6.680   1.235   7.491
22926WAT     H269021   6.801   1.341   7.517
22927WAT      O69022   5.018   1.662   2.376
22927WAT     H169023   5.092   1.729   2.380
22927WAT     H269024   5.057   1.570   2.384
22928WAT      O69025   2.980   1.465   1.550
22928WAT     H169026   2.951   1.511   1.467
22928WAT     H269027   3.079   1.450   1.548
22929WAT      O69028   4.354   6.441   4.202
22929WAT     H169029   4.259   6.416   4.184
22929WAT     H269030   4.369   6.445   4.300
22930WAT      O69031   6.430   9.748   7.339
22930WAT     H169032   6.441   9.692   7.421
22930WAT     H269033   6.459   9.842   7.359
22931WAT      O69034   8.168   8.750   9.495
22931WAT     H169035   8.172   8.848   9.517
22931WAT     H269036   8.137   8.739   9.401
22932WAT      O69037   5.021   6.877   2.674
22932WAT     H169038   5.087   6.877   2.749
22932WAT     H269039   5.070   6.886   2.587
22933WAT      O69040   9.825   3.061   6.385
22933WAT     H169041   9.879   2.996   6.438
22933WAT     H269042   9.845   3.155   6.415
22934WAT      O69043   6.895   2.677   5.753
22934WAT     H169044   6.981   2.723   5.773
22934WAT     H269045   6.819   2.731   5.788
22935WAT      O69046   6.655   5.416   5.104
22935WAT     H169047   6.673   5.422   5.202
22935WAT     H269048   6.557   5.427   5.088
22936WAT      O69049   6.304   2.048   7.577
22936WAT     H169050   6.366   2.001   7.640
22936WAT     H269051   6.330   2.145   7.572
22937WAT      O69052   8.970   7.237   5.346
22937WAT     H169053   8.987   7.304   5.418
22937WAT     H269054   9.007   7.271   5.259
22938WAT      O69055   2.047   5.654   4.659
22938WAT     H169056   1.966   5.597   4.672
22938WAT     H269057   2.021   5.740   4.615
22939WAT      O69058   8.420   5.509   2.409
22939WAT     H169059   8.490   5.580   2.405
22939WAT     H269060   8.333   5.545   2.377
22940WAT      O69061   6.960   1.046   1.904
22940WAT     H169062   7.058   1.027   1.902
22940WAT     H269063   6.941   1.116   1.973
22941WAT      O69064   7.073   6.814   4.889
22941WAT     H169065   7.166   6.793   4.918
22941WAT     H269066   7.038   6.740   4.830
22942WAT      O69067   2.415   6.935   9.787
22942WAT     H169068   2.391   6.997   9.861
22942WAT     H269069   2.361   6.956   9.705
22943WAT      O69070   6.080   0.833   6.082
22943WAT     H169071   6.150   0.773   6.119
22943WAT     H269072   5.994   0.821   6.133
22944WAT      O69073   0.722   5.356   8.924
22944WAT     H169074   0.639   5.370   8.870
22944WAT     H269075   0.770   5.275   8.891
22945WAT      O69076   9.209   1.153   0.688
22945WAT     H169077   9.296   1.185   0.724
22945WAT     H269078   9.139   1.223   0.702
22946WAT      O69079   4.656   2.856   1.405
22946WAT     H169080   4.613   2.780   1.356
22946WAT     H269081   4.689   2.824   1.494
22947WAT      O69082   2.230   1.108   6.870
22947WAT     H169083   2.171   1.126   6.791
22947WAT     H269084   2.185   1.045   6.932
22948WAT      O69085   3.357   3.779   0.970
22948WAT     H169086   3.297   3.786   1.049
22948WAT     H269087   3.421   3.855   0.970
22949WAT      O69088   2.752   5.783   3.387
22949WAT     H169089   2.716   5.855   3.446
22949WAT     H269090   2.746   5.695   3.435
22950WAT      O69091   1.047   1.699   7.596
22950WAT     H169092   0.970   1.704   7.660
22950WAT     H269093   1.064   1.789   7.557
22951WAT      O69094   3.211   9.031   9.041
22951WAT     H169095   3.271   9.106   9.070
22951WAT     H269096   3.134   9.068   8.989
22952WAT      O69097   6.803   8.482   1.588
22952WAT     H169098   6.782   8.574   1.621
22952WAT     H269099   6.885   8.484   1.531
22953WAT      O69100   0.047   6.343   0.767
22953WAT     H169101  -0.031   6.280   0.766
22953WAT     H269102   0.131   6.291   0.753
22954WAT      O69103   8.991   7.358   5.106
22954WAT     H169104   9.084   7.394   5.099
22954WAT     H269105   8.931   7.428   5.145
22955WAT      O69106   8.942   5.092   8.638
22955WAT     H169107   8.881   5.013   8.634
22955WAT     H269108   8.896   5.172   8.600
22956WAT      O69109   1.829   6.417   9.323
22956WAT     H169110   1.808   6.515   9.321
22956WAT     H269111   1.880   6.395   9.406
22957WAT      O69112   2.223   9.656   0.696
22957WAT     H169113   2.124   9.652   0.705
22957WAT     H269114   2.249   9.644   0.601
22958WAT      O69115   1.049   3.961   0.431
22958WAT     H169116   1.086   3.963   0.338
22958WAT     H269117   1.120   3.987   0.496
22959WAT      O69118   7.792   9.079   3.654
22959WAT     H169119   7.698   9.070   3.687
22959WAT     H269120   7.807   9.172   3.620
22960WAT      O69121   3.611   1.975   8.449
22960WAT     H169122   3.629   2.039   8.524
22960WAT     H269123   3.532   1.919   8.472
22961WAT      O69124   0.025   4.762   5.439
22961WAT     H169125   0.080   4.802   5.366
22961WAT     H269126  -0.068   4.799   5.435
22962WAT      O69127   2.545   4.828   7.948
22962WAT     H169128   2.625   4.880   7.978
22962WAT     H269129   2.551   4.812   7.850
22963WAT      O69130   0.651   4.930   9.795
22963WAT     H169131   0.578   4.871   9.759
22963WAT     H269132   0.665   5.007   9.733
22964WAT      O69133   0.205   7.639   9.671
22964WAT     H169134   0.229   7.644   9.574
22964WAT     H269135   0.275   7.686   9.724
22965WAT      O69136   5.455   9.546   3.488
22965WAT     H169137   5.523   9.522   3.557
22965WAT     H269138   5.452   9.646   3.477
22966WAT      O69139   8.737   2.472   5.282
22966WAT     H169140   8.729   2.511   5.374
22966WAT     H269141   8.832   2.474   5.253
22967WAT      O69142   1.585   3.763   7.488
22967WAT     H169143   1.565   3.800   7.579
22967WAT     H269144   1.601   3.838   7.424
22968WAT      O69145   3.088   5.923   0.594
22968WAT     H169146   3.123   5.868   0.669
22968WAT     H269147   2.988   5.920   0.594
22969WAT      O69148   7.783   4.266   5.614
22969WAT     H169149   7.809   4.296   5.706
22969WAT     H269150   7.853   4.204   5.578
22970WAT      O69151   8.550   2.212   0.709
22970WAT     H169152   8.463   2.164   0.699
22970WAT     H269153   8.620   2.148   0.739
22971WAT      O69154   1.553   6.098   7.311
22971WAT     H169155   1.461   6.119   7.278
22971WAT     H269156   1.578   6.161   7.384
22972WAT      O69157   3.243   7.858   0.494
22972WAT     H169158   3.174   7.909   0.546
22972WAT     H269159   3.282   7.786   0.552
22973WAT      O69160   2.751   7.102   8.612
22973WAT     H169161   2.746   7.073   8.708
22973WAT     H269162   2.838   7.148   8.595
22974WAT      O69163   8.352   0.799   4.343
22974WAT     H169164   8.258   0.793   4.376
22974WAT     H269165   8.415   0.777   4.418
22975WAT      O69166   5.209   5.894   7.307
22975WAT     H169167   5.283   5.900   7.373
22975WAT     H269168   5.187   5.798   7.290
22976WAT      O69169   0.861   0.237   7.985
22976WAT     H169170   0.799   0.179   7.931
22976WAT     H269171   0.808   0.288   8.053
22977WAT      O69172   5.603   4.382   5.452
22977WAT     H169173   5.550   4.298   5.460
22977WAT     H269174   5.542   4.457   5.428
22978WAT      O69175   2.604   2.684   5.410
22978WAT     H169176   2.644   2.713   5.497
22978WAT     H269177   2.677   2.672   5.343
22979WAT      O69178   3.643   0.407   0.074
22979WAT     H169179   3.603   0.427  -0.015
22979WAT     H269180   3.636   0.309   0.093
22980WAT      O69181   2.656   1.441   4.807
22980WAT     H169182   2.589   1.367   4.820
22980WAT     H269183   2.654   1.471   4.712
22981WAT      O69184   2.856   4.509   3.633
22981WAT     H169185   2.889   4.535   3.724
22981WAT     H269186   2.758   4.524   3.627
22982WAT      O69187   5.330   2.199   3.684
22982WAT     H169188   5.389   2.279   3.674
22982WAT     H269189   5.246   2.224   3.731
22983WAT      O69190   9.381   2.621   5.355
22983WAT     H169191   9.439   2.700   5.341
22983WAT     H269192   9.395   2.586   5.448
22984WAT      O69193   1.393   3.188   4.031
22984WAT     H169194   1.340   3.125   3.974
22984WAT     H269195   1.351   3.195   4.121
22985WAT      O69196   5.551   5.914   8.257
22985WAT     H169197   5.513   5.911   8.349
22985WAT     H269198   5.494   5.858   8.196
22986WAT      O69199   9.087   1.040   8.944
22986WAT     H169200   9.131   0.950   8.952
22986WAT     H269201   9.140   1.098   8.883
22987WAT      O69202   8.884   9.526   8.751
22987WAT     H169203   8.907   9.495   8.659
22987WAT     H269204   8.963   9.516   8.811
22988WAT      O69205   5.411   6.272   6.957
22988WAT     H169206   5.506   6.278   6.989
22988WAT     H269207   5.389   6.353   6.902
22989WAT      O69208   6.679   7.372   1.079
22989WAT     H169209   6.605   7.433   1.106
22989WAT     H269210   6.662   7.280   1.116
22990WAT      O69211   5.190   6.457   0.570
22990WAT     H169212   5.188   6.554   0.593
22990WAT     H269213   5.123   6.439   0.497
22991WAT      O69214   6.728   1.222   1.763
22991WAT     H169215   6.662   1.184   1.698
22991WAT     H269216   6.776   1.148   1.809
22992WAT      O69217   0.796   2.607   3.850
22992WAT     H169218   0.819   2.554   3.767
22992WAT     H269219   0.722   2.670   3.829
22993WAT      O69220   7.132   4.636   5.552
22993WAT     H169221   7.108   4.621   5.456
22993WAT     H269222   7.067   4.699   5.594
22994WAT      O69223   6.687   7.742   9.883
22994WAT     H169224   6.685   7.801   9.803
22994WAT     H269225   6.614   7.674   9.877
22995WAT      O69226   4.274   3.725   8.019
22995WAT     H169227   4.202   3.749   8.085
22995WAT     H269228   4.241   3.651   7.960
22996WAT      O69229   0.719   1.919   3.112
22996WAT     H169230   0.622   1.939   3.098
22996WAT     H269231   0.774   1.972   3.047
22997WAT      O69232   7.298   5.696   6.709
22997WAT     H169233   7.398   5.690   6.708
22997WAT     H269234   7.259   5.617   6.662
22998WAT      O69235   3.428   6.515   5.106
22998WAT     H169236   3.362   6.582   5.071
22998WAT     H269237   3.416   6.505   5.204
22999WAT      O69238   6.675   0.697   7.141
22999WAT     H169239   6.618   0.621   7.110
22999WAT     H269240   6.769   0.685   7.108
23000WAT      O69241   0.437   9.190   4.656
23000WAT     H169242   0.364   9.255   4.677
23000WAT     H269243   0.465   9.199   4.561
23001WAT      O69244   5.500   6.164   8.581
23001WAT     H169245   5.400   6.165   8.593
23001WAT     H269246   5.521   6.163   8.483
23002WAT      O69247   1.815   5.890   6.976
23002WAT     H169248   1.805   5.971   7.034
23002WAT     H269249   1.903   5.893   6.929
23003WAT      O69250   5.576   8.005   0.082
23003WAT     H169251   5.666   8.043   0.102
23003WAT     H269252   5.521   8.073   0.033
23004WAT      O69253   3.088   9.548   7.241
23004WAT     H169254   3.009   9.488   7.233
23004WAT     H269255   3.059   9.636   7.280
23005WAT      O69256   7.492   9.215   5.211
23005WAT     H169257   7.450   9.300   5.243
23005WAT     H269258   7.476   9.143   5.279
23006WAT      O69259   7.220   4.043   8.540
23006WAT     H169260   7.299   3.988   8.511
23006WAT     H269261   7.138   3.987   8.537
23007WAT      O69262   8.857   4.435   5.961
23007WAT     H169263   8.795   4.510   5.982
23007WAT     H269264   8.853   4.367   6.035
23008WAT      O69265   3.709   2.288   0.884
23008WAT     H169266   3.662   2.200   0.892
23008WAT     H269267   3.641   2.362   0.881
23009WAT      O69268   9.439   3.697   6.204
23009WAT     H169269   9.463   3.650   6.119
23009WAT     H269270   9.404   3.789   6.183
23010WAT      O69271   3.142   5.031   7.286
23010WAT     H169272   3.092   5.112   7.317
23010WAT     H269273   3.130   4.957   7.351
23011WAT      O69274   7.401   3.700   0.167
23011WAT     H169275   7.431   3.747   0.083
23011WAT     H269276   7.384   3.604   0.146
23012WAT      O69277   8.840   7.126   4.737
23012WAT     H169278   8.815   7.119   4.640
23012WAT     H269279   8.888   7.213   4.753
23013WAT      O69280   9.606   9.028   1.661
23013WAT     H169281   9.561   8.980   1.736
23013WAT     H269282   9.565   9.118   1.649
23014WAT      O69283   7.910   8.011   1.991
23014WAT     H169284   7.900   7.914   2.011
23014WAT     H269285   7.890   8.026   1.894
23015WAT      O69286   3.932   4.439   2.102
23015WAT     H169287   3.842   4.409   2.071
23015WAT     H269288   3.961   4.518   2.047
23016WAT      O69289   2.003   8.321   3.478
23016WAT     H169290   1.945   8.277   3.409
23016WAT     H269291   2.099   8.296   3.460
23017WAT      O69292   4.912   4.580   8.195
23017WAT     H169293   4.908   4.507   8.264
23017WAT     H269294   5.007   4.601   8.174
23018WAT      O69295   6.350   9.171   7.598
23018WAT     H169296   6.355   9.202   7.693
23018WAT     H269297   6.257   9.143   7.576
23019WAT      O69298   6.103   6.597   2.284
23019WAT     H169299   6.121   6.501   2.309
23019WAT     H269300   6.186   6.638   2.248
23020WAT      O69301   9.367   4.487   8.819
23020WAT     H169302   9.458   4.497   8.779
23020WAT     H269303   9.298   4.489   8.747
23021WAT      O69304   1.053   8.373   9.103
23021WAT     H169305   0.990   8.372   9.180
23021WAT     H269306   1.077   8.468   9.081
23022WAT      O69307   7.173   8.741   6.203
23022WAT     H169308   7.254   8.764   6.257
23022WAT     H269309   7.155   8.643   6.209
23023WAT      O69310   1.706   6.939   3.352
23023WAT     H169311   1.675   6.843   3.347
23023WAT     H269312   1.667   6.983   3.432
23024WAT      O69313   7.324   5.185   1.099
23024WAT     H169314   7.265   5.256   1.138
23024WAT     H269315   7.379   5.144   1.171
23025WAT      O69316   4.721   1.020   2.055
23025WAT     H169317   4.774   0.956   2.110
23025WAT     H269318   4.769   1.040   1.969
23026WAT      O69319   2.414   0.898   6.824
23026WAT     H169320   2.371   0.979   6.865
23026WAT     H269321   2.393   0.895   6.726
23027WAT      O69322   0.265   7.700   8.437
23027WAT     H169323   0.322   7.753   8.500
23027WAT     H269324   0.321   7.663   8.363
23028WAT      O69325   2.348   5.080   1.933
23028WAT     H169326   2.387   5.096   1.843
23028WAT     H269327   2.360   4.984   1.957
23029WAT      O69328   8.619   2.079   3.963
23029WAT     H169329   8.689   2.102   3.895
23029WAT     H269330   8.589   1.984   3.950
23030WAT      O69331   4.022   9.711   5.733
23030WAT     H169332   3.959   9.786   5.712
23030WAT     H269333   3.986   9.626   5.697
23031WAT      O69334   6.834   3.677   8.244
23031WAT     H169335   6.758   3.715   8.192
23031WAT     H269336   6.920   3.711   8.206
23032WAT      O69337   0.700   9.712   9.219
23032WAT     H169338   0.701   9.705   9.120
23032WAT     H269339   0.791   9.738   9.252
23033WAT      O69340   0.177   0.810   6.665
23033WAT     H169341   0.181   0.856   6.576
23033WAT     H269342   0.239   0.731   6.665
23034WAT      O69343   8.405   0.188   1.477
23034WAT     H169344   8.325   0.163   1.423
23034WAT     H269345   8.486   0.140   1.443
23035WAT      O69346   6.957   9.338   2.695
23035WAT     H169347   6.932   9.431   2.721
23035WAT     H269348   7.021   9.340   2.619
23036WAT      O69349   8.772   2.578   0.603
23036WAT     H169350   8.764   2.533   0.692
23036WAT     H269351   8.748   2.675   0.612
23037WAT      O69352   8.900   2.619   2.942
23037WAT     H169353   8.873   2.538   2.890
23037WAT     H269354   8.818   2.672   2.966
23038WAT      O69355   2.117   9.419   0.801
23038WAT     H169356   2.104   9.500   0.859
23038WAT     H269357   2.153   9.447   0.712
23039WAT      O69358   8.901   1.680   0.454
23039WAT     H169359   8.972   1.749   0.453
23039WAT     H269360   8.939   1.592   0.426
23040WAT      O69361   7.305   8.057   0.721
23040WAT     H169362   7.348   8.041   0.633
23040WAT     H269363   7.310   8.154   0.744
23041WAT      O69364   4.163   3.801   3.446
23041WAT     H169365   4.252   3.758   3.429
23041WAT     H269366   4.098   3.732   3.477
23042WAT      O69367   7.795   8.513   3.355
23042WAT     H169368   7.771   8.594   3.409
23042WAT     H269369   7.868   8.537   3.290
23043WAT      O69370   3.209   4.375   1.669
23043WAT     H169371   3.262   4.297   1.700
23043WAT     H269372   3.266   4.435   1.613
23044WAT      O69373   3.265   8.487   5.539
23044WAT     H169374   3.189   8.441   5.494
23044WAT     H269375   3.338   8.421   5.558
23045WAT      O69376   8.542   8.737   1.809
23045WAT     H169377   8.444   8.717   1.810
23045WAT     H269378   8.588   8.673   1.748
23046WAT      O69379   0.548   2.712   7.989
23046WAT     H169380   0.452   2.735   7.980
23046WAT     H269381   0.557   2.618   8.022
23047WAT      O69382   2.292   2.556   6.970
23047WAT     H169383   2.247   2.514   6.891
23047WAT     H269384   2.224   2.580   7.039
23048WAT      O69385   2.091   3.491   1.707
23048WAT     H169386   2.087   3.430   1.627
23048WAT     H269387   2.173   3.547   1.702
23049WAT      O69388   7.068   3.784   0.335
23049WAT     H169389   7.112   3.870   0.309
23049WAT     H269390   7.131   3.729   0.390
23050WAT      O69391   7.218   5.169   2.209
23050WAT     H169392   7.286   5.102   2.236
23050WAT     H269393   7.178   5.143   2.121
23051WAT      O69394   7.303   2.911   0.410
23051WAT     H169395   7.381   2.930   0.469
23051WAT     H269396   7.218   2.924   0.461
23052WAT      O69397   6.108   6.533   3.672
23052WAT     H169398   6.048   6.454   3.692
23052WAT     H269399   6.058   6.617   3.689
23053WAT      O69400   9.243   3.020   5.537
23053WAT     H169401   9.294   3.001   5.621
23053WAT     H269402   9.262   3.113   5.507
23054WAT      O69403   6.138   9.506   4.694
23054WAT     H169404   6.174   9.456   4.773
23054WAT     H269405   6.139   9.604   4.714
23055WAT      O69406   0.318   8.479   8.510
23055WAT     H169407   0.342   8.389   8.545
23055WAT     H269408   0.277   8.469   8.419
23056WAT      O69409   7.141   9.786   5.392
23056WAT     H169410   7.238   9.765   5.399
23056WAT     H269411   7.129   9.879   5.356
23057WAT      O69412   3.205   2.239   0.903
23057WAT     H169413   3.209   2.329   0.946
23057WAT     H269414   3.272   2.234   0.829
23058WAT      O69415   9.864   6.278   2.650
23058WAT     H169416   9.769   6.307   2.642
23058WAT     H269417   9.894   6.284   2.745
23059WAT      O69418   4.313   4.213   8.558
23059WAT     H169419   4.359   4.295   8.591
23059WAT     H269420   4.254   4.176   8.630
23060WAT      O69421   5.810   9.235   0.285
23060WAT     H169422   5.841   9.184   0.204
23060WAT     H269423   5.821   9.177   0.366
23061WAT      O69424   3.512   9.247   7.385
23061WAT     H169425   3.609   9.271   7.383
23061WAT     H269426   3.460   9.321   7.426
23062WAT      O69427   5.893   5.289   1.044
23062WAT     H169428   5.865   5.225   0.973
23062WAT     H269429   5.816   5.303   1.107
23063WAT      O69430   2.926   2.368   8.208
23063WAT     H169431   3.021   2.393   8.225
23063WAT     H269432   2.891   2.316   8.286
23064WAT      O69433   7.191   0.313   1.851
23064WAT     H169434   7.156   0.346   1.939
23064WAT     H269435   7.127   0.336   1.778
23065WAT      O69436   7.924   2.275   2.993
23065WAT     H169437   7.837   2.280   3.042
23065WAT     H269438   7.948   2.179   2.977
23066WAT      O69439   6.212   4.341   2.038
23066WAT     H169440   6.190   4.256   2.087
23066WAT     H269441   6.302   4.373   2.066
23067WAT      O69442   5.380   7.323   9.023
23067WAT     H169443   5.320   7.342   9.101
23067WAT     H269444   5.446   7.397   9.012
23068WAT      O69445   5.102   7.874   7.323
23068WAT     H169446   5.175   7.901   7.261
23068WAT     H269447   5.111   7.778   7.347
23069WAT      O69448   5.775   7.349   4.458
23069WAT     H169449   5.856   7.345   4.399
23069WAT     H269450   5.708   7.282   4.426
23070WAT      O69451   8.186   1.743   6.637
23070WAT     H169452   8.196   1.668   6.701
23070WAT     H269453   8.148   1.823   6.685
23071WAT      O69454   2.814   1.834   2.628
23071WAT     H169455   2.728   1.794   2.596
23071WAT     H269456   2.849   1.898   2.560
23072WAT      O69457   4.237   6.863   4.171
23072WAT     H169458   4.311   6.829   4.112
23072WAT     H269459   4.275   6.899   4.256
23073WAT      O69460   3.376   7.552   4.430
23073WAT     H169461   3.322   7.490   4.373
23073WAT     H269462   3.464   7.510   4.452
23074WAT      O69463   5.978   3.759   4.511
23074WAT     H169464   5.946   3.852   4.496
23074WAT     H269465   6.012   3.749   4.604
23075WAT      O69466   1.349   3.729   6.239
23075WAT     H169467   1.257   3.700   6.265
23075WAT     H269468   1.374   3.686   6.152
23076WAT      O69469   3.370   6.562   5.373
23076WAT     H169470   3.363   6.495   5.447
23076WAT     H269471   3.457   6.610   5.380
23077WAT      O69472   5.864   0.211   9.709
23077WAT     H169473   5.862   0.264   9.794
23077WAT     H269474   5.772   0.176   9.689
23078WAT      O69475   3.831   1.681   6.780
23078WAT     H169476   3.775   1.747   6.830
23078WAT     H269477   3.927   1.695   6.803
23079WAT      O69478   4.664   3.916   7.760
23079WAT     H169479   4.685   3.834   7.707
23079WAT     H269480   4.695   3.997   7.710
23080WAT      O69481   0.413   8.058   6.958
23080WAT     H169482   0.313   8.061   6.951
23080WAT     H269483   0.452   8.140   6.917
23081WAT      O69484   3.888   2.830   3.513
23081WAT     H169485   3.955   2.774   3.465
23081WAT     H269486   3.934   2.888   3.581
23082WAT      O69487   9.316   3.228   9.207
23082WAT     H169488   9.388   3.247   9.272
23082WAT     H269489   9.281   3.314   9.169
23083WAT      O69490   1.803   5.475   3.909
23083WAT     H169491   1.832   5.512   3.821
23083WAT     H269492   1.786   5.377   3.900
23084WAT      O69493   3.382   6.191   3.176
23084WAT     H169494   3.464   6.247   3.190
23084WAT     H269495   3.395   6.132   3.096
23085WAT      O69496   0.369   9.045   8.405
23085WAT     H169497   0.285   8.993   8.389
23085WAT     H269498   0.412   9.012   8.490
23086WAT      O69499   4.666   3.446   1.205
23086WAT     H169500   4.751   3.462   1.255
23086WAT     H269501   4.617   3.368   1.245
23087WAT      O69502   0.013   4.764   9.721
23087WAT     H169503  -0.058   4.702   9.688
23087WAT     H269504  -0.014   4.858   9.701
23088WAT      O69505   9.473   3.376   2.471
23088WAT     H169506   9.444   3.281   2.475
23088WAT     H269507   9.414   3.426   2.407
23089WAT      O69508   9.495   3.249   1.978
23089WAT     H169509   9.526   3.237   2.073
23089WAT     H269510   9.535   3.177   1.921
23090WAT      O69511   3.811   5.997   3.282
23090WAT     H169512   3.810   5.993   3.182
23090WAT     H269513   3.718   5.984   3.317
23091WAT      O69514   2.833   8.246   2.748
23091WAT     H169515   2.857   8.327   2.802
23091WAT     H269516   2.735   8.229   2.756
23092WAT      O69517   4.574   0.199   9.254
23092WAT     H169518   4.481   0.163   9.248
23092WAT     H269519   4.598   0.247   9.169
23093WAT      O69520   7.785   1.199   0.975
23093WAT     H169521   7.861   1.138   0.951
23093WAT     H269522   7.729   1.216   0.893
23094WAT      O69523   7.302   2.926   2.394
23094WAT     H169524   7.363   2.864   2.444
23094WAT     H269525   7.299   3.014   2.441
23095WAT      O69526   2.848   4.480   5.641
23095WAT     H169527   2.896   4.393   5.648
23095WAT     H269528   2.804   4.487   5.551
23096WAT      O69529   5.563   7.315   7.041
23096WAT     H169530   5.470   7.279   7.038
23096WAT     H269531   5.629   7.240   7.035
23097WAT      O69532   8.333   9.593   3.867
23097WAT     H169533   8.339   9.504   3.821
23097WAT     H269534   8.237   9.618   3.879
23098WAT      O69535   9.857   0.717   7.674
23098WAT     H169536   9.825   0.653   7.603
23098WAT     H269537   9.907   0.792   7.631
23099WAT      O69538   5.191   4.614   7.847
23099WAT     H169539   5.122   4.683   7.867
23099WAT     H269540   5.225   4.626   7.754
23100WAT      O69541   5.768   0.020   8.793
23100WAT     H169542   5.706  -0.019   8.724
23100WAT     H269543   5.716   0.079   8.855
23101WAT      O69544   0.651   5.816   3.483
23101WAT     H169545   0.629   5.905   3.524
23101WAT     H269546   0.697   5.759   3.552
23102WAT      O69547   2.163   8.755   8.481
23102WAT     H169548   2.173   8.854   8.481
23102WAT     H269549   2.066   8.731   8.475
23103WAT      O69550   1.926   5.640   4.238
23103WAT     H169551   1.908   5.552   4.194
23103WAT     H269552   2.025   5.650   4.253
23104WAT      O69553   1.864   7.169   1.404
23104WAT     H169554   1.824   7.152   1.495
23104WAT     H269555   1.958   7.135   1.403
23105WAT      O69556   3.991   1.488   4.925
23105WAT     H169557   3.934   1.426   4.979
23105WAT     H269558   3.932   1.549   4.873
23106WAT      O69559   8.319   0.776   7.279
23106WAT     H169560   8.356   0.708   7.215
23106WAT     H269561   8.241   0.822   7.237
23107WAT      O69562   1.979   3.311   4.863
23107WAT     H169563   2.053   3.376   4.884
23107WAT     H269564   1.999   3.264   4.778
23108WAT      O69565   7.944   1.278   4.205
23108WAT     H169566   7.911   1.195   4.160
23108WAT     H269567   7.871   1.317   4.261
23109WAT      O69568   8.955   2.561   0.067
23109WAT     H169569   9.030   2.617   0.032
23109WAT     H269570   8.991   2.490   0.126
23110WAT      O69571   0.670   2.816   3.265
23110WAT     H169572   0.650   2.809   3.168
23110WAT     H269573   0.587   2.796   3.318
23111WAT      O69574   4.524   3.660   4.807
23111WAT     H169575   4.482   3.599   4.740
23111WAT     H269576   4.568   3.736   4.759
23112WAT      O69577   2.104   0.653   4.237
23112WAT     H169578   2.193   0.659   4.192
23112WAT     H269579   2.109   0.699   4.326
23113WAT      O69580   4.922   6.026   2.781
23113WAT     H169581   4.958   6.064   2.866
23113WAT     H269582   4.996   6.014   2.715
23114WAT      O69583   6.506   0.261   6.584
23114WAT     H169584   6.434   0.224   6.525
23114WAT     H269585   6.577   0.303   6.528
23115WAT      O69586   0.769   9.570   4.297
23115WAT     H169587   0.869   9.566   4.294
23115WAT     H269588   0.739   9.587   4.390
23116WAT      O69589   7.228   8.202   9.003
23116WAT     H169590   7.314   8.154   9.021
23116WAT     H269591   7.151   8.142   9.025
23117WAT      O69592   1.881   8.095   5.775
23117WAT     H169593   1.966   8.076   5.726
23117WAT     H269594   1.804   8.089   5.712
23118WAT      O69595   1.895   2.952   4.824
23118WAT     H169596   1.813   2.936   4.878
23118WAT     H269597   1.976   2.944   4.882
23119WAT      O69598   8.010   8.934   7.359
23119WAT     H169599   8.032   8.943   7.262
23119WAT     H269600   8.071   8.993   7.413
23120WAT      O69601   3.490   8.721   5.227
23120WAT     H169602   3.426   8.683   5.294
23120WAT     H269603   3.552   8.648   5.196
23121WAT      O69604   7.529   5.033   6.189
23121WAT     H169605   7.510   5.131   6.182
23121WAT     H269606   7.605   5.009   6.129
23122WAT      O69607   0.311   5.435   2.350
23122WAT     H169608   0.355   5.492   2.281
23122WAT     H269609   0.344   5.460   2.441
23123WAT      O69610   6.094   1.377   3.592
23123WAT     H169611   6.150   1.412   3.517
23123WAT     H269612   6.133   1.407   3.679
23124WAT      O69613   3.552   0.962   1.454
23124WAT     H169614   3.625   0.893   1.456
23124WAT     H269615   3.535   0.995   1.547
23125WAT      O69616   2.057   6.246   0.112
23125WAT     H169617   2.116   6.239   0.032
23125WAT     H269618   2.002   6.329   0.106
23126WAT      O69619   5.919   0.982   2.228
23126WAT     H169620   5.831   1.011   2.191
23126WAT     H269621   5.916   0.986   2.328
23127WAT      O69622   7.069   7.723   9.419
23127WAT     H169623   7.167   7.727   9.403
23127WAT     H269624   7.049   7.751   9.513
23128WAT      O69625   7.257   1.901   9.788
23128WAT     H169626   7.172   1.848   9.791
23128WAT     H269627   7.257   1.967   9.863
23129WAT      O69628   2.344   3.500   0.587
23129WAT     H169629   2.250   3.477   0.563
23129WAT     H269630   2.406   3.434   0.546
23130WAT      O69631   1.255   4.316   0.433
23130WAT     H169632   1.297   4.267   0.357
23130WAT     H269633   1.197   4.389   0.398
23131WAT      O69634   8.569   7.216   6.584
23131WAT     H169635   8.542   7.299   6.536
23131WAT     H269636   8.523   7.137   6.543
23132WAT      O69637   5.166   0.931   0.526
23132WAT     H169638   5.237   0.940   0.456
23132WAT     H269639   5.090   0.992   0.504
23133WAT      O69640   5.627   2.557   2.045
23133WAT     H169641   5.649   2.486   2.111
23133WAT     H269642   5.621   2.645   2.092
23134WAT      O69643   0.054   6.026   9.118
23134WAT     H169644  -0.009   6.043   9.194
23134WAT     H269645   0.043   5.933   9.085
23135WAT      O69646   6.044   5.529   8.037
23135WAT     H169647   6.092   5.470   8.102
23135WAT     H269648   6.043   5.623   8.071
23136WAT      O69649   1.843   5.551   8.705
23136WAT     H169650   1.773   5.504   8.652
23136WAT     H269651   1.813   5.644   8.724
23137WAT      O69652   1.843   7.281   0.892
23137WAT     H169653   1.773   7.209   0.901
23137WAT     H269654   1.927   7.241   0.855
23138WAT      O69655   7.263   4.930   4.336
23138WAT     H169656   7.271   5.029   4.349
23138WAT     H269657   7.280   4.884   4.423
23139WAT      O69658   4.146   6.542   6.209
23139WAT     H169659   4.188   6.592   6.284
23139WAT     H269660   4.083   6.473   6.245
23140WAT      O69661   7.909   6.313   9.260
23140WAT     H169662   7.837   6.372   9.295
23140WAT     H269663   7.879   6.270   9.175
23141WAT      O69664   0.531   3.320   8.924
23141WAT     H169665   0.629   3.307   8.911
23141WAT     H269666   0.506   3.294   9.018
23142WAT      O69667   0.719   6.641   4.460
23142WAT     H169668   0.753   6.639   4.366
23142WAT     H269669   0.718   6.735   4.494
23143WAT      O69670   3.077   5.222   5.383
23143WAT     H169671   3.039   5.229   5.290
23143WAT     H269672   3.028   5.283   5.444
23144WAT      O69673   4.791   5.278   0.211
23144WAT     H169674   4.813   5.239   0.300
23144WAT     H269675   4.831   5.370   0.204
23145WAT      O69676   5.425   8.260   2.589
23145WAT     H169677   5.431   8.251   2.490
23145WAT     H269678   5.395   8.353   2.612
23146WAT      O69679   8.818   5.920   0.317
23146WAT     H169680   8.826   5.847   0.385
23146WAT     H269681   8.796   6.006   0.362
23147WAT      O69682   4.174   6.578   6.845
23147WAT     H169683   4.162   6.671   6.812
23147WAT     H269684   4.085   6.537   6.862
23148WAT      O69685   9.199   4.828   8.927
23148WAT     H169686   9.144   4.898   8.973
23148WAT     H269687   9.150   4.795   8.846
23149WAT      O69688   4.399   8.160   8.035
23149WAT     H169689   4.424   8.190   7.943
23149WAT     H269690   4.383   8.240   8.092
23150WAT      O69691   0.715   4.418   8.938
23150WAT     H169692   0.788   4.409   9.006
23150WAT     H269693   0.626   4.421   8.984
23151WAT      O69694   6.153   9.294   5.253
23151WAT     H169695   6.068   9.247   5.276
23151WAT     H269696   6.141   9.343   5.166
23152WAT      O69697   4.396   7.119   8.195
23152WAT     H169698   4.351   7.140   8.282
23152WAT     H269699   4.334   7.141   8.120
23153WAT      O69700   4.309   4.712   7.037
23153WAT     H169701   4.355   4.737   7.122
23153WAT     H269702   4.316   4.788   6.972
23154WAT      O69703   6.082   8.446   7.657
23154WAT     H169704   6.140   8.392   7.717
23154WAT     H269705   6.105   8.426   7.561
23155WAT      O69706   5.587   3.778   9.599
23155WAT     H169707   5.540   3.719   9.534
23155WAT     H269708   5.538   3.776   9.687
23156WAT      O69709   9.585   7.431   6.257
23156WAT     H169710   9.568   7.521   6.219
23156WAT     H269711   9.677   7.400   6.232
23157WAT      O69712   6.588   0.190   8.674
23157WAT     H169713   6.549   0.240   8.596
23157WAT     H269714   6.646   0.251   8.728
23158WAT      O69715   8.550   3.567   5.156
23158WAT     H169716   8.463   3.594   5.196
23158WAT     H269717   8.562   3.468   5.165
23159WAT      O69718   9.540   0.268   8.725
23159WAT     H169719   9.506   0.224   8.808
23159WAT     H269720   9.539   0.367   8.737
23160WAT      O69721   9.765   4.995   9.704
23160WAT     H169722   9.718   5.037   9.782
23160WAT     H269723   9.765   5.058   9.627
23161WAT      O69724   1.101   1.699   8.379
23161WAT     H169725   1.131   1.651   8.461
23161WAT     H269726   1.001   1.706   8.379
23162WAT      O69727   1.904   9.553   0.315
23162WAT     H169728   1.815   9.574   0.274
23162WAT     H269729   1.923   9.618   0.388
23163WAT      O69730   9.343   3.522   7.793
23163WAT     H169731   9.335   3.607   7.844
23163WAT     H269732   9.316   3.538   7.698
23164WAT      O69733   3.497   2.602   3.988
23164WAT     H169734   3.427   2.672   4.007
23164WAT     H269735   3.585   2.646   3.974
23165WAT      O69736   7.023   3.568   5.226
23165WAT     H169737   7.047   3.658   5.190
23165WAT     H269738   6.949   3.578   5.293
23166WAT      O69739   8.825   4.137   0.621
23166WAT     H169740   8.787   4.050   0.588
23166WAT     H269741   8.918   4.122   0.653
23167WAT      O69742   0.218   1.842   0.423
23167WAT     H169743   0.197   1.761   0.368
23167WAT     H269744   0.204   1.924   0.369
23168WAT      O69745   4.792   4.016   4.261
23168WAT     H169746   4.749   3.959   4.191
23168WAT     H269747   4.765   3.983   4.352
23169WAT      O69748   6.355   9.435   6.375
23169WAT     H169749   6.277   9.476   6.328
23169WAT     H269750   6.440   9.475   6.339
23170WAT      O69751   5.188   2.732   0.640
23170WAT     H169752   5.211   2.830   0.645
23170WAT     H269753   5.189   2.693   0.732
23171WAT      O69754   8.813   5.902   2.426
23171WAT     H169755   8.902   5.920   2.383
23171WAT     H269756   8.747   5.874   2.357
23172WAT      O69757   5.796   3.166   1.090
23172WAT     H169758   5.749   3.247   1.125
23172WAT     H269759   5.755   3.138   1.003
23173WAT      O69760   8.345   5.884   1.463
23173WAT     H169761   8.405   5.963   1.461
23173WAT     H269762   8.339   5.845   1.371
23174WAT      O69763   0.401   3.142   9.870
23174WAT     H169764   0.474   3.208   9.887
23174WAT     H269765   0.375   3.099   9.956
23175WAT      O69766   2.294   8.541   9.438
23175WAT     H169767   2.278   8.443   9.426
23175WAT     H269768   2.380   8.555   9.486
23176WAT      O69769   4.315   8.953   7.557
23176WAT     H169770   4.227   8.909   7.542
23176WAT     H269771   4.336   8.953   7.655
23177WAT      O69772   9.651   7.895   3.253
23177WAT     H169773   9.578   7.828   3.264
23177WAT     H269774   9.657   7.951   3.336
23178WAT      O69775   1.550   9.323   0.621
23178WAT     H169776   1.572   9.330   0.718
23178WAT     H269777   1.474   9.385   0.599
23179WAT      O69778   0.702   3.225   1.144
23179WAT     H169779   0.786   3.176   1.120
23179WAT     H269780   0.713   3.322   1.123
23180WAT      O69781   0.060   7.769   5.036
23180WAT     H169782   0.078   7.672   5.022
23180WAT     H269783  -0.001   7.803   4.964
23181WAT      O69784   1.147   8.939   6.043
23181WAT     H169785   1.138   8.949   6.142
23181WAT     H269786   1.184   9.023   6.004
23182WAT      O69787   9.623   8.217   5.473
23182WAT     H169788   9.575   8.184   5.392
23182WAT     H269789   9.603   8.314   5.487
23183WAT      O69790   6.274   6.188   8.384
23183WAT     H169791   6.206   6.116   8.394
23183WAT     H269792   6.310   6.187   8.291
23184WAT      O69793   0.774   0.495   1.667
23184WAT     H169794   0.795   0.587   1.635
23184WAT     H269795   0.809   0.428   1.602
23185WAT      O69796   3.771   4.403   6.106
23185WAT     H169797   3.709   4.338   6.148
23185WAT     H269798   3.816   4.361   6.027
23186WAT      O69799   3.246   5.014   5.191
23186WAT     H169800   3.336   4.983   5.161
23186WAT     H269801   3.254   5.056   5.281
23187WAT      O69802   6.204   9.276   0.273
23187WAT     H169803   6.238   9.339   0.343
23187WAT     H269804   6.190   9.186   0.313
23188WAT      O69805   0.146   5.891   0.600
23188WAT     H169806   0.177   5.985   0.617
23188WAT     H269807   0.116   5.850   0.686
23189WAT      O69808   3.759   4.943   4.962
23189WAT     H169809   3.775   4.997   5.045
23189WAT     H269810   3.704   4.996   4.897
23190WAT      O69811   1.345   8.641   3.691
23190WAT     H169812   1.357   8.678   3.783
23190WAT     H269813   1.318   8.545   3.698
23191WAT      O69814   6.411   3.228   3.971
23191WAT     H169815   6.388   3.176   3.889
23191WAT     H269816   6.461   3.310   3.945
23192WAT      O69817   1.020   0.993   4.618
23192WAT     H169818   0.961   1.073   4.606
23192WAT     H269819   1.005   0.930   4.542
23193WAT      O69820   4.691   4.899   4.418
23193WAT     H169821   4.689   4.800   4.400
23193WAT     H269822   4.758   4.918   4.489
23194WAT      O69823   2.902   2.278   8.685
23194WAT     H169824   2.933   2.370   8.705
23194WAT     H269825   2.802   2.273   8.695
23195WAT      O69826   5.301   8.423   5.452
23195WAT     H169827   5.328   8.502   5.399
23195WAT     H269828   5.267   8.453   5.542
23196WAT      O69829   5.935   5.621   5.687
23196WAT     H169830   5.877   5.585   5.614
23196WAT     H269831   6.018   5.659   5.647
23197WAT      O69832   9.051   5.386   4.685
23197WAT     H169833   9.021   5.359   4.593
23197WAT     H269834   8.971   5.399   4.743
23198WAT      O69835   4.597   4.403   5.528
23198WAT     H169836   4.659   4.404   5.449
23198WAT     H269837   4.606   4.488   5.579
23199WAT      O69838   1.987   9.258   6.969
23199WAT     H169839   2.054   9.261   6.895
23199WAT     H269840   2.006   9.181   7.029
23200WAT      O69841   3.972   0.679   4.958
23200WAT     H169842   4.004   0.756   4.903
23200WAT     H269843   3.885   0.645   4.921
23201WAT      O69844   2.996   4.623   7.244
23201WAT     H169845   3.086   4.640   7.283
23201WAT     H269846   2.999   4.538   7.190
23202WAT      O69847   6.451   8.066   1.989
23202WAT     H169848   6.499   8.084   1.903
23202WAT     H269849   6.389   8.142   2.009
23203WAT      O69850   6.072   5.042   5.253
23203WAT     H169851   6.028   4.965   5.300
23203WAT     H269852   6.134   5.089   5.317
23204WAT      O69853   9.633   0.699   9.680
23204WAT     H169854   9.696   0.770   9.651
23204WAT     H269855   9.596   0.652   9.600
23205WAT      O69856   3.136   5.301   7.551
23205WAT     H169857   3.166   5.395   7.569
23205WAT     H269858   3.047   5.286   7.593
23206WAT      O69859   5.109   1.295   8.146
23206WAT     H169860   5.065   1.234   8.080
23206WAT     H269861   5.115   1.387   8.108
23207WAT      O69862   0.487   7.026   1.578
23207WAT     H169863   0.585   7.045   1.566
23207WAT     H269864   0.456   7.068   1.662
23208WAT      O69865   4.918   1.762   5.744
23208WAT     H169866   4.826   1.790   5.717
23208WAT     H269867   4.916   1.667   5.775
23209WAT      O69868   7.468   7.511   8.548
23209WAT     H169869   7.483   7.566   8.467
23209WAT     H269870   7.551   7.458   8.569
23210WAT      O69871   5.148   5.928   1.063
23210WAT     H169872   5.159   5.874   1.147
23210WAT     H269873   5.052   5.927   1.035
23211WAT      O69874   2.556   0.181   7.334
23211WAT     H169875   2.623   0.120   7.375
23211WAT     H269876   2.528   0.145   7.245
23212WAT      O69877   6.875   6.728   3.136
23212WAT     H169878   6.790   6.677   3.124
23212WAT     H269879   6.914   6.706   3.226
23213WAT      O69880   9.170   9.303   2.628
23213WAT     H169881   9.230   9.268   2.700
23213WAT     H269882   9.107   9.230   2.599
23214WAT      O69883   6.744   2.424   9.321
23214WAT     H169884   6.816   2.381   9.267
23214WAT     H269885   6.656   2.381   9.301
23215WAT      O69886   1.796   1.731   2.141
23215WAT     H169887   1.884   1.774   2.124
23215WAT     H269888   1.808   1.632   2.152
23216WAT      O69889   3.618   6.770   2.645
23216WAT     H169890   3.637   6.766   2.743
23216WAT     H269891   3.635   6.862   2.611
23217WAT      O69892   2.116   8.233   2.546
23217WAT     H169893   2.160   8.173   2.612
23217WAT     H269894   2.032   8.191   2.513
23218WAT      O69895   7.812   8.348   6.596
23218WAT     H169896   7.860   8.318   6.513
23218WAT     H269897   7.873   8.405   6.651
23219WAT      O69898   6.134   0.364   7.650
23219WAT     H169899   6.173   0.452   7.624
23219WAT     H269900   6.050   0.378   7.703
23220WAT      O69901   9.147   4.014   8.890
23220WAT     H169902   9.065   3.993   8.944
23220WAT     H269903   9.121   4.061   8.806
23221WAT      O69904   8.712   5.309   3.158
23221WAT     H169905   8.753   5.312   3.249
23221WAT     H269906   8.768   5.251   3.098
23222WAT      O69907   0.729   8.313   4.097
23222WAT     H169908   0.719   8.409   4.069
23222WAT     H269909   0.774   8.309   4.186
23223WAT      O69910   6.023   5.229   2.715
23223WAT     H169911   6.087   5.283   2.661
23223WAT     H269912   6.045   5.238   2.812
23224WAT      O69913   1.662   8.580   3.498
23224WAT     H169914   1.753   8.590   3.459
23224WAT     H269915   1.596   8.629   3.441
23225WAT      O69916   3.291   5.443   1.929
23225WAT     H169917   3.198   5.423   1.896
23225WAT     H269918   3.357   5.397   1.870
23226WAT      O69919   7.596   9.100   9.562
23226WAT     H169920   7.640   9.182   9.598
23226WAT     H269921   7.589   9.031   9.635
23227WAT      O69922   8.011   6.728   9.367
23227WAT     H169923   7.998   6.795   9.441
23227WAT     H269924   7.929   6.725   9.310
23228WAT      O69925   0.446   4.971   3.335
23228WAT     H169926   0.372   5.036   3.321
23228WAT     H269927   0.410   4.891   3.384
23229WAT      O69928   0.102   3.750   7.564
23229WAT     H169929   0.047   3.798   7.633
23229WAT     H269930   0.093   3.651   7.578
23230WAT      O69931   7.880   2.430   5.703
23230WAT     H169932   7.864   2.492   5.626
23230WAT     H269933   7.792   2.401   5.740
23231WAT      O69934   1.127   9.657   0.337
23231WAT     H169935   1.060   9.676   0.409
23231WAT     H269936   1.088   9.592   0.271
23232WAT      O69937   1.498   3.543   3.622
23232WAT     H169938   1.461   3.620   3.570
23232WAT     H269939   1.527   3.575   3.712
23233WAT      O69940   8.062   1.329   2.337
23233WAT     H169941   8.096   1.279   2.417
23233WAT     H269942   7.987   1.390   2.366
23234WAT      O69943   2.717   1.009   5.440
23234WAT     H169944   2.713   0.976   5.534
23234WAT     H269945   2.732   1.108   5.440
23235WAT      O69946   6.984   1.489   2.355
23235WAT     H169947   6.951   1.401   2.390
23235WAT     H269948   7.076   1.477   2.318
23236WAT      O69949   8.573   5.706   4.398
23236WAT     H169950   8.523   5.622   4.419
23236WAT     H269951   8.614   5.699   4.307
23237WAT      O69952   7.954   5.193   1.067
23237WAT     H169953   8.011   5.269   1.097
23237WAT     H269954   7.910   5.151   1.146
23238WAT      O69955   8.878   3.043   5.414
23238WAT     H169956   8.958   2.987   5.394
23238WAT     H269957   8.906   3.138   5.425
23239WAT      O69958   1.452   1.776   0.080
23239WAT     H169959   1.371   1.739   0.035
23239WAT     H269960   1.424   1.842   0.151
23240WAT      O69961   3.497   4.113   0.724
23240WAT     H169962   3.526   4.185   0.661
23240WAT     H269963   3.398   4.118   0.737
23241WAT      O69964   4.333   6.411   9.578
23241WAT     H169965   4.350   6.331   9.520
23241WAT     H269966   4.418   6.437   9.624
23242WAT      O69967   8.707   1.909   2.828
23242WAT     H169968   8.695   1.821   2.781
23242WAT     H269969   8.693   1.896   2.926
23243WAT      O69970   7.027   7.150   1.580
23243WAT     H169971   7.083   7.173   1.500
23243WAT     H269972   7.001   7.233   1.628
23244WAT      O69973   7.599   4.006   2.252
23244WAT     H169974   7.537   3.936   2.287
23244WAT     H269975   7.545   4.078   2.208
23245WAT      O69976   2.281   5.709   3.201
23245WAT     H169977   2.366   5.746   3.163
23245WAT     H269978   2.271   5.738   3.296
23246WAT      O69979   7.926   8.167   4.746
23246WAT     H169980   7.963   8.222   4.821
23246WAT     H269981   7.948   8.071   4.761
23247WAT      O69982   7.417   5.788   5.946
23247WAT     H169983   7.452   5.791   6.040
23247WAT     H269984   7.458   5.710   5.898
23248WAT      O69985   5.398   3.772   6.389
23248WAT     H169986   5.305   3.800   6.367
23248WAT     H269987   5.416   3.792   6.486
23249WAT      O69988   7.449   0.842   3.955
23249WAT     H169989   7.393   0.765   3.925
23249WAT     H269990   7.526   0.855   3.893
23250WAT      O69991   6.586   0.848   1.512
23250WAT     H169992   6.685   0.840   1.503
23250WAT     H269993   6.561   0.945   1.526
23251WAT      O69994   3.882   6.745   3.380
23251WAT     H169995   3.859   6.748   3.477
23251WAT     H269996   3.900   6.650   3.353
23252WAT      O69997   4.750   6.329   4.319
23252WAT     H169998   4.773   6.408   4.263
23252WAT     H269999   4.685   6.271   4.271
23253WAT      O70000   9.716   6.160   7.041
23253WAT     H170001   9.623   6.124   7.035
23253WAT     H270002   9.728   6.206   7.129
23254WAT      O70003   8.674   4.949   6.692
23254WAT     H170004   8.737   4.972   6.617
23254WAT     H270005   8.621   4.868   6.667
23255WAT      O70006   4.300   3.018   8.407
23255WAT     H170007   4.395   2.988   8.395
23255WAT     H270008   4.299   3.107   8.452
23256WAT      O70009   6.103   2.591   9.402
23256WAT     H170010   6.143   2.532   9.471
23256WAT     H270011   6.003   2.583   9.405
23257WAT      O70012   4.216   4.587   6.733
23257WAT     H170013   4.284   4.660   6.727
23257WAT     H270014   4.262   4.499   6.722
23258WAT      O70015   5.201   0.541   0.413
23258WAT     H170016   5.188   0.559   0.315
23258WAT     H270017   5.269   0.468   0.424
23259WAT      O70018   1.038   2.173   2.643
23259WAT     H170019   1.103   2.160   2.568
23259WAT     H270020   0.990   2.260   2.630
23260WAT      O70021   9.121   0.961   2.428
23260WAT     H170022   9.141   1.058   2.442
23260WAT     H270023   9.141   0.937   2.333
23261WAT      O70024   4.264   4.555   2.051
23261WAT     H170025   4.307   4.466   2.035
23261WAT     H270026   4.335   4.624   2.065
23262WAT      O70027   0.253   1.443   1.792
23262WAT     H170028   0.256   1.525   1.849
23262WAT     H270029   0.204   1.371   1.841
23263WAT      O70030   0.612   5.199   0.799
23263WAT     H170031   0.569   5.130   0.741
23263WAT     H270032   0.708   5.209   0.772
23264WAT      O70033   6.636   7.484   3.227
23264WAT     H170034   6.672   7.481   3.134
23264WAT     H270035   6.654   7.396   3.272
23265WAT      O70036   7.360   5.772   2.472
23265WAT     H170037   7.412   5.827   2.537
23265WAT     H270038   7.350   5.679   2.507
23266WAT      O70039   8.270   3.942   7.040
23266WAT     H170040   8.196   3.908   6.981
23266WAT     H270041   8.295   4.034   7.011
23267WAT      O70042   8.266   6.294   9.568
23267WAT     H170043   8.204   6.355   9.519
23267WAT     H270044   8.350   6.342   9.590
23268WAT      O70045   3.082   4.120   3.663
23268WAT     H170046   2.987   4.130   3.632
23268WAT     H270047   3.107   4.023   3.662
23269WAT      O70048   5.202   2.532   2.283
23269WAT     H170049   5.224   2.451   2.229
23269WAT     H270050   5.179   2.608   2.222
23270WAT      O70051   6.832   6.629   7.066
23270WAT     H170052   6.923   6.667   7.051
23270WAT     H270053   6.781   6.689   7.128
23271WAT      O70054   8.346   8.892   5.820
23271WAT     H170055   8.300   8.807   5.793
23271WAT     H270056   8.312   8.922   5.909
23272WAT      O70057   5.010   9.804   5.880
23272WAT     H170058   5.049   9.861   5.952
23272WAT     H270059   4.934   9.852   5.837
23273WAT      O70060   5.269   6.351   8.964
23273WAT     H170061   5.193   6.343   8.900
23273WAT     H270062   5.243   6.312   9.052
23274WAT      O70063   5.062   8.327   0.299
23274WAT     H170064   5.015   8.413   0.280
23274WAT     H270065   5.148   8.323   0.248
23275WAT      O70066   1.211   9.574   7.357
23275WAT     H170067   1.122   9.602   7.323
23275WAT     H270068   1.274   9.652   7.355
23276WAT      O70069   3.942   1.989   6.858
23276WAT     H170070   3.974   2.084   6.860
23276WAT     H270071   4.021   1.928   6.850
23277WAT      O70072   1.701   3.127   9.803
23277WAT     H170073   1.791   3.095   9.835
23277WAT     H270074   1.715   3.192   9.727
23278WAT      O70075   2.485   2.600   3.569
23278WAT     H170076   2.398   2.649   3.576
23278WAT     H270077   2.504   2.578   3.473
23279WAT      O70078   5.993   7.653   0.212
23279WAT     H170079   6.083   7.633   0.251
23279WAT     H270080   5.947   7.721   0.269
23280WAT      O70081   6.250   1.526   3.414
23280WAT     H170082   6.300   1.606   3.449
23280WAT     H270083   6.312   1.469   3.360
23281WAT      O70084   3.758   9.142   0.121
23281WAT     H170085   3.691   9.195   0.071
23281WAT     H270086   3.741   9.045   0.107
23282WAT      O70087   4.115   4.808   3.455
23282WAT     H170088   4.099   4.874   3.381
23282WAT     H270089   4.148   4.856   3.536
23283WAT      O70090   1.716   2.182   2.001
23283WAT     H170091   1.675   2.172   2.092
23283WAT     H270092   1.681   2.110   1.941
23284WAT      O70093   5.250   3.202   2.632
23284WAT     H170094   5.347   3.201   2.653
23284WAT     H270095   5.201   3.147   2.700
23285WAT      O70096   2.845   5.233   5.015
23285WAT     H170097   2.817   5.291   4.939
23285WAT     H270098   2.931   5.267   5.052
23286WAT      O70099   1.056   8.758   9.419
23286WAT     H170100   1.144   8.751   9.467
23286WAT     H270101   1.060   8.834   9.354
23287WAT      O70102   0.748   4.937   1.126
23287WAT     H170103   0.736   4.847   1.085
23287WAT     H270104   0.825   4.935   1.190
23288WAT      O70105   9.052   9.246   6.566
23288WAT     H170106   9.075   9.262   6.662
23288WAT     H270107   9.067   9.331   6.515
23289WAT      O70108   4.900   7.904   8.561
23289WAT     H170109   4.811   7.865   8.585
23289WAT     H270110   4.897   7.938   8.467
23290WAT      O70111   7.958   6.878   5.609
23290WAT     H170112   7.879   6.928   5.576
23290WAT     H270113   7.979   6.906   5.703
23291WAT      O70114   1.606   7.145   6.718
23291WAT     H170115   1.696   7.187   6.711
23291WAT     H270116   1.609   7.071   6.785
23292WAT      O70117   4.637   9.747   5.729
23292WAT     H170118   4.626   9.760   5.827
23292WAT     H270119   4.665   9.833   5.687
23293WAT      O70120   6.957   7.597   3.424
23293WAT     H170121   6.879   7.620   3.366
23293WAT     H270122   7.041   7.602   3.370
23294WAT      O70123   9.813   1.175   4.471
23294WAT     H170124   9.795   1.236   4.548
23294WAT     H270125   9.801   1.225   4.385
23295WAT      O70126   6.121   8.992   4.797
23295WAT     H170127   6.161   8.951   4.879
23295WAT     H270128   6.187   8.988   4.722
23296WAT      O70129   1.542   1.250   1.932
23296WAT     H170130   1.602   1.197   1.991
23296WAT     H270131   1.498   1.188   1.866
23297WAT      O70132   4.749   9.447   2.224
23297WAT     H170133   4.781   9.519   2.285
23297WAT     H270134   4.720   9.368   2.278
23298WAT      O70135   9.530   1.071   8.062
23298WAT     H170136   9.603   1.017   8.022
23298WAT     H270137   9.463   1.095   7.991
23299WAT      O70138   6.202   6.023   7.466
23299WAT     H170139   6.289   6.056   7.429
23299WAT     H270140   6.145   5.989   7.391
23300WAT      O70141   4.433   0.881   6.343
23300WAT     H170142   4.454   0.931   6.427
23300WAT     H270143   4.381   0.939   6.282
23301WAT      O70144   4.642   6.344   2.786
23301WAT     H170145   4.721   6.403   2.802
23301WAT     H270146   4.583   6.344   2.867
23302WAT      O70147   9.488   1.719   4.311
23302WAT     H170148   9.434   1.795   4.346
23302WAT     H270149   9.522   1.741   4.220
23303WAT      O70150   4.079   8.155   5.701
23303WAT     H170151   4.120   8.236   5.744
23303WAT     H270152   3.997   8.183   5.651
23304WAT      O70153   7.916   2.909   1.730
23304WAT     H170154   7.824   2.923   1.768
23304WAT     H270155   7.975   2.984   1.759
23305WAT      O70156   3.404   6.813   3.792
23305WAT     H170157   3.373   6.882   3.727
23305WAT     H270158   3.440   6.857   3.874
23306WAT      O70159   1.174   7.081   0.171
23306WAT     H170160   1.099   7.056   0.109
23306WAT     H270161   1.159   7.039   0.260
23307WAT      O70162   6.188   5.452   5.966
23307WAT     H170163   6.203   5.412   6.057
23307WAT     H270164   6.178   5.551   5.975
23308WAT      O70165   8.020   9.766   8.830
23308WAT     H170166   7.953   9.782   8.757
23308WAT     H270167   8.048   9.671   8.830
23309WAT      O70168   5.907   0.650   6.190
23309WAT     H170169   5.915   0.646   6.289
23309WAT     H270170   5.825   0.702   6.165
23310WAT      O70171   5.743   5.459   8.233
23310WAT     H170172   5.791   5.545   8.252
23310WAT     H270173   5.770   5.424   8.143
23311WAT      O70174   3.449   0.423   7.072
23311WAT     H170175   3.400   0.357   7.015
23311WAT     H270176   3.402   0.432   7.160
23312WAT      O70177   8.212   0.163   3.958
23312WAT     H170178   8.276   0.204   4.023
23312WAT     H270179   8.248   0.171   3.866
23313WAT      O70180   5.107   6.996   6.046
23313WAT     H170181   5.146   6.904   6.041
23313WAT     H270182   5.178   7.063   6.025
23314WAT      O70183   1.684   5.974   1.397
23314WAT     H170184   1.638   6.045   1.344
23314WAT     H270185   1.731   6.015   1.475
23315WAT      O70186   6.362   4.417   7.338
23315WAT     H170187   6.395   4.366   7.259
23315WAT     H270188   6.277   4.375   7.372
23316WAT      O70189   2.509   2.275   3.189
23316WAT     H170190   2.608   2.281   3.196
23316WAT     H270191   2.468   2.359   3.226
23317WAT      O70192   4.477   9.820   0.053
23317WAT     H170193   4.504   9.803  -0.042
23317WAT     H270194   4.381   9.793   0.065
23318WAT      O70195   4.777   7.131   3.759
23318WAT     H170196   4.739   7.098   3.673
23318WAT     H270197   4.706   7.175   3.813
23319WAT      O70198   0.864   3.290   5.629
23319WAT     H170199   0.849   3.353   5.554
23319WAT     H270200   0.922   3.214   5.598
23320WAT      O70201   1.896   4.918   7.660
23320WAT     H170202   1.803   4.915   7.696
23320WAT     H270203   1.956   4.960   7.727
23321WAT      O70204   9.651   7.394   0.737
23321WAT     H170205   9.572   7.344   0.702
23321WAT     H270206   9.619   7.472   0.791
23322WAT      O70207   1.771   7.305   3.016
23322WAT     H170208   1.798   7.286   2.921
23322WAT     H270209   1.683   7.352   3.016
23323WAT      O70210   4.728   7.723   9.765
23323WAT     H170211   4.772   7.659   9.828
23323WAT     H270212   4.798   7.770   9.711
23324WAT      O70213   9.166   4.798   4.763
23324WAT     H170214   9.103   4.729   4.728
23324WAT     H270215   9.260   4.770   4.742
23325WAT      O70216   4.864   4.880   9.408
23325WAT     H170217   4.777   4.884   9.457
23325WAT     H270218   4.857   4.932   9.323
23326WAT      O70219   6.161   0.098   7.596
23326WAT     H170220   6.118   0.185   7.576
23326WAT     H270221   6.140   0.033   7.523
23327WAT      O70222   0.239   6.212   9.638
23327WAT     H170223   0.166   6.277   9.658
23327WAT     H270224   0.266   6.166   9.723
23328WAT      O70225   3.433   1.404   1.127
23328WAT     H170226   3.347   1.440   1.164
23328WAT     H270227   3.510   1.451   1.169
23329WAT      O70228   9.219   2.449   2.367
23329WAT     H170229   9.130   2.469   2.326
23329WAT     H270230   9.246   2.526   2.425
23330WAT      O70231   9.042   9.835   7.034
23330WAT     H170232   9.099   9.875   6.963
23330WAT     H270233   9.033   9.900   7.110
23331WAT      O70234   6.071   9.403   4.432
23331WAT     H170235   5.993   9.459   4.401
23331WAT     H270236   6.095   9.428   4.525
23332WAT      O70237   4.693   3.145   4.766
23332WAT     H170238   4.711   3.188   4.678
23332WAT     H270239   4.594   3.136   4.779
23333WAT      O70240   0.730   7.252   7.349
23333WAT     H170241   0.647   7.287   7.394
23333WAT     H270242   0.798   7.325   7.344
23334WAT      O70243   2.221   3.137   5.997
23334WAT     H170244   2.288   3.167   6.065
23334WAT     H270245   2.265   3.132   5.907
23335WAT      O70246   1.023   7.128   4.233
23335WAT     H170247   1.006   7.035   4.202
23335WAT     H270248   0.958   7.152   4.305
23336WAT      O70249   8.951   8.487   9.632
23336WAT     H170250   9.023   8.468   9.566
23336WAT     H270251   8.865   8.506   9.584
23337WAT      O70252   7.832   9.354   3.589
23337WAT     H170253   7.895   9.402   3.649
23337WAT     H270254   7.868   9.354   3.495
23338WAT      O70255   4.954   6.799   1.023
23338WAT     H170256   4.986   6.717   1.072
23338WAT     H270257   4.891   6.850   1.082
23339WAT      O70258   5.235   4.152   6.422
23339WAT     H170259   5.334   4.139   6.420
23339WAT     H270260   5.206   4.202   6.341
23340WAT      O70261   0.467   8.548   2.624
23340WAT     H170262   0.527   8.616   2.580
23340WAT     H270263   0.463   8.466   2.568
23341WAT      O70264   2.441   6.844   3.998
23341WAT     H170265   2.492   6.770   3.955
23341WAT     H270266   2.343   6.825   3.992
23342WAT      O70267   2.676   1.487   1.163
23342WAT     H170268   2.671   1.465   1.065
23342WAT     H270269   2.736   1.421   1.209
23343WAT      O70270   1.595   4.058   1.093
23343WAT     H170271   1.639   4.046   1.005
23343WAT     H270272   1.557   4.151   1.099
23344WAT      O70273   5.448   2.799   4.121
23344WAT     H170274   5.465   2.863   4.046
23344WAT     H270275   5.499   2.715   4.105
23345WAT      O70276   6.543   1.866   1.611
23345WAT     H170277   6.604   1.870   1.690
23345WAT     H270278   6.575   1.797   1.547
23346WAT      O70279   1.992   3.372   2.588
23346WAT     H170280   1.942   3.455   2.565
23346WAT     H270281   1.931   3.293   2.582
23347WAT      O70282   2.584   0.253   1.432
23347WAT     H170283   2.563   0.350   1.445
23347WAT     H270284   2.634   0.219   1.513
23348WAT      O70285   3.100   4.096   4.736
23348WAT     H170286   3.049   4.124   4.818
23348WAT     H270287   3.148   4.175   4.698
23349WAT      O70288   1.819   5.544   4.704
23349WAT     H170289   1.775   5.629   4.676
23349WAT     H270290   1.751   5.471   4.707
23350WAT      O70291   3.062   6.268   7.027
23350WAT     H170292   3.114   6.214   6.961
23350WAT     H270293   3.090   6.364   7.020
23351WAT      O70294   8.567   1.673   7.905
23351WAT     H170295   8.479   1.690   7.860
23351WAT     H270296   8.593   1.754   7.958
23352WAT      O70297   7.092   2.332   2.760
23352WAT     H170298   7.077   2.353   2.664
23352WAT     H270299   7.060   2.409   2.816
23353WAT      O70300   8.649   3.684   1.590
23353WAT     H170301   8.708   3.660   1.667
23353WAT     H270302   8.662   3.780   1.566
23354WAT      O70303   7.738   6.979   3.972
23354WAT     H170304   7.671   7.046   3.940
23354WAT     H270305   7.721   6.959   4.069
23355WAT      O70306   5.575   9.310   6.795
23355WAT     H170307   5.544   9.255   6.718
23355WAT     H270308   5.555   9.262   6.880
23356WAT      O70309   8.395   9.652   9.402
23356WAT     H170310   8.361   9.687   9.314
23356WAT     H270311   8.454   9.721   9.444
23357WAT      O70312   4.653   9.082   7.344
23357WAT     H170313   4.555   9.069   7.334
23357WAT     H270314   4.701   9.001   7.309
23358WAT      O70315   9.247   4.589   0.311
23358WAT     H170316   9.184   4.655   0.271
23358WAT     H270317   9.303   4.547   0.240
23359WAT      O70318   3.905   8.177   2.883
23359WAT     H170319   3.988   8.142   2.927
23359WAT     H270320   3.867   8.106   2.824
23360WAT      O70321   9.297   3.124   0.091
23360WAT     H170322   9.362   3.198   0.076
23360WAT     H270323   9.220   3.158   0.144
23361WAT      O70324   6.313   1.265   7.420
23361WAT     H170325   6.264   1.289   7.337
23361WAT     H270326   6.254   1.210   7.479
23362WAT      O70327   8.777   1.485   2.508
23362WAT     H170328   8.868   1.523   2.488
23362WAT     H270329   8.787   1.405   2.567
23363WAT      O70330   6.249   2.900   0.436
23363WAT     H170331   6.317   2.906   0.510
23363WAT     H270332   6.244   2.987   0.388
23364WAT      O70333   6.116   1.251   4.375
23364WAT     H170334   6.132   1.348   4.396
23364WAT     H270335   6.137   1.235   4.278
23365WAT      O70336   3.809   2.247   8.551
23365WAT     H170337   3.856   2.225   8.465
23365WAT     H270338   3.854   2.199   8.627
23366WAT      O70339   0.505   7.564   3.048
23366WAT     H170340   0.433   7.573   3.117
23366WAT     H270341   0.496   7.639   2.981
23367WAT      O70342   7.319   6.389   9.744
23367WAT     H170343   7.227   6.403   9.781
23367WAT     H270344   7.378   6.351   9.815
23368WAT      O70345   3.492   8.309   4.055
23368WAT     H170346   3.520   8.237   3.992
23368WAT     H270347   3.396   8.332   4.038
23369WAT      O70348   5.076   9.419   8.311
23369WAT     H170349   5.139   9.376   8.376
23369WAT     H270350   4.983   9.414   8.347
23370WAT      O70351   3.119   5.313   8.619
23370WAT     H170352   3.148   5.341   8.527
23370WAT     H270353   3.084   5.219   8.616
23371WAT      O70354   0.277   4.189   6.712
23371WAT     H170355   0.360   4.239   6.737
23371WAT     H270356   0.200   4.253   6.705
23372WAT      O70357   5.912   7.545   7.236
23372WAT     H170358   5.824   7.546   7.189
23372WAT     H270359   5.918   7.624   7.297
23373WAT      O70360   2.138   1.034   2.401
23373WAT     H170361   2.166   1.073   2.489
23373WAT     H270362   2.193   1.072   2.328
23374WAT      O70363   7.286   2.226   0.333
23374WAT     H170364   7.353   2.152   0.339
23374WAT     H270365   7.330   2.314   0.353
23375WAT      O70366   3.597   9.318   8.562
23375WAT     H170367   3.621   9.396   8.505
23375WAT     H270368   3.498   9.314   8.575
23376WAT      O70369   5.921   9.114   2.813
23376WAT     H170370   5.977   9.032   2.806
23376WAT     H270371   5.825   9.090   2.803
23377WAT      O70372   2.682   5.814   7.603
23377WAT     H170373   2.645   5.774   7.520
23377WAT     H270374   2.782   5.821   7.595
23378WAT      O70375   8.778   7.275   0.882
23378WAT     H170376   8.795   7.268   0.784
23378WAT     H270377   8.793   7.369   0.912
23379WAT      O70378   4.555   5.601   4.327
23379WAT     H170379   4.560   5.514   4.277
23379WAT     H270380   4.547   5.677   4.262
23380WAT      O70381   7.662   8.328   5.776
23380WAT     H170382   7.629   8.422   5.762
23380WAT     H270383   7.731   8.307   5.707
23381WAT      O70384   4.849   0.184   6.406
23381WAT     H170385   4.918   0.154   6.472
23381WAT     H270386   4.791   0.254   6.448
23382WAT      O70387   6.090   2.188   8.940
23382WAT     H170388   6.106   2.223   8.847
23382WAT     H270389   6.087   2.265   9.004
23383WAT      O70390   4.601   3.001   6.172
23383WAT     H170391   4.560   3.072   6.228
23383WAT     H270392   4.644   2.932   6.231
23384WAT      O70393   4.042   8.230   8.573
23384WAT     H170394   4.048   8.298   8.646
23384WAT     H270395   4.006   8.273   8.490
23385WAT      O70396   7.112   3.949   7.534
23385WAT     H170397   7.093   3.877   7.601
23385WAT     H270398   7.090   4.038   7.574
23386WAT      O70399   6.193   6.428   3.128
23386WAT     H170400   6.189   6.508   3.068
23386WAT     H270401   6.269   6.439   3.192
23387WAT      O70402   9.210   4.216   6.097
23387WAT     H170403   9.231   4.220   5.999
23387WAT     H270404   9.189   4.121   6.122
23388WAT      O70405   1.385   0.855   3.184
23388WAT     H170406   1.312   0.909   3.140
23388WAT     H270407   1.465   0.913   3.196
23389WAT      O70408   4.231   8.338   2.171
23389WAT     H170409   4.181   8.273   2.114
23389WAT     H270410   4.189   8.429   2.162
23390WAT      O70411   0.954   3.776   5.658
23390WAT     H170412   0.970   3.819   5.747
23390WAT     H270413   0.940   3.847   5.589
23391WAT      O70414   9.839   3.278   0.006
23391WAT     H170415   9.915   3.338  -0.015
23391WAT     H270416   9.786   3.315   0.082
23392WAT      O70417   9.395   6.708   8.583
23392WAT     H170418   9.305   6.744   8.607
23392WAT     H270419   9.421   6.742   8.492
23393WAT      O70420   5.255   7.652   9.255
23393WAT     H170421   5.279   7.676   9.349
23393WAT     H270422   5.310   7.706   9.192
23394WAT      O70423   8.196   7.888   0.447
23394WAT     H170424   8.222   7.950   0.522
23394WAT     H270425   8.101   7.904   0.422
23395WAT      O70426   7.101   3.730   3.609
23395WAT     H170427   7.061   3.769   3.691
23395WAT     H270428   7.043   3.752   3.530
23396WAT      O70429   6.411   7.926   6.936
23396WAT     H170430   6.458   7.870   7.004
23396WAT     H270431   6.437   7.896   6.845
23397WAT      O70432   2.049   2.547   8.533
23397WAT     H170433   2.072   2.604   8.455
23397WAT     H270434   2.047   2.451   8.505
23398WAT      O70435   3.344   6.560   3.013
23398WAT     H170436   3.376   6.502   2.938
23398WAT     H270437   3.412   6.558   3.087
23399WAT      O70438   0.907   3.570   3.472
23399WAT     H170439   0.819   3.531   3.498
23399WAT     H270440   0.981   3.508   3.500
23400WAT      O70441   7.350   7.878   8.556
23400WAT     H170442   7.327   7.781   8.566
23400WAT     H270443   7.299   7.931   8.623
23401WAT      O70444   1.034   0.814   0.142
23401WAT     H170445   0.942   0.822   0.182
23401WAT     H270446   1.102   0.824   0.215
23402WAT      O70447   2.175   9.524   0.300
23402WAT     H170448   2.076   9.538   0.307
23402WAT     H270449   2.208   9.476   0.381
23403WAT      O70450   3.681   4.149   6.835
23403WAT     H170451   3.608   4.091   6.799
23403WAT     H270452   3.679   4.238   6.788
23404WAT      O70453   2.583   4.628   0.911
23404WAT     H170454   2.547   4.634   0.818
23404WAT     H270455   2.570   4.715   0.958
23405WAT      O70456   2.875   8.210   3.801
23405WAT     H170457   2.869   8.220   3.900
23405WAT     H270458   2.875   8.300   3.758
23406WAT      O70459   8.779   8.852   1.819
23406WAT     H170460   8.826   8.845   1.907
23406WAT     H270461   8.683   8.823   1.830
23407WAT      O70462   6.311   8.211   5.707
23407WAT     H170463   6.275   8.139   5.766
23407WAT     H270464   6.327   8.175   5.616
23408WAT      O70465   9.849   4.896   9.275
23408WAT     H170466   9.815   4.985   9.306
23408WAT     H270467   9.895   4.907   9.186
23409WAT      O70468   1.144   6.914   5.512
23409WAT     H170469   1.072   6.968   5.556
23409WAT     H270470   1.170   6.838   5.571
23410WAT      O70471   5.360   6.446   5.141
23410WAT     H170472   5.334   6.542   5.129
23410WAT     H270473   5.309   6.407   5.217
23411WAT      O70474   1.901   1.908   4.616
23411WAT     H170475   1.892   1.818   4.574
23411WAT     H270476   1.943   1.897   4.707
23412WAT      O70477   1.235   7.749   2.407
23412WAT     H170478   1.206   7.727   2.313
23412WAT     H270479   1.164   7.805   2.451
23413WAT      O70480   7.528   1.479   8.168
23413WAT     H170481   7.584   1.490   8.251
23413WAT     H270482   7.587   1.483   8.088
23414WAT      O70483   8.155   1.481   7.690
23414WAT     H170484   8.217   1.440   7.756
23414WAT     H270485   8.079   1.418   7.671
23415WAT      O70486   1.942   9.144   1.094
23415WAT     H170487   2.028   9.185   1.124
23415WAT     H270488   1.873   9.155   1.166
23416WAT      O70489   3.651   0.218   3.127
23416WAT     H170490   3.655   0.276   3.046
23416WAT     H270491   3.694   0.130   3.107
23417WAT      O70492   8.080   4.800   2.198
23417WAT     H170493   8.004   4.768   2.254
23417WAT     H270494   8.135   4.865   2.250
23418WAT      O70495   0.390   6.347   0.842
23418WAT     H170496   0.370   6.445   0.840
23418WAT     H270497   0.372   6.312   0.934
23419WAT      O70498   7.718   2.718   7.263
23419WAT     H170499   7.626   2.710   7.301
23419WAT     H270500   7.784   2.681   7.327
23420WAT      O70501   4.632   3.808   1.239
23420WAT     H170502   4.621   3.904   1.212
23420WAT     H270503   4.588   3.749   1.172
23421WAT      O70504   2.704   0.098   3.260
23421WAT     H170505   2.664   0.018   3.305
23421WAT     H270506   2.789   0.124   3.306
23422WAT      O70507   7.033   5.973   4.000
23422WAT     H170508   6.987   5.896   4.045
23422WAT     H270509   7.112   5.938   3.950
23423WAT      O70510   2.335   2.019   3.744
23423WAT     H170511   2.397   1.952   3.705
23423WAT     H270512   2.258   2.034   3.681
23424WAT      O70513   8.780   5.058   5.927
23424WAT     H170514   8.783   5.061   6.027
23424WAT     H270515   8.845   4.991   5.893
23425WAT      O70516   4.385   2.031   2.839
23425WAT     H170517   4.450   1.961   2.869
23425WAT     H270518   4.433   2.096   2.779
23426WAT      O70519   7.744   7.596   6.046
23426WAT     H170520   7.809   7.655   5.999
23426WAT     H270521   7.790   7.511   6.073
23427WAT      O70522   9.204   6.160   1.219
23427WAT     H170523   9.204   6.253   1.255
23427WAT     H270524   9.297   6.134   1.193
23428WAT      O70525   7.053   4.017   9.227
23428WAT     H170526   6.968   4.067   9.243
23428WAT     H270527   7.131   4.079   9.239
23429WAT      O70528   4.408   8.665   2.312
23429WAT     H170529   4.397   8.676   2.213
23429WAT     H270530   4.471   8.589   2.329
23430WAT      O70531   4.733   5.701   0.209
23430WAT     H170532   4.692   5.776   0.158
23430WAT     H270533   4.675   5.677   0.287
23431WAT      O70534   0.787   7.139   5.965
23431WAT     H170535   0.708   7.181   5.919
23431WAT     H270536   0.835   7.208   6.019
23432WAT      O70537   7.293   7.957   6.653
23432WAT     H170538   7.228   8.018   6.697
23432WAT     H270539   7.384   7.971   6.692
23433WAT      O70540   9.054   5.746   4.249
23433WAT     H170541   9.116   5.824   4.237
23433WAT     H270542   9.034   5.735   4.347
23434WAT      O70543   1.759   6.644   2.574
23434WAT     H170544   1.734   6.551   2.600
23434WAT     H270545   1.687   6.708   2.601
23435WAT      O70546   9.736   6.529   2.638
23435WAT     H170547   9.707   6.519   2.543
23435WAT     H270548   9.810   6.596   2.643
23436WAT      O70549   3.126   7.616   3.051
23436WAT     H170550   3.057   7.673   3.096
23436WAT     H270551   3.085   7.570   2.972
23437WAT      O70552   2.774   1.736   0.903
23437WAT     H170553   2.737   1.643   0.901
23437WAT     H270554   2.873   1.733   0.889
23438WAT      O70555   4.108   4.929   4.117
23438WAT     H170556   4.161   5.009   4.144
23438WAT     H270557   4.161   4.846   4.137
23439WAT      O70558   5.670   9.174   1.667
23439WAT     H170559   5.703   9.263   1.638
23439WAT     H270560   5.678   9.167   1.767
23440WAT      O70561   2.178   6.455   9.014
23440WAT     H170562   2.108   6.526   9.004
23440WAT     H270563   2.205   6.422   8.923
23441WAT      O70564   5.572   8.838   0.878
23441WAT     H170565   5.475   8.821   0.859
23441WAT     H270566   5.615   8.754   0.911
23442WAT      O70567   9.066   2.896   7.329
23442WAT     H170568   9.107   2.987   7.328
23442WAT     H270569   8.988   2.895   7.392
23443WAT      O70570   8.835   8.226   6.503
23443WAT     H170571   8.868   8.294   6.569
23443WAT     H270572   8.805   8.144   6.552
23444WAT      O70573   3.981   3.499   0.716
23444WAT     H170574   3.909   3.490   0.785
23444WAT     H270575   4.028   3.587   0.727
23445WAT      O70576   5.743   5.438   9.544
23445WAT     H170577   5.835   5.407   9.521
23445WAT     H270578   5.683   5.427   9.465
23446WAT      O70579   0.422   6.241   6.244
23446WAT     H170580   0.418   6.155   6.193
23446WAT     H270581   0.506   6.290   6.220
23447WAT      O70582   3.651   5.401   2.556
23447WAT     H170583   3.741   5.379   2.594
23447WAT     H270584   3.639   5.500   2.556
23448WAT      O70585   2.249   3.668   6.050
23448WAT     H170586   2.269   3.628   5.961
23448WAT     H270587   2.311   3.628   6.119
23449WAT      O70588   7.357   8.544   1.413
23449WAT     H170589   7.429   8.575   1.351
23449WAT     H270590   7.345   8.611   1.486
23450WAT      O70591   7.262   8.892   0.013
23450WAT     H170592   7.325   8.927  -0.055
23450WAT     H270593   7.186   8.956   0.025
23451WAT      O70594   5.808   3.224   2.800
23451WAT     H170595   5.860   3.203   2.717
23451WAT     H270596   5.843   3.168   2.876
23452WAT      O70597   1.104   8.100   1.235
23452WAT     H170598   1.052   8.150   1.165
23452WAT     H270599   1.127   8.162   1.310
23453WAT      O70600   2.318   0.479   9.007
23453WAT     H170601   2.336   0.569   8.966
23453WAT     H270602   2.379   0.466   9.085
23454WAT      O70603   9.437   5.615   6.140
23454WAT     H170604   9.513   5.578   6.195
23454WAT     H270605   9.443   5.578   6.047
23455WAT      O70606   6.139   7.958   0.704
23455WAT     H170607   6.112   8.028   0.638
23455WAT     H270608   6.070   7.885   0.705
23456WAT      O70609   2.570   3.766   8.761
23456WAT     H170610   2.592   3.845   8.818
23456WAT     H270611   2.627   3.688   8.788
23457WAT      O70612   8.817   7.896   9.329
23457WAT     H170613   8.853   7.986   9.351
23457WAT     H270614   8.788   7.893   9.234
23458WAT      O70615   7.092   8.154   7.920
23458WAT     H170616   7.106   8.086   7.848
23458WAT     H270617   7.076   8.244   7.877
23459WAT      O70618   4.056   6.193   4.345
23459WAT     H170619   4.108   6.261   4.293
23459WAT     H270620   4.026   6.233   4.431
23460WAT      O70621   9.760   3.066   3.494
23460WAT     H170622   9.803   3.155   3.480
23460WAT     H270623   9.765   3.012   3.411
23461WAT      O70624   7.336   5.819   8.768
23461WAT     H170625   7.354   5.721   8.755
23461WAT     H270626   7.421   5.865   8.791
23462WAT      O70627   0.042   0.110   4.780
23462WAT     H170628   0.070   0.158   4.697
23462WAT     H270629  -0.008   0.027   4.755
23463WAT      O70630   7.536   6.815   7.432
23463WAT     H170631   7.511   6.810   7.529
23463WAT     H270632   7.630   6.846   7.423
23464WAT      O70633   3.684   7.541   1.959
23464WAT     H170634   3.656   7.548   1.863
23464WAT     H270635   3.650   7.456   1.998
23465WAT      O70636   9.752   9.758   6.758
23465WAT     H170637   9.653   9.749   6.770
23465WAT     H270638   9.771   9.816   6.679
23466WAT      O70639   1.251   5.728   0.919
23466WAT     H170640   1.275   5.796   0.989
23466WAT     H270641   1.226   5.642   0.964
23467WAT      O70642   0.860   9.353   0.610
23467WAT     H170643   0.782   9.324   0.555
23467WAT     H270644   0.828   9.386   0.699
23468WAT      O70645   1.018   0.623   9.372
23468WAT     H170646   0.946   0.593   9.435
23468WAT     H270647   1.075   0.545   9.347
23469WAT      O70648   5.956   2.667   7.037
23469WAT     H170649   5.883   2.599   7.027
23469WAT     H270650   5.966   2.719   6.952
23470WAT      O70651   1.913   6.836   0.389
23470WAT     H170652   1.820   6.856   0.421
23470WAT     H270653   1.978   6.893   0.438
23471WAT      O70654   5.108   6.127   4.584
23471WAT     H170655   5.014   6.157   4.595
23471WAT     H270656   5.110   6.044   4.528
23472WAT      O70657   2.970   7.729   4.987
23472WAT     H170658   2.972   7.631   5.005
23472WAT     H270659   2.888   7.753   4.935
23473WAT      O70660   7.983   4.599   0.632
23473WAT     H170661   8.082   4.589   0.644
23473WAT     H270662   7.942   4.508   0.620
23474WAT      O70663   9.328   3.466   6.489
23474WAT     H170664   9.392   3.467   6.412
23474WAT     H270665   9.324   3.374   6.527
23475WAT      O70666   3.586   6.837   6.217
23475WAT     H170667   3.591   6.772   6.293
23475WAT     H270668   3.491   6.844   6.186
23476WAT      O70669   5.777   3.602   8.281
23476WAT     H170670   5.701   3.637   8.336
23476WAT     H270671   5.741   3.555   8.200
23477WAT      O70672   9.096   3.694   0.815
23477WAT     H170673   9.188   3.704   0.853
23477WAT     H270674   9.029   3.719   0.885
23478WAT      O70675   8.459   4.589   4.855
23478WAT     H170676   8.518   4.607   4.776
23478WAT     H270677   8.510   4.607   4.939
23479WAT      O70678   9.766   8.227   8.864
23479WAT     H170679   9.675   8.219   8.824
23479WAT     H270680   9.831   8.176   8.808
23480WAT      O70681   4.089   8.097   6.280
23480WAT     H170682   4.045   8.172   6.231
23480WAT     H270683   4.163   8.133   6.338
23481WAT      O70684   4.996   0.515   6.373
23481WAT     H170685   4.967   0.568   6.294
23481WAT     H270686   4.944   0.429   6.377
23482WAT      O70687   1.523   7.406   3.022
23482WAT     H170688   1.534   7.428   3.119
23482WAT     H270689   1.473   7.480   2.977
23483WAT      O70690   0.960   7.433   7.388
23483WAT     H170691   1.021   7.450   7.466
23483WAT     H270692   1.013   7.435   7.303
23484WAT      O70693   6.482   2.599   2.587
23484WAT     H170694   6.505   2.694   2.565
23484WAT     H270695   6.383   2.591   2.599
23485WAT      O70696   7.690   4.871   2.522
23485WAT     H170697   7.774   4.887   2.575
23485WAT     H270698   7.673   4.772   2.517
23486WAT      O70699   1.553   9.346   4.058
23486WAT     H170700   1.645   9.385   4.058
23486WAT     H270701   1.485   9.419   4.062
23487WAT      O70702   2.720   5.419   6.966
23487WAT     H170703   2.751   5.479   7.040
23487WAT     H270704   2.666   5.344   7.004
23488WAT      O70705   9.287   3.274   5.591
23488WAT     H170706   9.290   3.374   5.595
23488WAT     H270707   9.244   3.239   5.674
23489WAT      O70708   1.399   9.529   0.528
23489WAT     H170709   1.431   9.622   0.541
23489WAT     H270710   1.305   9.521   0.561
23490WAT      O70711   3.390   6.532   6.166
23490WAT     H170712   3.360   6.474   6.090
23490WAT     H270713   3.478   6.500   6.201
23491WAT      O70714   7.398   0.417   2.143
23491WAT     H170715   7.447   0.332   2.128
23491WAT     H270716   7.457   0.482   2.192
23492WAT      O70717   5.098   6.659   1.226
23492WAT     H170718   5.141   6.606   1.153
23492WAT     H270719   5.148   6.644   1.311
23493WAT      O70720   6.315   0.178   9.509
23493WAT     H170721   6.368   0.119   9.570
23493WAT     H270722   6.356   0.178   9.418
23494WAT      O70723   7.441   3.087   7.004
23494WAT     H170724   7.373   3.097   6.932
23494WAT     H270725   7.532   3.107   6.967
23495WAT      O70726   3.012   5.250   3.574
23495WAT     H170727   2.929   5.225   3.624
23495WAT     H270728   3.033   5.178   3.507
23496WAT      O70729   0.638   5.923   5.925
23496WAT     H170730   0.557   5.980   5.935
23496WAT     H270731   0.657   5.876   6.012
23497WAT      O70732   2.136   2.894   1.627
23497WAT     H170733   2.082   2.906   1.711
23497WAT     H270734   2.140   2.980   1.577
23498WAT      O70735   6.302   0.383   9.034
23498WAT     H170736   6.364   0.335   8.972
23498WAT     H270737   6.240   0.317   9.077
23499WAT      O70738   1.261   6.876   2.245
23499WAT     H170739   1.260   6.965   2.200
23499WAT     H270740   1.266   6.803   2.177
23500WAT      O70741   2.573   7.302   1.144
23500WAT     H170742   2.503   7.239   1.113
23500WAT     H270743   2.545   7.396   1.123
23501WAT      O70744   4.845   2.633   4.292
23501WAT     H170745   4.809   2.545   4.321
23501WAT     H270746   4.772   2.701   4.289
23502WAT      O70747   6.636   9.492   8.327
23502WAT     H170748   6.736   9.489   8.315
23502WAT     H270749   6.611   9.445   8.411
23503WAT      O70750   0.577   5.867   9.540
23503WAT     H170751   0.527   5.908   9.616
23503WAT     H270752   0.513   5.828   9.475
23504WAT      O70753   9.559   7.709   8.249
23504WAT     H170754   9.521   7.743   8.163
23504WAT     H270755   9.638   7.652   8.230
23505WAT      O70756   7.735   6.573   7.906
23505WAT     H170757   7.669   6.587   7.832
23505WAT     H270758   7.778   6.483   7.896
23506WAT      O70759   6.290   3.466   7.839
23506WAT     H170760   6.390   3.467   7.834
23506WAT     H270761   6.262   3.488   7.933
23507WAT      O70762   7.159   8.669   3.476
23507WAT     H170763   7.137   8.595   3.412
23507WAT     H270764   7.095   8.744   3.464
23508WAT      O70765   6.140   3.512   3.384
23508WAT     H170766   6.177   3.451   3.455
23508WAT     H270767   6.070   3.463   3.332
23509WAT      O70768   3.360   4.117   3.955
23509WAT     H170769   3.341   4.194   4.016
23509WAT     H270770   3.275   4.069   3.934
23510WAT      O70771   5.069   9.289   2.486
23510WAT     H170772   5.156   9.260   2.526
23510WAT     H270773   5.009   9.324   2.558
23511WAT      O70774   1.419   3.368   2.010
23511WAT     H170775   1.485   3.443   2.019
23511WAT     H270776   1.444   3.294   2.073
23512WAT      O70777   4.425   7.382   1.403
23512WAT     H170778   4.457   7.414   1.492
23512WAT     H270779   4.456   7.289   1.388
23513WAT      O70780   6.737   9.043   4.155
23513WAT     H170781   6.653   9.078   4.113
23513WAT     H270782   6.739   8.944   4.149
23514WAT      O70783   2.738   0.664   8.752
23514WAT     H170784   2.713   0.614   8.835
23514WAT     H270785   2.791   0.746   8.777
23515WAT      O70786   6.817   3.415   2.818
23515WAT     H170787   6.843   3.353   2.744
23515WAT     H270788   6.805   3.507   2.782
23516WAT      O70789   0.604   8.492   7.860
23516WAT     H170790   0.605   8.398   7.826
23516WAT     H270791   0.540   8.499   7.937
23517WAT      O70792   3.786   0.444   4.549
23517WAT     H170793   3.813   0.363   4.497
23517WAT     H270794   3.801   0.526   4.494
23518WAT      O70795   6.546   2.978   0.954
23518WAT     H170796   6.571   2.968   1.050
23518WAT     H270797   6.476   3.049   0.945
23519WAT      O70798   4.305   4.306   8.905
23519WAT     H170799   4.221   4.286   8.955
23519WAT     H270800   4.304   4.401   8.875
23520WAT      O70801   3.579   7.511   0.831
23520WAT     H170802   3.663   7.456   0.837
23520WAT     H270803   3.592   7.584   0.765
23521WAT      O70804   1.859   1.702   4.426
23521WAT     H170805   1.870   1.779   4.362
23521WAT     H270806   1.870   1.616   4.376
23522WAT      O70807   9.363   1.206   3.011
23522WAT     H170808   9.420   1.129   2.980
23522WAT     H270809   9.403   1.291   2.978
23523WAT      O70810   0.684   5.587   8.034
23523WAT     H170811   0.751   5.573   8.106
23523WAT     H270812   0.622   5.508   8.030
23524WAT      O70813   6.046   6.672   7.925
23524WAT     H170814   6.111   6.622   7.981
23524WAT     H270815   6.077   6.767   7.914
23525WAT      O70816   3.857   8.704   5.301
23525WAT     H170817   3.862   8.690   5.202
23525WAT     H270818   3.880   8.799   5.322
23526WAT      O70819   6.317   5.129   8.785
23526WAT     H170820   6.311   5.226   8.764
23526WAT     H270821   6.406   5.094   8.758
23527WAT      O70822   0.265   8.959   1.298
23527WAT     H170823   0.324   8.879   1.286
23527WAT     H270824   0.180   8.931   1.342
23528WAT      O70825   0.269   3.127   9.636
23528WAT     H170826   0.309   3.129   9.727
23528WAT     H270827   0.316   3.193   9.577
23529WAT      O70828   7.968   0.083   7.701
23529WAT     H170829   7.888   0.143   7.695
23529WAT     H270830   8.047   0.129   7.661
23530WAT      O70831   2.276   6.973   3.627
23530WAT     H170832   2.222   7.035   3.684
23530WAT     H270833   2.218   6.895   3.600
23531WAT      O70834   3.830   4.382   2.595
23531WAT     H170835   3.887   4.437   2.534
23531WAT     H270836   3.734   4.393   2.570
23532WAT      O70837   5.304   7.496   0.386
23532WAT     H170838   5.245   7.563   0.431
23532WAT     H270839   5.317   7.417   0.445
23533WAT      O70840   2.747   6.375   3.343
23533WAT     H170841   2.733   6.339   3.251
23533WAT     H270842   2.662   6.418   3.375
23534WAT      O70843   6.302   2.734   9.328
23534WAT     H170844   6.355   2.681   9.263
23534WAT     H270845   6.222   2.680   9.357
23535WAT      O70846   8.460   7.122   7.028
23535WAT     H170847   8.433   7.158   7.117
23535WAT     H270848   8.556   7.095   7.031
23536WAT      O70849   9.396   7.274   0.609
23536WAT     H170850   9.317   7.303   0.664
23536WAT     H270851   9.366   7.210   0.538
23537WAT      O70852   4.482   1.968   0.303
23537WAT     H170853   4.492   1.919   0.390
23537WAT     H270854   4.569   2.011   0.279
23538WAT      O70855   5.638   9.822   0.919
23538WAT     H170856   5.733   9.845   0.943
23538WAT     H270857   5.579   9.843   0.997
23539WAT      O70858   1.624   2.338   6.662
23539WAT     H170859   1.568   2.416   6.691
23539WAT     H270860   1.584   2.296   6.580
23540WAT      O70861   5.160   0.543   4.533
23540WAT     H170862   5.103   0.545   4.451
23540WAT     H270863   5.114   0.492   4.605
23541WAT      O70864   5.278   6.187   4.794
23541WAT     H170865   5.218   6.140   4.729
23541WAT     H270866   5.346   6.123   4.829
23542WAT      O70867   9.620   9.033   6.612
23542WAT     H170868   9.647   9.127   6.591
23542WAT     H270869   9.521   9.024   6.597
23543WAT      O70870   1.350   8.933   8.120
23543WAT     H170871   1.361   8.836   8.144
23543WAT     H270872   1.282   8.942   8.047
23544WAT      O70873   0.252   0.622   2.202
23544WAT     H170874   0.309   0.555   2.250
23544WAT     H270875   0.310   0.687   2.154
23545WAT      O70876   1.265   0.543   1.919
23545WAT     H170877   1.289   0.450   1.950
23545WAT     H270878   1.179   0.540   1.869
23546WAT      O70879   3.585   1.139   0.252
23546WAT     H170880   3.655   1.194   0.298
23546WAT     H270881   3.494   1.166   0.284
23547WAT      O70882   9.593   6.258   2.656
23547WAT     H170883   9.525   6.190   2.632
23547WAT     H270884   9.547   6.341   2.689
23548WAT      O70885   1.290   7.926   5.950
23548WAT     H170886   1.347   7.909   6.031
23548WAT     H270887   1.292   8.023   5.927
23549WAT      O70888   7.068   7.077   4.813
23549WAT     H170889   7.059   6.986   4.855
23549WAT     H270890   6.981   7.125   4.820
23550WAT      O70891   9.305   7.686   0.432
23550WAT     H170892   9.337   7.763   0.376
23550WAT     H270893   9.369   7.610   0.424
23551WAT      O70894   9.214   7.555   2.364
23551WAT     H170895   9.160   7.552   2.280
23551WAT     H270896   9.182   7.630   2.422
23552WAT      O70897   8.087   6.197   6.506
23552WAT     H170898   8.025   6.121   6.488
23552WAT     H270899   8.092   6.255   6.424
23553WAT      O70900   4.337   1.758   4.523
23553WAT     H170901   4.386   1.721   4.444
23553WAT     H270902   4.376   1.719   4.607
23554WAT      O70903   6.965   2.567   9.434
23554WAT     H170904   6.979   2.561   9.533
23554WAT     H270905   6.890   2.507   9.407
23555WAT      O70906   7.435   2.601   8.699
23555WAT     H170907   7.475   2.536   8.634
23555WAT     H270908   7.345   2.628   8.668
23556WAT      O70909   7.428   7.139   1.872
23556WAT     H170910   7.434   7.092   1.961
23556WAT     H270911   7.516   7.181   1.850
23557WAT      O70912   6.784   1.535   2.975
23557WAT     H170913   6.695   1.555   2.935
23557WAT     H270914   6.857   1.554   2.909
23558WAT      O70915   7.210   0.727   9.294
23558WAT     H170916   7.216   0.632   9.266
23558WAT     H270917   7.298   0.772   9.277
23559WAT      O70918   9.017   0.619   6.887
23559WAT     H170919   8.946   0.588   6.824
23559WAT     H270920   9.051   0.708   6.859
23560WAT      O70921   1.005   1.533   4.271
23560WAT     H170922   0.915   1.489   4.263
23560WAT     H270923   1.008   1.615   4.214
23561WAT      O70924   7.079   0.365   6.842
23561WAT     H170925   7.103   0.277   6.802
23561WAT     H270926   6.997   0.401   6.797
23562WAT      O70927   8.810   3.795   0.092
23562WAT     H170928   8.898   3.839   0.074
23562WAT     H270929   8.814   3.751   0.182
23563WAT      O70930   5.372   9.028   3.509
23563WAT     H170931   5.336   9.076   3.429
23563WAT     H270932   5.465   8.995   3.489
23564WAT      O70933   3.500   8.474   7.584
23564WAT     H170934   3.540   8.566   7.595
23564WAT     H270935   3.506   8.425   7.670
23565WAT      O70936   5.182   0.016   8.089
23565WAT     H170937   5.091   0.031   8.128
23565WAT     H270938   5.225   0.104   8.070
23566WAT      O70939   1.446   6.300   2.126
23566WAT     H170940   1.435   6.375   2.061
23566WAT     H270941   1.393   6.320   2.209
23567WAT      O70942   2.503   8.787   8.926
23567WAT     H170943   2.434   8.756   8.861
23567WAT     H270944   2.520   8.885   8.912
23568WAT      O70945   7.375   2.837   7.697
23568WAT     H170946   7.310   2.906   7.666
23568WAT     H270947   7.330   2.748   7.699
23569WAT      O70948   8.241   9.569   5.101
23569WAT     H170949   8.306   9.568   5.025
23569WAT     H270950   8.291   9.579   5.187
23570WAT      O70951   9.445   9.084   8.389
23570WAT     H170952   9.384   9.124   8.320
23570WAT     H270953   9.511   9.023   8.345
23571WAT      O70954   3.351   3.054   2.262
23571WAT     H170955   3.259   3.017   2.250
23571WAT     H270956   3.413   2.981   2.291
23572WAT      O70957   4.194   7.838   5.184
23572WAT     H170958   4.158   7.903   5.251
23572WAT     H270959   4.119   7.786   5.145
23573WAT      O70960   1.807   0.602   9.433
23573WAT     H170961   1.763   0.531   9.379
23573WAT     H270962   1.765   0.606   9.524
23574WAT      O70963   4.888   0.027   2.179
23574WAT     H170964   4.888   0.006   2.081
23574WAT     H270965   4.974   0.071   2.203
23575WAT      O70966   7.065   3.055   2.501
23575WAT     H170967   7.101   2.979   2.447
23575WAT     H270968   7.128   3.075   2.576
23576WAT      O70969   6.774   6.499   6.515
23576WAT     H170970   6.856   6.492   6.573
23576WAT     H270971   6.758   6.595   6.493
23577WAT      O70972   1.385   4.575   1.255
23577WAT     H170973   1.370   4.500   1.319
23577WAT     H270974   1.479   4.609   1.266
23578WAT      O70975   1.647   1.662   1.111
23578WAT     H170976   1.566   1.604   1.109
23578WAT     H270977   1.628   1.747   1.062
23579WAT      O70978   7.205   9.581   0.823
23579WAT     H170979   7.113   9.579   0.785
23579WAT     H270980   7.215   9.509   0.891
23580WAT      O70981   6.169   7.238   5.456
23580WAT     H170982   6.260   7.222   5.495
23580WAT     H270983   6.156   7.337   5.444
23581WAT      O70984   0.627   4.631   3.859
23581WAT     H170985   0.720   4.613   3.890
23581WAT     H270986   0.576   4.545   3.852
23582WAT      O70987   6.552   4.013   2.415
23582WAT     H170988   6.508   4.087   2.363
23582WAT     H270989   6.602   4.051   2.492
23583WAT      O70990   9.076   9.303   5.641
23583WAT     H170991   8.998   9.361   5.663
23583WAT     H270992   9.152   9.360   5.609
23584WAT      O70993   4.499   9.471   1.019
23584WAT     H170994   4.543   9.401   0.963
23584WAT     H270995   4.568   9.526   1.066
23585WAT      O70996   9.111   6.433   5.727
23585WAT     H170997   9.057   6.461   5.806
23585WAT     H270998   9.204   6.409   5.757
23586WAT      O70999   8.119   7.056   9.390
23586WAT     H171000   8.117   7.156   9.386
23586WAT     H271001   8.083   7.018   9.305
23587WAT      O71002   0.299   5.103   9.824
23587WAT     H171003   0.361   5.147   9.889
23587WAT     H271004   0.275   5.011   9.857
23588WAT      O71005   4.667   0.060   7.827
23588WAT     H171006   4.697   0.120   7.902
23588WAT     H271007   4.602   0.109   7.770
23589WAT      O71008   3.604   6.663   6.409
23589WAT     H171009   3.701   6.664   6.434
23589WAT     H271010   3.550   6.705   6.482
23590WAT      O71011   9.375   9.751   4.922
23590WAT     H171012   9.283   9.714   4.909
23590WAT     H271013   9.374   9.849   4.906
23591WAT      O71014   4.353   2.624   1.601
23591WAT     H171015   4.375   2.555   1.670
23591WAT     H271016   4.256   2.648   1.608
23592WAT      O71017   6.556   4.819   9.010
23592WAT     H171018   6.468   4.793   9.050
23592WAT     H271019   6.579   4.755   8.937
23593WAT      O71020   1.238   0.888   7.339
23593WAT     H171021   1.171   0.939   7.393
23593WAT     H271022   1.327   0.890   7.385
23594WAT      O71023   4.796   0.763   5.312
23594WAT     H171024   4.831   0.796   5.399
23594WAT     H271025   4.697   0.750   5.319
23595WAT      O71026   9.651   4.642   0.656
23595WAT     H171027   9.624   4.656   0.561
23595WAT     H271028   9.678   4.729   0.696
23596WAT      O71029   7.956   2.600   1.772
23596WAT     H171030   7.956   2.697   1.746
23596WAT     H271031   7.968   2.544   1.690
23597WAT      O71032   6.882   0.845   7.515
23597WAT     H171033   6.902   0.919   7.579
23597WAT     H271034   6.963   0.828   7.458
23598WAT      O71035   5.531   1.593   9.020
23598WAT     H171036   5.438   1.557   9.012
23598WAT     H271037   5.529   1.681   9.069
23599WAT      O71038   3.040   9.757   2.270
23599WAT     H171039   2.976   9.771   2.346
23599WAT     H271040   3.054   9.659   2.256
23600WAT      O71041   8.461   1.598   8.438
23600WAT     H171042   8.362   1.592   8.428
23600WAT     H271043   8.493   1.526   8.500
23601WAT      O71044   1.375   6.942   1.156
23601WAT     H171045   1.466   6.979   1.137
23601WAT     H271046   1.342   6.894   1.075
23602WAT      O71047   7.658   9.654   5.712
23602WAT     H171048   7.639   9.557   5.702
23602WAT     H271049   7.593   9.695   5.777
23603WAT      O71050   3.466   2.685   3.677
23603WAT     H171051   3.402   2.677   3.753
23603WAT     H271052   3.441   2.620   3.605
23604WAT      O71053   4.700   2.537   3.125
23604WAT     H171054   4.757   2.617   3.109
23604WAT     H271055   4.686   2.488   3.039
23605WAT      O71056   2.971   3.293   7.487
23605WAT     H171057   2.966   3.390   7.464
23605WAT     H271058   2.879   3.255   7.490
23606WAT      O71059   5.550   2.740   2.428
23606WAT     H171060   5.470   2.796   2.451
23606WAT     H271061   5.585   2.766   2.338
23607WAT      O71062   1.347   9.685   9.869
23607WAT     H171063   1.434   9.669   9.822
23607WAT     H271064   1.325   9.606   9.926
23608WAT      O71065   6.170   7.998   8.776
23608WAT     H171066   6.217   8.026   8.692
23608WAT     H271067   6.176   7.899   8.785
23609WAT      O71068   9.845   3.175   5.699
23609WAT     H171069   9.761   3.134   5.664
23609WAT     H271070   9.917   3.105   5.702
23610WAT      O71071   4.140   8.075   5.309
23610WAT     H171072   4.122   8.130   5.228
23610WAT     H271073   4.221   8.110   5.356
23611WAT      O71074   5.146   3.801   3.063
23611WAT     H171075   5.089   3.752   2.997
23611WAT     H271076   5.132   3.900   3.052
23612WAT      O71077   6.857   6.990   3.047
23612WAT     H171078   6.893   6.995   2.954
23612WAT     H271079   6.880   6.902   3.088
23613WAT      O71080   8.483   2.160   1.416
23613WAT     H171081   8.551   2.196   1.353
23613WAT     H271082   8.404   2.127   1.365
23614WAT      O71083   8.988   6.650   8.045
23614WAT     H171084   8.982   6.750   8.038
23614WAT     H271085   8.914   6.616   8.103
23615WAT      O71086   3.030   4.432   4.434
23615WAT     H171087   3.002   4.450   4.340
23615WAT     H271088   3.079   4.511   4.470
23616WAT      O71089   5.483   3.615   2.182
23616WAT     H171090   5.384   3.619   2.177
23616WAT     H271091   5.511   3.596   2.277
23617WAT      O71092   1.852   0.757   2.659
23617WAT     H171093   1.807   0.669   2.673
23617WAT     H271094   1.928   0.745   2.595
23618WAT      O71095   0.823   1.185   7.033
23618WAT     H171096   0.876   1.164   6.951
23618WAT     H271097   0.725   1.173   7.014
23619WAT      O71098   1.292   7.413   4.171
23619WAT     H171099   1.367   7.478   4.179
23619WAT     H271100   1.245   7.404   4.259
23620WAT      O71101   4.182   6.952   9.181
23620WAT     H171102   4.267   7.001   9.201
23620WAT     H271103   4.154   6.900   9.261
23621WAT      O71104   4.251   6.036   3.474
23621WAT     H171105   4.253   5.993   3.384
23621WAT     H271106   4.316   6.112   3.477
23622WAT      O71107   8.713   8.176   3.195
23622WAT     H171108   8.656   8.127   3.130
23622WAT     H271109   8.658   8.203   3.274
23623WAT      O71110   5.202   7.639   7.648
23623WAT     H171111   5.296   7.660   7.676
23623WAT     H271112   5.176   7.549   7.682
23624WAT      O71113   1.664   3.887   4.260
23624WAT     H171114   1.596   3.814   4.251
23624WAT     H271115   1.640   3.963   4.200
23625WAT      O71116   3.338   1.978   7.024
23625WAT     H171117   3.418   1.927   7.058
23625WAT     H271118   3.329   1.963   6.926
23626WAT      O71119   5.313   5.485   7.224
23626WAT     H171120   5.390   5.549   7.231
23626WAT     H271121   5.260   5.505   7.142
23627WAT      O71122   3.565   0.123   1.735
23627WAT     H171123   3.588   0.094   1.828
23627WAT     H271124   3.572   0.222   1.728
23628WAT      O71125   7.593   6.748   4.686
23628WAT     H171126   7.650   6.822   4.722
23628WAT     H271127   7.639   6.661   4.700
23629WAT      O71128   7.498   2.071   5.638
23629WAT     H171129   7.479   2.083   5.540
23629WAT     H271130   7.592   2.100   5.657
23630WAT      O71131   5.327   6.846   5.438
23630WAT     H171132   5.389   6.813   5.367
23630WAT     H271133   5.320   6.945   5.434
23631WAT      O71134   8.391   4.809   3.970
23631WAT     H171135   8.325   4.858   3.912
23631WAT     H271136   8.468   4.780   3.914
23632WAT      O71137   7.989   5.334   2.219
23632WAT     H171138   8.022   5.312   2.311
23632WAT     H271139   7.921   5.266   2.192
23633WAT      O71140   5.576   3.216   1.453
23633WAT     H171141   5.673   3.230   1.475
23633WAT     H271142   5.567   3.193   1.356
23634WAT      O71143   1.355   8.422   8.025
23634WAT     H171144   1.264   8.458   8.042
23634WAT     H271145   1.404   8.411   8.111
23635WAT      O71146   5.643   2.486   7.995
23635WAT     H171147   5.603   2.533   7.916
23635WAT     H271148   5.587   2.406   8.017
23636WAT      O71149   1.696   5.486   4.165
23636WAT     H171150   1.748   5.483   4.080
23636WAT     H271151   1.601   5.511   4.146
23637WAT      O71152   7.086   7.780   3.645
23637WAT     H171153   6.989   7.787   3.668
23637WAT     H271154   7.096   7.737   3.555
23638WAT      O71155   7.271   5.287   3.479
23638WAT     H171156   7.312   5.222   3.543
23638WAT     H271157   7.242   5.240   3.396
23639WAT      O71158   6.979   3.053   8.682
23639WAT     H171159   6.927   3.116   8.624
23639WAT     H271160   6.967   2.959   8.650
23640WAT      O71161   1.423   4.123   4.616
23640WAT     H171162   1.327   4.142   4.634
23640WAT     H271163   1.441   4.128   4.518
23641WAT      O71164   5.049   2.054   0.594
23641WAT     H171165   5.040   2.062   0.495
23641WAT     H271166   4.974   1.999   0.630
23642WAT      O71167   7.233   3.220   5.035
23642WAT     H171168   7.222   3.303   5.090
23642WAT     H271169   7.154   3.161   5.047
23643WAT      O71170   4.418   4.637   5.502
23643WAT     H171171   4.502   4.687   5.483
23643WAT     H271172   4.351   4.700   5.543
23644WAT      O71173   4.052   9.650   7.549
23644WAT     H171174   4.133   9.655   7.608
23644WAT     H271175   4.008   9.561   7.562
23645WAT      O71176   2.671   7.648   5.864
23645WAT     H171177   2.636   7.709   5.793
23645WAT     H271178   2.723   7.574   5.822
23646WAT      O71179   5.392   1.876   2.645
23646WAT     H171180   5.441   1.788   2.648
23646WAT     H271181   5.457   1.951   2.655
23647WAT      O71182   3.455   4.565   3.187
23647WAT     H171183   3.518   4.632   3.225
23647WAT     H271184   3.504   4.479   3.170
23648WAT      O71185   4.049   1.829   0.039
23648WAT     H171186   4.114   1.799  -0.031
23648WAT     H271187   3.993   1.752   0.068
23649WAT      O71188   7.083   1.706   7.717
23649WAT     H171189   7.017   1.636   7.745
23649WAT     H271190   7.034   1.789   7.692
23650WAT      O71191   4.808   2.965   9.150
23650WAT     H171192   4.783   2.936   9.058
23650WAT     H271193   4.726   2.970   9.207
23651WAT      O71194   6.406   2.277   4.408
23651WAT     H171195   6.505   2.291   4.414
23651WAT     H271196   6.363   2.309   4.493
23652WAT      O71197   8.845   8.295   9.342
23652WAT     H171198   8.878   8.291   9.248
23652WAT     H271199   8.774   8.365   9.349
23653WAT      O71200   1.332   6.042   2.801
23653WAT     H171201   1.360   5.948   2.783
23653WAT     H271202   1.274   6.044   2.883
23654WAT      O71203   5.595   8.576   8.106
23654WAT     H171204   5.516   8.530   8.065
23654WAT     H271205   5.679   8.527   8.081
23655WAT      O71206   7.232   5.228   6.436
23655WAT     H171207   7.164   5.212   6.508
23655WAT     H271208   7.187   5.236   6.348
23656WAT      O71209   7.870   4.695   8.724
23656WAT     H171210   7.891   4.748   8.806
23656WAT     H271211   7.803   4.743   8.668
23657WAT      O71212   7.567   7.685   6.253
23657WAT     H171213   7.588   7.632   6.171
23657WAT     H271214   7.618   7.770   6.253
23658WAT      O71215   5.665   0.722   9.235
23658WAT     H171216   5.707   0.682   9.154
23658WAT     H271217   5.567   0.698   9.237
23659WAT      O71218   9.776   1.522   5.235
23659WAT     H171219   9.700   1.468   5.272
23659WAT     H271220   9.756   1.547   5.140
23660WAT      O71221   0.878   7.757   2.515
23660WAT     H171222   0.839   7.732   2.427
23660WAT     H271223   0.934   7.681   2.550
23661WAT      O71224   5.112   4.918   6.477
23661WAT     H171225   5.039   4.986   6.486
23661WAT     H271226   5.162   4.934   6.392
23662WAT      O71227   0.708   1.007   0.133
23662WAT     H171228   0.686   0.965   0.044
23662WAT     H271229   0.755   0.940   0.190
23663WAT      O71230   1.092   1.058   3.122
23663WAT     H171231   1.064   1.032   3.214
23663WAT     H271232   1.076   1.156   3.108
23664WAT      O71233   9.391   2.884   8.228
23664WAT     H171234   9.435   2.971   8.205
23664WAT     H271235   9.435   2.809   8.179
23665WAT      O71236   7.245   1.673   9.076
23665WAT     H171237   7.268   1.602   9.143
23665WAT     H271238   7.147   1.694   9.082
23666WAT      O71239   1.672   0.244   5.653
23666WAT     H171240   1.680   0.221   5.750
23666WAT     H271241   1.743   0.196   5.602
23667WAT      O71242   8.058   3.137   7.215
23667WAT     H171243   7.981   3.075   7.206
23667WAT     H271244   8.135   3.090   7.259
23668WAT      O71245   3.303   2.577   5.191
23668WAT     H171246   3.227   2.575   5.256
23668WAT     H271247   3.291   2.505   5.124
23669WAT      O71248   3.260   7.489   9.426
23669WAT     H171249   3.168   7.456   9.448
23669WAT     H271250   3.324   7.461   9.498
23670WAT      O71251   2.422   6.083   8.793
23670WAT     H171252   2.409   6.026   8.712
23670WAT     H271253   2.365   6.049   8.868
23671WAT      O71254   4.102   7.678   8.492
23671WAT     H171255   4.072   7.773   8.483
23671WAT     H271256   4.135   7.661   8.585
23672WAT      O71257   8.306   5.506   5.474
23672WAT     H171258   8.394   5.525   5.430
23672WAT     H271259   8.232   5.549   5.422
23673WAT      O71260   7.738   4.950   6.042
23673WAT     H171261   7.734   5.001   5.956
23673WAT     H271262   7.834   4.942   6.071
23674WAT      O71263   1.563   9.450   6.787
23674WAT     H171264   1.638   9.384   6.784
23674WAT     H271265   1.537   9.467   6.882
23675WAT      O71266   9.356   6.018   4.923
23675WAT     H171267   9.381   6.105   4.966
23675WAT     H271268   9.438   5.963   4.910
23676WAT      O71269   8.762   1.147   7.817
23676WAT     H171270   8.710   1.233   7.814
23676WAT     H271271   8.820   1.140   7.736
23677WAT      O71272   3.802   9.114   7.613
23677WAT     H171273   3.813   9.129   7.711
23677WAT     H271274   3.706   9.099   7.592
23678WAT      O71275   4.634   4.409   7.369
23678WAT     H171276   4.724   4.366   7.376
23678WAT     H271277   4.605   4.410   7.274
23679WAT      O71278   0.324   0.546   5.628
23679WAT     H171279   0.404   0.501   5.669
23679WAT     H271280   0.298   0.496   5.545
23680WAT      O71281   1.546   4.338   3.700
23680WAT     H171282   1.484   4.373   3.630
23680WAT     H271283   1.519   4.375   3.789
23681WAT      O71284   5.107   5.239   7.875
23681WAT     H171285   5.046   5.163   7.896
23681WAT     H271286   5.102   5.307   7.949
23682WAT      O71287   5.893   6.875   8.109
23682WAT     H171288   5.862   6.808   8.041
23682WAT     H271289   5.921   6.827   8.192
23683WAT      O71290   0.578   1.937   4.173
23683WAT     H171291   0.487   1.909   4.203
23683WAT     H271292   0.633   1.962   4.252
23684WAT      O71293   3.349   5.339   0.614
23684WAT     H171294   3.319   5.248   0.586
23684WAT     H271295   3.407   5.378   0.544
23685WAT      O71296   3.858   9.227   6.240
23685WAT     H171297   3.934   9.197   6.183
23685WAT     H271298   3.867   9.325   6.257
23686WAT      O71299   0.966   2.594   3.088
23686WAT     H171300   0.915   2.662   3.140
23686WAT     H271301   1.064   2.603   3.109
23687WAT      O71302   4.171   0.292   5.237
23687WAT     H171303   4.225   0.281   5.153
23687WAT     H271304   4.181   0.386   5.270
23688WAT      O71305   8.335   9.458   8.605
23688WAT     H171306   8.431   9.470   8.631
23688WAT     H271307   8.276   9.474   8.684
23689WAT      O71308   5.168   4.124   3.571
23689WAT     H171309   5.148   4.026   3.577
23689WAT     H271310   5.108   4.166   3.502
23690WAT      O71311   3.724   5.881   6.527
23690WAT     H171312   3.688   5.937   6.602
23690WAT     H271313   3.667   5.801   6.514
23691WAT      O71314   7.177   8.174   1.219
23691WAT     H171315   7.095   8.230   1.214
23691WAT     H271316   7.252   8.229   1.256
23692WAT      O71317   0.307   9.655   6.441
23692WAT     H171318   0.393   9.702   6.423
23692WAT     H271319   0.302   9.629   6.537
23693WAT      O71320   0.652   1.583   3.221
23693WAT     H171321   0.553   1.586   3.230
23693WAT     H271322   0.691   1.669   3.256
23694WAT      O71323   0.942   3.519   4.937
23694WAT     H171324   0.887   3.450   4.890
23694WAT     H271325   0.941   3.501   5.035
23695WAT      O71326   1.382   0.389   5.996
23695WAT     H171327   1.308   0.396   6.062
23695WAT     H271328   1.405   0.293   5.980
23696WAT      O71329   0.546   2.780   0.198
23696WAT     H171330   0.527   2.815   0.107
23696WAT     H271331   0.602   2.697   0.191
23697WAT      O71332   1.618   9.069   0.539
23697WAT     H171333   1.624   9.061   0.439
23697WAT     H271334   1.585   9.160   0.563
23698WAT      O71335   6.775   4.754   7.361
23698WAT     H171336   6.755   4.750   7.458
23698WAT     H271337   6.691   4.768   7.309
23699WAT      O71338   8.105   0.650   8.195
23699WAT     H171339   8.125   0.578   8.128
23699WAT     H271340   8.008   0.649   8.216
23700WAT      O71341   1.734   6.992   1.638
23700WAT     H171342   1.638   7.013   1.618
23700WAT     H271343   1.739   6.911   1.697
23701WAT      O71344   3.307   1.797   9.423
23701WAT     H171345   3.366   1.718   9.410
23701WAT     H271346   3.321   1.835   9.514
23702WAT      O71347   9.370   5.994   8.971
23702WAT     H171348   9.349   5.902   9.004
23702WAT     H271349   9.336   6.004   8.878
23703WAT      O71350   9.140   4.581   9.816
23703WAT     H171351   9.059   4.524   9.800
23703WAT     H271352   9.113   4.664   9.864
23704WAT      O71353   0.281   1.219   0.452
23704WAT     H171354   0.341   1.228   0.373
23704WAT     H271355   0.248   1.125   0.457
23705WAT      O71356   5.967   8.325   3.162
23705WAT     H171357   5.941   8.230   3.180
23705WAT     H271358   5.903   8.364   3.095
23706WAT      O71359   0.477   2.144   1.490
23706WAT     H171360   0.450   2.102   1.578
23706WAT     H271361   0.439   2.236   1.485
23707WAT      O71362   2.887   4.186   3.289
23707WAT     H171363   2.897   4.280   3.255
23707WAT     H271364   2.835   4.132   3.223
23708WAT      O71365   2.839   7.056   9.130
23708WAT     H171366   2.937   7.055   9.151
23708WAT     H271367   2.787   7.073   9.213
23709WAT      O71368   7.635   1.826   8.692
23709WAT     H171369   7.591   1.822   8.602
23709WAT     H271370   7.567   1.809   8.763
23710WAT      O71371   5.352   8.622   7.342
23710WAT     H171372   5.280   8.690   7.336
23710WAT     H271373   5.381   8.595   7.250
23711WAT      O71374   2.044   4.914   4.486
23711WAT     H171375   2.125   4.928   4.543
23711WAT     H271376   1.972   4.870   4.541
23712WAT      O71377   8.175   0.307   8.746
23712WAT     H171378   8.149   0.337   8.838
23712WAT     H271379   8.186   0.207   8.746
23713WAT      O71380   9.159   9.534   2.798
23713WAT     H171381   9.245   9.534   2.850
23713WAT     H271382   9.175   9.493   2.708
23714WAT      O71383   7.943   2.144   7.786
23714WAT     H171384   7.992   2.206   7.847
23714WAT     H271385   7.987   2.144   7.696
23715WAT      O71386   1.063   1.694   8.104
23715WAT     H171387   1.064   1.697   8.204
23715WAT     H271388   1.154   1.673   8.070
23716WAT      O71389   6.788   9.517   5.643
23716WAT     H171390   6.732   9.474   5.573
23716WAT     H271391   6.839   9.593   5.603
23717WAT      O71392   8.168   2.950   3.942
23717WAT     H171393   8.205   2.933   3.850
23717WAT     H271394   8.107   3.028   3.940
23718WAT      O71395   6.175   4.738   2.741
23718WAT     H171396   6.140   4.793   2.817
23718WAT     H271397   6.221   4.797   2.675
23719WAT      O71398   5.914   9.764   0.531
23719WAT     H171399   5.942   9.698   0.461
23719WAT     H271400   5.939   9.728   0.621
23720WAT      O71401   2.973   4.437   3.196
23720WAT     H171402   2.971   4.464   3.100
23720WAT     H271403   3.048   4.486   3.242
23721WAT      O71404   2.949   0.889   6.795
23721WAT     H171405   3.008   0.809   6.807
23721WAT     H271406   2.855   0.865   6.818
23722WAT      O71407   7.411   8.573   8.201
23722WAT     H171408   7.385   8.479   8.176
23722WAT     H271409   7.439   8.622   8.118
23723WAT      O71410   1.674   0.051   1.439
23723WAT     H171411   1.627   0.136   1.413
23723WAT     H271412   1.619   0.002   1.507
23724WAT      O71413   1.496   8.645   6.371
23724WAT     H171414   1.530   8.656   6.277
23724WAT     H271415   1.469   8.550   6.385
23725WAT      O71416   5.657   6.800   5.809
23725WAT     H171417   5.579   6.791   5.746
23725WAT     H271418   5.700   6.710   5.821
23726WAT      O71419   2.016   3.250   9.408
23726WAT     H171420   2.019   3.254   9.508
23726WAT     H271421   2.064   3.168   9.376
23727WAT      O71422   9.123   0.078   5.447
23727WAT     H171423   9.193   0.148   5.437
23727WAT     H271424   9.140   0.005   5.381
23728WAT      O71425   1.401   8.549   0.448
23728WAT     H171426   1.381   8.497   0.531
23728WAT     H271427   1.316   8.578   0.405
23729WAT      O71428   5.274   1.821   2.312
23729WAT     H171429   5.334   1.889   2.269
23729WAT     H271430   5.329   1.748   2.351
23730WAT      O71431   8.307   3.517   4.219
23730WAT     H171432   8.395   3.519   4.266
23730WAT     H271433   8.254   3.438   4.251
23731WAT      O71434   3.106   7.063   2.594
23731WAT     H171435   3.137   7.130   2.661
23731WAT     H271436   3.075   7.110   2.511
23732WAT      O71437   8.584   8.138   9.453
23732WAT     H171438   8.554   8.139   9.358
23732WAT     H271439   8.681   8.117   9.457
23733WAT      O71440   2.122   6.428   5.358
23733WAT     H171441   2.027   6.405   5.379
23733WAT     H271442   2.176   6.344   5.352
23734WAT      O71443   0.059   8.538   8.526
23734WAT     H171444   0.159   8.535   8.520
23734WAT     H271445   0.032   8.575   8.614
23735WAT      O71446   1.776   0.886   1.539
23735WAT     H171447   1.790   0.944   1.459
23735WAT     H271448   1.726   0.938   1.609
23736WAT      O71449   3.452   1.006   0.998
23736WAT     H171450   3.363   1.005   0.952
23736WAT     H271451   3.442   0.969   1.090
23737WAT      O71452   8.241   7.058   7.380
23737WAT     H171453   8.178   6.983   7.398
23737WAT     H271454   8.218   7.136   7.438
23738WAT      O71455   1.478   0.660   1.799
23738WAT     H171456   1.438   0.723   1.732
23738WAT     H271457   1.405   0.615   1.850
23739WAT      O71458   4.819   9.385   8.461
23739WAT     H171459   4.743   9.334   8.501
23739WAT     H271460   4.783   9.458   8.403
23740WAT      O71461   7.763   5.540   6.505
23740WAT     H171462   7.706   5.622   6.518
23740WAT     H271463   7.731   5.490   6.425
23741WAT      O71464   5.188   5.273   7.368
23741WAT     H171465   5.259   5.337   7.338
23741WAT     H271466   5.184   5.195   7.306
23742WAT      O71467   2.364   5.335   9.415
23742WAT     H171468   2.359   5.318   9.513
23742WAT     H271469   2.394   5.429   9.399
23743WAT      O71470   9.301   2.259   3.052
23743WAT     H171471   9.347   2.277   2.965
23743WAT     H271472   9.213   2.216   3.035
23744WAT      O71473   7.368   5.480   7.582
23744WAT     H171474   7.287   5.475   7.522
23744WAT     H271475   7.390   5.576   7.599
23745WAT      O71476   9.357   1.641   3.709
23745WAT     H171477   9.296   1.718   3.691
23745WAT     H271478   9.451   1.667   3.688
23746WAT      O71479   0.160   0.278   9.834
23746WAT     H171480   0.229   0.208   9.854
23746WAT     H271481   0.073   0.251   9.875
23747WAT      O71482   4.640   2.417   5.109
23747WAT     H171483   4.591   2.333   5.133
23747WAT     H271484   4.574   2.493   5.102
23748WAT      O71485   5.312   4.082   3.251
23748WAT     H171486   5.402   4.111   3.219
23748WAT     H271487   5.322   3.998   3.306
23749WAT      O71488   8.403   4.037   3.998
23749WAT     H171489   8.400   3.980   3.916
23749WAT     H271490   8.443   3.985   4.074
23750WAT      O71491   8.784   7.776   2.767
23750WAT     H171492   8.705   7.717   2.783
23750WAT     H271493   8.753   7.869   2.749
23751WAT      O71494   8.401   9.707   6.992
23751WAT     H171495   8.344   9.716   6.909
23751WAT     H271496   8.346   9.729   7.072
23752WAT      O71497   0.983   9.376   2.002
23752WAT     H171498   1.076   9.394   1.969
23752WAT     H271499   0.988   9.337   2.094
23753WAT      O71500   6.798   4.532   3.669
23753WAT     H171501   6.849   4.525   3.755
23753WAT     H271502   6.700   4.521   3.687
23754WAT      O71503   1.196   9.445   4.240
23754WAT     H171504   1.281   9.471   4.194
23754WAT     H271505   1.134   9.524   4.241
23755WAT      O71506   2.146   9.582   1.721
23755WAT     H171507   2.159   9.490   1.683
23755WAT     H271508   2.066   9.583   1.781
23756WAT      O71509   4.346   7.037   8.632
23756WAT     H171510   4.397   6.984   8.564
23756WAT     H271511   4.290   6.975   8.687
23757WAT      O71512   7.892   9.323   2.372
23757WAT     H171513   7.900   9.423   2.367
23757WAT     H271514   7.848   9.297   2.457
23758WAT      O71515   0.365   3.890   4.287
23758WAT     H171516   0.343   3.971   4.233
23758WAT     H271517   0.382   3.813   4.225
23759WAT      O71518   7.585   7.826   1.836
23759WAT     H171519   7.627   7.875   1.760
23759WAT     H271520   7.594   7.727   1.821
23760WAT      O71521   0.411   1.271   4.332
23760WAT     H171522   0.397   1.296   4.428
23760WAT     H271523   0.492   1.214   4.323
23761WAT      O71524   9.464   8.265   3.207
23761WAT     H171525   9.539   8.244   3.146
23761WAT     H271526   9.378   8.266   3.156
23762WAT      O71527   8.568   9.502   7.079
23762WAT     H171528   8.525   9.413   7.091
23762WAT     H271529   8.497   9.573   7.076
23763WAT      O71530   4.675   3.752   6.543
23763WAT     H171531   4.664   3.655   6.523
23763WAT     H271532   4.703   3.800   6.459
23764WAT      O71533   8.001   3.647   2.909
23764WAT     H171534   7.950   3.562   2.894
23764WAT     H271535   7.979   3.712   2.836
23765WAT      O71536   2.515   1.470   6.612
23765WAT     H171537   2.606   1.479   6.571
23765WAT     H271538   2.494   1.374   6.625
23766WAT      O71539   5.741   7.757   2.275
23766WAT     H171540   5.752   7.672   2.327
23766WAT     H271541   5.690   7.823   2.330
23767WAT      O71542   2.517   0.984   4.205
23767WAT     H171543   2.496   1.080   4.222
23767WAT     H271544   2.590   0.955   4.267
23768WAT      O71545   8.934   0.409   5.403
23768WAT     H171546   8.837   0.432   5.393
23768WAT     H271547   8.975   0.468   5.474
23769WAT      O71548   0.293   0.284   1.657
23769WAT     H171549   0.363   0.347   1.623
23769WAT     H271550   0.336   0.200   1.689
23770WAT      O71551   1.642   8.526   7.122
23770WAT     H171552   1.665   8.569   7.210
23770WAT     H271553   1.543   8.513   7.116
23771WAT      O71554   0.682   0.739   6.519
23771WAT     H171555   0.645   0.740   6.426
23771WAT     H271556   0.654   0.822   6.567
23772WAT      O71557   7.343   0.475   4.239
23772WAT     H171558   7.362   0.524   4.325
23772WAT     H271559   7.289   0.394   4.259
23773WAT      O71560   6.426   9.695   9.496
23773WAT     H171561   6.421   9.770   9.562
23773WAT     H271562   6.446   9.609   9.543
23774WAT      O71563   2.613   4.449   3.169
23774WAT     H171564   2.559   4.533   3.171
23774WAT     H271565   2.654   4.438   3.078
23775WAT      O71566   9.044   8.093   8.762
23775WAT     H171567   9.046   8.020   8.694
23775WAT     H271568   9.077   8.178   8.721
23776WAT      O71569   8.712   4.938   6.962
23776WAT     H171570   8.658   4.896   7.035
23776WAT     H271571   8.690   4.895   6.875
23777WAT      O71572   6.456   4.393   2.206
23777WAT     H171573   6.460   4.417   2.303
23777WAT     H271574   6.503   4.306   2.192
23778WAT      O71575   6.105   3.601   9.205
23778WAT     H171576   6.095   3.602   9.105
23778WAT     H271577   6.016   3.618   9.247
23779WAT      O71578   6.228   9.657   5.739
23779WAT     H171579   6.323   9.629   5.753
23779WAT     H271580   6.219   9.755   5.758
23780WAT      O71581   5.107   3.037   0.733
23780WAT     H171582   5.012   3.022   0.760
23780WAT     H271583   5.167   3.021   0.812
23781WAT      O71584   9.052   4.279   3.152
23781WAT     H171585   9.039   4.378   3.148
23781WAT     H271586   9.083   4.246   3.063
23782WAT      O71587   7.518   6.315   0.007
23782WAT     H171588   7.584   6.240   0.007
23782WAT     H271589   7.567   6.403   0.010
23783WAT      O71590   8.598   4.876   0.909
23783WAT     H171591   8.581   4.847   0.815
23783WAT     H271592   8.558   4.809   0.972
23784WAT      O71593   4.200   0.612   8.406
23784WAT     H171594   4.171   0.699   8.366
23784WAT     H271595   4.136   0.540   8.380
23785WAT      O71596   0.674   5.072   8.266
23785WAT     H171597   0.748   5.022   8.223
23785WAT     H271598   0.710   5.156   8.308
23786WAT      O71599   2.614   6.296   1.534
23786WAT     H171600   2.705   6.319   1.501
23786WAT     H271601   2.580   6.216   1.485
23787WAT      O71602   7.590   3.783   3.218
23787WAT     H171603   7.587   3.806   3.316
23787WAT     H271604   7.505   3.812   3.175
23788WAT      O71605   2.549   9.471   1.124
23788WAT     H171606   2.499   9.472   1.038
23788WAT     H271607   2.485   9.487   1.200
23789WAT      O71608   7.256   8.033   9.381
23789WAT     H171609   7.166   8.027   9.337
23789WAT     H271610   7.260   8.115   9.437
23790WAT      O71611   5.262   3.257   1.302
23790WAT     H171612   5.278   3.158   1.297
23790WAT     H271613   5.208   3.277   1.384
23791WAT      O71614   8.744   8.473   5.107
23791WAT     H171615   8.702   8.564   5.105
23791WAT     H271616   8.777   8.449   5.016
23792WAT      O71617   9.847   1.492   5.782
23792WAT     H171618   9.912   1.557   5.743
23792WAT     H271619   9.793   1.450   5.709
23793WAT      O71620   1.128   8.982   2.523
23793WAT     H171621   1.145   9.016   2.615
23793WAT     H271622   1.206   9.003   2.464
23794WAT      O71623   5.539   6.829   4.759
23794WAT     H171624   5.508   6.821   4.664
23794WAT     H271625   5.637   6.848   4.761
23795WAT      O71626   8.807   2.605   5.973
23795WAT     H171627   8.718   2.579   5.935
23795WAT     H271628   8.880   2.564   5.920
23796WAT      O71629   2.974   7.041   5.780
23796WAT     H171630   2.939   6.949   5.762
23796WAT     H271631   2.933   7.076   5.864
23797WAT      O71632   2.908   6.811   6.229
23797WAT     H171633   3.000   6.825   6.194
23797WAT     H271634   2.904   6.839   6.325
23798WAT      O71635   6.765   0.175   5.974
23798WAT     H171636   6.780   0.183   5.875
23798WAT     H271637   6.819   0.098   6.009
23799WAT      O71638   0.993   1.810   3.731
23799WAT     H171639   1.080   1.854   3.707
23799WAT     H271640   0.999   1.712   3.714
23800WAT      O71641   1.046   6.243   9.502
23800WAT     H171642   0.965   6.234   9.561
23800WAT     H271643   1.055   6.161   9.446
23801WAT      O71644   4.497   1.838   7.524
23801WAT     H171645   4.426   1.908   7.536
23801WAT     H271646   4.473   1.780   7.445
23802WAT      O71647   6.115   6.954   3.182
23802WAT     H171648   6.193   7.014   3.166
23802WAT     H271649   6.032   7.008   3.191
23803WAT      O71650   2.700   6.361   7.797
23803WAT     H171651   2.615   6.325   7.837
23803WAT     H271652   2.778   6.315   7.839
23804WAT      O71653   4.369   8.677   6.583
23804WAT     H171654   4.352   8.763   6.534
23804WAT     H271655   4.416   8.613   6.522
23805WAT      O71656   3.870   0.882   4.247
23805WAT     H171657   3.941   0.826   4.290
23805WAT     H271658   3.781   0.841   4.265
23806WAT      O71659   1.131   6.676   3.125
23806WAT     H171660   1.142   6.577   3.116
23806WAT     H271661   1.121   6.700   3.221
23807WAT      O71662   1.954   0.186   3.946
23807WAT     H171663   1.940   0.281   3.972
23807WAT     H271664   1.944   0.127   4.026
23808WAT      O71665   7.111   5.165   6.650
23808WAT     H171666   7.173   5.130   6.721
23808WAT     H271667   7.046   5.093   6.625
23809WAT      O71668   4.999   7.313   2.419
23809WAT     H171669   4.982   7.222   2.382
23809WAT     H271670   4.915   7.367   2.414
23810WAT      O71671   5.831   5.678   8.544
23810WAT     H171672   5.914   5.668   8.600
23810WAT     H271673   5.750   5.667   8.602
23811WAT      O71674   2.258   3.906   2.717
23811WAT     H171675   2.276   3.831   2.781
23811WAT     H271676   2.231   3.988   2.768
23812WAT      O71677   2.990   2.096   3.767
23812WAT     H171678   3.090   2.106   3.767
23812WAT     H271679   2.964   2.025   3.701
23813WAT      O71680   2.791   4.153   4.771
23813WAT     H171681   2.706   4.169   4.821
23813WAT     H271682   2.869   4.178   4.829
23814WAT      O71683   0.467   6.591   0.197
23814WAT     H171684   0.415   6.676   0.182
23814WAT     H271685   0.559   6.601   0.159
23815WAT      O71686   7.058   0.040   2.304
23815WAT     H171687   7.146   0.001   2.279
23815WAT     H271688   7.001   0.052   2.222
23816WAT      O71689   3.011   1.238   0.185
23816WAT     H171690   3.085   1.303   0.197
23816WAT     H271691   2.956   1.235   0.269
23817WAT      O71692   7.333   3.886   3.080
23817WAT     H171693   7.374   3.976   3.064
23817WAT     H271694   7.236   3.896   3.100
23818WAT      O71695   1.414   6.529   8.165
23818WAT     H171696   1.383   6.614   8.123
23818WAT     H271697   1.343   6.494   8.226
23819WAT      O71698   2.873   8.360   4.956
23819WAT     H171699   2.835   8.335   5.045
23819WAT     H271700   2.950   8.300   4.935
23820WAT      O71701   3.277   4.612   4.493
23820WAT     H171702   3.319   4.592   4.404
23820WAT     H271703   3.223   4.696   4.486
23821WAT      O71704   6.920   9.529   6.406
23821WAT     H171705   6.973   9.445   6.413
23821WAT     H271706   6.826   9.507   6.380
23822WAT      O71707   8.792   4.938   2.014
23822WAT     H171708   8.889   4.938   1.992
23822WAT     H271709   8.749   4.855   1.978
23823WAT      O71710   1.827   7.751   5.510
23823WAT     H171711   1.868   7.691   5.441
23823WAT     H271712   1.733   7.773   5.483
23824WAT      O71713   7.506   0.178   7.947
23824WAT     H171714   7.527   0.166   7.850
23824WAT     H271715   7.562   0.116   8.001
23825WAT      O71716   7.342   7.903   0.928
23825WAT     H171717   7.439   7.915   0.949
23825WAT     H271718   7.317   7.961   0.850
23826WAT      O71719   6.097   7.672   1.056
23826WAT     H171720   6.103   7.577   1.088
23826WAT     H271721   6.147   7.681   0.970
23827WAT      O71722   8.921   0.188   7.793
23827WAT     H171723   8.930   0.234   7.705
23827WAT     H271724   9.003   0.135   7.811
23828WAT      O71725   6.559   6.969   6.057
23828WAT     H171726   6.517   7.054   6.091
23828WAT     H271727   6.504   6.891   6.084
23829WAT      O71728   2.037   6.380   5.883
23829WAT     H171729   1.980   6.459   5.908
23829WAT     H271730   2.133   6.406   5.889
23830WAT      O71731   4.428   1.934   4.193
23830WAT     H171732   4.352   1.897   4.139
23830WAT     H271733   4.406   2.027   4.223
23831WAT      O71734   4.252   4.291   2.975
23831WAT     H171735   4.272   4.259   3.068
23831WAT     H271736   4.153   4.304   2.965
23832WAT      O71737   1.632   0.688   8.747
23832WAT     H171738   1.703   0.733   8.800
23832WAT     H271739   1.542   0.716   8.781
23833WAT      O71740   8.913   5.753   5.809
23833WAT     H171741   8.930   5.679   5.874
23833WAT     H271742   8.962   5.835   5.838
23834WAT      O71743   3.226   0.095   6.087
23834WAT     H171744   3.160   0.171   6.091
23834WAT     H271745   3.285   0.097   6.167
23835WAT      O71746   3.812   7.860   9.611
23835WAT     H171747   3.894   7.917   9.600
23835WAT     H271748   3.778   7.869   9.705
23836WAT      O71749   4.031   1.957   2.392
23836WAT     H171750   4.113   2.009   2.416
23836WAT     H271751   4.055   1.879   2.335
23837WAT      O71752   3.797   7.196   3.676
23837WAT     H171753   3.854   7.247   3.741
23837WAT     H271754   3.748   7.124   3.723
23838WAT      O71755   4.759   2.043   4.878
23838WAT     H171756   4.839   2.095   4.848
23838WAT     H271757   4.788   1.953   4.910
23839WAT      O71758   3.680   2.205   2.789
23839WAT     H171759   3.614   2.223   2.862
23839WAT     H271760   3.633   2.169   2.709
23840WAT      O71761   1.985   0.877   8.870
23840WAT     H171762   1.961   0.837   8.782
23840WAT     H271763   2.084   0.869   8.885
23841WAT      O71764   6.687   3.522   0.372
23841WAT     H171765   6.785   3.543   0.366
23841WAT     H271766   6.662   3.460   0.298
23842WAT      O71767   6.530   4.694   1.862
23842WAT     H171768   6.605   4.723   1.804
23842WAT     H271769   6.564   4.631   1.932
23843WAT      O71770   9.813   0.714   6.745
23843WAT     H171771   9.901   0.755   6.721
23843WAT     H271772   9.786   0.744   6.837
23844WAT      O71773   6.406   6.608   8.675
23844WAT     H171774   6.370   6.578   8.763
23844WAT     H271775   6.393   6.535   8.607
23845WAT      O71776   5.195   5.644   0.590
23845WAT     H171777   5.107   5.676   0.556
23845WAT     H271778   5.208   5.675   0.684
23846WAT      O71779   5.307   3.372   4.465
23846WAT     H171780   5.313   3.462   4.423
23846WAT     H271781   5.369   3.367   4.543
23847WAT      O71782   3.747   1.219   9.109
23847WAT     H171783   3.738   1.311   9.147
23847WAT     H271784   3.786   1.159   9.179
23848WAT      O71785   0.858   0.264   1.106
23848WAT     H171786   0.865   0.331   1.032
23848WAT     H271787   0.942   0.264   1.159
23849WAT      O71788   9.150   2.810   8.115
23849WAT     H171789   9.074   2.873   8.131
23849WAT     H271790   9.232   2.845   8.160
23850WAT      O71791   4.484   1.250   5.637
23850WAT     H171792   4.519   1.252   5.544
23850WAT     H271793   4.517   1.167   5.683
23851WAT      O71794   3.504   5.255   9.617
23851WAT     H171795   3.513   5.355   9.623
23851WAT     H271796   3.410   5.229   9.640
23852WAT      O71797   8.407   7.075   2.312
23852WAT     H171798   8.495   7.101   2.272
23852WAT     H271799   8.366   7.001   2.257
23853WAT      O71800   2.911   9.719   1.000
23853WAT     H171801   2.926   9.693   1.096
23853WAT     H271802   2.999   9.731   0.955
23854WAT      O71803   8.104   0.303   2.036
23854WAT     H171804   8.163   0.380   2.011
23854WAT     H271805   8.011   0.322   2.006
23855WAT      O71806   4.032   0.385   9.032
23855WAT     H171807   4.083   0.335   8.962
23855WAT     H271808   4.087   0.393   9.115
23856WAT      O71809   7.731   7.933   7.653
23856WAT     H171810   7.642   7.890   7.671
23856WAT     H271811   7.800   7.862   7.638
23857WAT      O71812   3.781   7.049   1.226
23857WAT     H171813   3.805   6.978   1.292
23857WAT     H271814   3.703   7.018   1.171
23858WAT      O71815   1.676   5.358   3.067
23858WAT     H171816   1.662   5.276   3.011
23858WAT     H271817   1.673   5.334   3.164
23859WAT      O71818   7.833   8.714   4.421
23859WAT     H171819   7.878   8.775   4.486
23859WAT     H271820   7.734   8.727   4.426
23860WAT      O71821   7.729   0.671   2.287
23860WAT     H171822   7.777   0.727   2.219
23860WAT     H271823   7.780   0.587   2.302
23861WAT      O71824   5.225   3.592   2.143
23861WAT     H171825   5.240   3.604   2.045
23861WAT     H271826   5.127   3.587   2.161
23862WAT      O71827   4.870   4.364   6.999
23862WAT     H171828   4.903   4.443   6.948
23862WAT     H271829   4.911   4.365   7.091
23863WAT      O71830   7.108   9.278   8.156
23863WAT     H171831   7.084   9.267   8.060
23863WAT     H271832   7.199   9.319   8.163
23864WAT      O71833   1.707   8.182   8.444
23864WAT     H171834   1.614   8.156   8.418
23864WAT     H271835   1.746   8.110   8.501
23865WAT      O71836   3.848   4.025   1.607
23865WAT     H171837   3.898   4.039   1.522
23865WAT     H271838   3.896   3.959   1.665
23866WAT      O71839   3.712   4.514   1.601
23866WAT     H171840   3.783   4.557   1.545
23866WAT     H271841   3.725   4.415   1.601
23867WAT      O71842   3.418   2.232   0.723
23867WAT     H171843   3.477   2.164   0.768
23867WAT     H271844   3.423   2.221   0.624
23868WAT      O71845   8.675   1.238   9.783
23868WAT     H171846   8.618   1.174   9.733
23868WAT     H271847   8.751   1.190   9.826
23869WAT      O71848   0.273   5.274   5.167
23869WAT     H171849   0.371   5.284   5.152
23869WAT     H271850   0.235   5.210   5.100
23870WAT      O71851   1.169   4.206   3.533
23870WAT     H171852   1.245   4.271   3.541
23870WAT     H271853   1.083   4.253   3.555
23871WAT      O71854   1.589   6.123   2.699
23871WAT     H171855   1.497   6.115   2.739
23871WAT     H271856   1.608   6.042   2.644
23872WAT      O71857   4.266   1.175   4.124
23872WAT     H171858   4.281   1.084   4.163
23872WAT     H271859   4.259   1.241   4.199
23873WAT      O71860   7.522   4.289   6.761
23873WAT     H171861   7.531   4.382   6.725
23873WAT     H271862   7.609   4.262   6.804
23874WAT      O71863   7.923   5.287   1.787
23874WAT     H171864   7.974   5.372   1.773
23874WAT     H271865   7.829   5.300   1.758
23875WAT      O71866   2.402   6.457   1.564
23875WAT     H171867   2.341   6.459   1.485
23875WAT     H271868   2.473   6.389   1.549
23876WAT      O71869   2.216   5.678   3.491
23876WAT     H171870   2.222   5.693   3.589
23876WAT     H271871   2.120   5.674   3.464
23877WAT      O71872   7.351   6.971   6.325
23877WAT     H171873   7.267   6.984   6.273
23877WAT     H271874   7.423   7.030   6.288
23878WAT      O71875   5.886   6.829   5.482
23878WAT     H171876   5.946   6.762   5.523
23878WAT     H271877   5.933   6.918   5.477
23879WAT      O71878   7.276   6.999   1.143
23879WAT     H171879   7.279   6.949   1.056
23879WAT     H271880   7.207   6.957   1.202
23880WAT      O71881   5.530   7.267   3.760
23880WAT     H171882   5.595   7.261   3.684
23880WAT     H271883   5.557   7.342   3.820
23881WAT      O71884   2.498   7.826   6.573
23881WAT     H171885   2.542   7.904   6.618
23881WAT     H271886   2.403   7.819   6.604
23882WAT      O71887   6.215   2.708   4.986
23882WAT     H171888   6.218   2.787   5.047
23882WAT     H271889   6.146   2.643   5.019
23883WAT      O71890   5.716   8.079   0.628
23883WAT     H171891   5.763   8.079   0.716
23883WAT     H271892   5.642   8.012   0.630
23884WAT      O71893   0.517   7.533   6.375
23884WAT     H171894   0.543   7.619   6.331
23884WAT     H271895   0.503   7.463   6.306
23885WAT      O71896   9.565   1.394   4.524
23885WAT     H171897   9.595   1.366   4.433
23885WAT     H271898   9.641   1.387   4.588
23886WAT      O71899   5.312   5.413   5.457
23886WAT     H171900   5.279   5.332   5.505
23886WAT     H271901   5.403   5.397   5.420
23887WAT      O71902   5.238   2.263   9.007
23887WAT     H171903   5.238   2.302   8.915
23887WAT     H271904   5.146   2.270   9.046
23888WAT      O71905   1.320   3.389   2.871
23888WAT     H171906   1.236   3.358   2.915
23888WAT     H271907   1.309   3.388   2.772
23889WAT      O71908   5.048   3.885   9.707
23889WAT     H171909   5.085   3.907   9.617
23889WAT     H271910   4.983   3.809   9.699
23890WAT      O71911   1.379   4.774   6.590
23890WAT     H171912   1.462   4.721   6.574
23890WAT     H271913   1.334   4.793   6.503
23891WAT      O71914   3.526   3.045   5.522
23891WAT     H171915   3.516   3.141   5.498
23891WAT     H271916   3.584   2.999   5.454
23892WAT      O71917   3.249   2.740   9.204
23892WAT     H171918   3.214   2.668   9.264
23892WAT     H271919   3.348   2.731   9.195
23893WAT      O71920   0.035   7.454   8.790
23893WAT     H171921   0.028   7.492   8.698
23893WAT     H271922  -0.054   7.458   8.836
23894WAT      O71923   0.200   5.985   1.019
23894WAT     H171924   0.193   6.084   1.030
23894WAT     H271925   0.290   5.962   0.984
23895WAT      O71926   5.303   8.501   6.607
23895WAT     H171927   5.385   8.472   6.657
23895WAT     H271928   5.272   8.589   6.643
23896WAT      O71929   4.067   7.472   3.038
23896WAT     H171930   3.994   7.406   3.027
23896WAT     H271931   4.029   7.561   3.063
23897WAT      O71932   0.837   3.360   2.908
23897WAT     H171933   0.830   3.398   2.815
23897WAT     H271934   0.768   3.288   2.919
23898WAT      O71935   2.117   4.973   2.044
23898WAT     H171936   2.169   5.028   1.978
23898WAT     H271937   2.052   5.031   2.092
23899WAT      O71938   6.720   0.143   1.877
23899WAT     H171939   6.630   0.169   1.842
23899WAT     H271940   6.787   0.145   1.803
23900WAT      O71941   1.126   7.982   4.733
23900WAT     H171942   1.142   8.074   4.698
23900WAT     H271943   1.138   7.916   4.660
23901WAT      O71944   7.378   9.395   7.034
23901WAT     H171945   7.452   9.348   7.082
23901WAT     H271946   7.417   9.466   6.975
23902WAT      O71947   8.587   7.975   0.502
23902WAT     H171948   8.526   8.038   0.453
23902WAT     H271949   8.666   8.026   0.536
23903WAT      O71950   8.070   6.451   9.446
23903WAT     H171951   8.013   6.409   9.374
23903WAT     H271952   8.063   6.550   9.441
23904WAT      O71953   8.772   0.288   7.077
23904WAT     H171954   8.750   0.214   7.013
23904WAT     H271955   8.730   0.373   7.046
23905WAT      O71956   8.143   4.417   1.227
23905WAT     H171957   8.057   4.466   1.212
23905WAT     H271958   8.210   4.447   1.159
23906WAT      O71959   6.113   8.350   7.364
23906WAT     H171960   6.080   8.433   7.319
23906WAT     H271961   6.117   8.276   7.297
23907WAT      O71962   3.769   3.290   5.429
23907WAT     H171963   3.797   3.386   5.419
23907WAT     H271964   3.761   3.248   5.339
23908WAT      O71965   4.706   6.063   1.589
23908WAT     H171966   4.797   6.070   1.548
23908WAT     H271967   4.637   6.093   1.523
23909WAT      O71968   7.829   5.849   6.731
23909WAT     H171969   7.825   5.929   6.672
23909WAT     H271970   7.903   5.789   6.702
23910WAT      O71971   6.045   4.436   9.819
23910WAT     H171972   5.980   4.445   9.744
23910WAT     H271973   5.998   4.401   9.900
23911WAT      O71974   0.863   8.859   0.068
23911WAT     H171975   0.854   8.824   0.161
23911WAT     H271976   0.950   8.829   0.029
23912WAT      O71977   8.452   4.307   4.001
23912WAT     H171978   8.448   4.209   3.983
23912WAT     H271979   8.529   4.327   4.062
23913WAT      O71980   4.262   7.435   7.783
23913WAT     H171981   4.171   7.476   7.772
23913WAT     H271982   4.310   7.440   7.696
23914WAT      O71983   1.022   9.725   8.371
23914WAT     H171984   1.042   9.639   8.324
23914WAT     H271985   0.927   9.751   8.354
23915WAT      O71986   6.559   7.803   0.846
23915WAT     H171987   6.504   7.886   0.851
23915WAT     H271988   6.607   7.789   0.933
23916WAT      O71989   5.811   4.666   0.671
23916WAT     H171990   5.814   4.605   0.751
23916WAT     H271991   5.902   4.672   0.630
23917WAT      O71992   5.906   4.763   1.227
23917WAT     H171993   5.939   4.730   1.138
23917WAT     H271994   5.961   4.842   1.255
23918WAT      O71995   2.688   7.897   1.152
23918WAT     H171996   2.729   7.858   1.070
23918WAT     H271997   2.589   7.883   1.151
23919WAT      O71998   1.877   5.841   6.131
23919WAT     H171999   1.973   5.831   6.158
23919WAT     H272000   1.852   5.938   6.135
23920WAT      O72001   1.890   3.987   7.702
23920WAT     H172002   1.972   3.994   7.645
23920WAT     H272003   1.810   4.012   7.648
23921WAT      O72004   8.987   5.565   5.962
23921WAT     H172005   9.050   5.568   6.039
23921WAT     H272006   8.956   5.471   5.947
23922WAT      O72007   3.238   7.265   2.289
23922WAT     H172008   3.280   7.206   2.220
23922WAT     H272009   3.156   7.220   2.326
23923WAT      O72010   8.987   3.734   1.231
23923WAT     H172011   8.922   3.666   1.266
23923WAT     H272012   8.983   3.816   1.288
23924WAT      O72013   1.498   6.652   1.066
23924WAT     H172014   1.568   6.624   1.132
23924WAT     H272015   1.416   6.680   1.116
23925WAT      O72016   6.344   5.879   9.236
23925WAT     H172017   6.260   5.832   9.207
23925WAT     H272018   6.326   5.931   9.320
23926WAT      O72019   5.424   7.794   5.764
23926WAT     H172020   5.443   7.838   5.851
23926WAT     H272021   5.509   7.756   5.727
23927WAT      O72022   7.843   2.074   7.391
23927WAT     H172023   7.855   2.162   7.345
23927WAT     H272024   7.933   2.036   7.414
23928WAT      O72025   1.046   8.338   0.388
23928WAT     H172026   0.948   8.328   0.405
23928WAT     H272027   1.098   8.277   0.447
23929WAT      O72028   0.330   3.872   5.970
23929WAT     H172029   0.275   3.955   5.959
23929WAT     H272030   0.424   3.890   5.940
23930WAT      O72031   8.678   0.182   4.323
23930WAT     H172032   8.588   0.140   4.324
23930WAT     H272033   8.691   0.232   4.238
23931WAT      O72034   0.446   9.450   6.328
23931WAT     H172035   0.469   9.383   6.399
23931WAT     H272036   0.407   9.531   6.371
23932WAT      O72037   0.731   1.919   2.317
23932WAT     H172038   0.758   1.996   2.259
23932WAT     H272039   0.758   1.939   2.412
23933WAT      O72040   8.681   6.817   2.660
23933WAT     H172041   8.627   6.839   2.578
23933WAT     H272042   8.725   6.900   2.694
23934WAT      O72043   1.388   4.152   8.706
23934WAT     H172044   1.401   4.202   8.621
23934WAT     H272045   1.449   4.188   8.777
23935WAT      O72046   2.448   2.695   6.528
23935WAT     H172047   2.365   2.657   6.485
23935WAT     H272048   2.424   2.733   6.617
23936WAT      O72049   2.338   4.864   1.296
23936WAT     H172050   2.306   4.789   1.354
23936WAT     H272051   2.266   4.887   1.230
23937WAT      O72052   4.972   9.485   0.409
23937WAT     H172053   4.982   9.584   0.400
23937WAT     H272054   4.938   9.446   0.323
23938WAT      O72055   5.675   9.437   6.165
23938WAT     H172056   5.764   9.408   6.198
23938WAT     H272057   5.606   9.421   6.236
23939WAT      O72058   0.802   7.442   8.552
23939WAT     H172059   0.859   7.518   8.585
23939WAT     H272060   0.788   7.376   8.626
23940WAT      O72061   3.229   5.575   8.836
23940WAT     H172062   3.186   5.489   8.810
23940WAT     H272063   3.303   5.558   8.901
23941WAT      O72064   1.947   4.511   6.715
23941WAT     H172065   1.976   4.450   6.789
23941WAT     H272066   2.012   4.586   6.707
23942WAT      O72067   4.353   2.877   2.919
23942WAT     H172068   4.272   2.851   2.971
23942WAT     H272069   4.397   2.795   2.882
23943WAT      O72070   8.370   1.138   9.144
23943WAT     H172071   8.326   1.217   9.101
23943WAT     H272072   8.317   1.056   9.126
23944WAT      O72073   2.201   3.176   5.304
23944WAT     H172074   2.189   3.077   5.305
23944WAT     H272075   2.158   3.216   5.386
23945WAT      O72076   9.658   7.657   1.539
23945WAT     H172077   9.665   7.579   1.476
23945WAT     H272078   9.594   7.724   1.501
23946WAT      O72079   4.444   3.869   4.022
23946WAT     H172080   4.441   3.909   3.930
23946WAT     H272081   4.539   3.851   4.047
23947WAT      O72082   4.891   1.227   7.320
23947WAT     H172083   4.955   1.153   7.341
23947WAT     H272084   4.942   1.312   7.306
23948WAT      O72085   1.148   5.204   9.491
23948WAT     H172086   1.166   5.290   9.445
23948WAT     H272087   1.083   5.218   9.566
23949WAT      O72088   7.189   2.997   6.821
23949WAT     H172089   7.115   2.989   6.755
23949WAT     H272090   7.152   2.990   6.914
23950WAT      O72091   5.056   9.520   2.330
23950WAT     H172092   4.974   9.570   2.357
23950WAT     H272093   5.062   9.436   2.384
23951WAT      O72094   6.276   6.194   5.041
23951WAT     H172095   6.275   6.292   5.023
23951WAT     H272096   6.230   6.176   5.128
23952WAT      O72097   2.014   8.863   8.097
23952WAT     H172098   2.105   8.893   8.125
23952WAT     H272099   2.010   8.763   8.097
23953WAT      O72100   1.636   5.747   4.652
23953WAT     H172101   1.653   5.728   4.555
23953WAT     H272102   1.672   5.837   4.676
23954WAT      O72103   2.361   1.684   5.326
23954WAT     H172104   2.294   1.655   5.259
23954WAT     H272105   2.344   1.779   5.352
23955WAT      O72106   5.008   1.647   1.405
23955WAT     H172107   5.089   1.651   1.347
23955WAT     H272108   5.010   1.723   1.470
23956WAT      O72109   3.911   7.860   7.041
23956WAT     H172110   3.893   7.958   7.047
23956WAT     H272111   3.828   7.809   7.060
23957WAT      O72112   0.251   0.082   3.587
23957WAT     H172113   0.258   0.181   3.579
23957WAT     H272114   0.237   0.042   3.496
23958WAT      O72115   3.391   7.124   7.043
23958WAT     H172116   3.351   7.215   7.033
23958WAT     H272117   3.408   7.106   7.140
23959WAT      O72118   6.948   4.955   6.852
23959WAT     H172119   7.037   4.923   6.882
23959WAT     H272120   6.916   4.899   6.775
23960WAT      O72121   1.712   1.508   4.015
23960WAT     H172122   1.632   1.557   3.981
23960WAT     H272123   1.746   1.446   3.943
23961WAT      O72124   0.526   7.464   0.459
23961WAT     H172125   0.598   7.415   0.507
23961WAT     H272126   0.567   7.534   0.401
23962WAT      O72127   0.627   3.071   6.279
23962WAT     H172128   0.580   3.148   6.322
23962WAT     H272129   0.566   3.027   6.213
23963WAT      O72130   3.082   6.541   4.759
23963WAT     H172131   3.064   6.557   4.856
23963WAT     H272132   3.181   6.539   4.743
23964WAT      O72133   0.608   3.967   6.523
23964WAT     H172134   0.553   3.907   6.581
23964WAT     H272135   0.642   3.915   6.445
23965WAT      O72136   3.207   1.111   8.645
23965WAT     H172137   3.110   1.122   8.621
23965WAT     H272138   3.223   1.150   8.736
23966WAT      O72139   4.640   0.239   2.576
23966WAT     H172140   4.641   0.337   2.558
23966WAT     H272141   4.677   0.191   2.496
23967WAT      O72142   6.249   6.208   1.551
23967WAT     H172143   6.178   6.185   1.484
23967WAT     H272144   6.276   6.126   1.600
23968WAT      O72145   3.912   6.090   5.657
23968WAT     H172146   3.974   6.074   5.580
23968WAT     H272147   3.954   6.154   5.721
23969WAT      O72148   1.058   3.657   1.166
23969WAT     H172149   0.971   3.654   1.216
23969WAT     H272150   1.107   3.571   1.179
23970WAT      O72151   0.494   2.805   3.464
23970WAT     H172152   0.411   2.793   3.519
23970WAT     H272153   0.533   2.895   3.482
23971WAT      O72154   0.732   6.785   6.657
23971WAT     H172155   0.751   6.810   6.561
23971WAT     H272156   0.753   6.688   6.670
23972WAT      O72157   3.561   0.114   5.053
23972WAT     H172158   3.589   0.052   4.980
23972WAT     H272159   3.593   0.207   5.033
23973WAT      O72160   7.418   3.726   5.751
23973WAT     H172161   7.376   3.807   5.712
23973WAT     H272162   7.516   3.725   5.730
23974WAT      O72163   7.406   4.995   2.333
23974WAT     H172164   7.446   5.054   2.404
23974WAT     H272165   7.384   4.906   2.372
23975WAT      O72166   2.383   2.637   0.743
23975WAT     H172167   2.381   2.695   0.825
23975WAT     H272168   2.443   2.678   0.675
23976WAT      O72169   0.390   8.003   4.262
23976WAT     H172170   0.400   7.956   4.174
23976WAT     H272171   0.458   8.076   4.269
23977WAT      O72172   4.092   4.324   1.427
23977WAT     H172173   4.105   4.351   1.332
23977WAT     H272174   4.053   4.232   1.431
23978WAT      O72175   7.306   6.854   4.246
23978WAT     H172176   7.317   6.872   4.344
23978WAT     H272177   7.222   6.897   4.214
23979WAT      O72178   8.709   9.114   9.308
23979WAT     H172179   8.768   9.080   9.381
23979WAT     H272180   8.615   9.083   9.324
23980WAT      O72181   9.505   5.844   8.496
23980WAT     H172182   9.433   5.816   8.431
23980WAT     H272183   9.473   5.829   8.589
23981WAT      O72184   1.057   3.547   5.596
23981WAT     H172185   1.018   3.635   5.622
23981WAT     H272186   1.157   3.549   5.607
23982WAT      O72187   5.842   5.674   0.098
23982WAT     H172188   5.768   5.686   0.032
23982WAT     H272189   5.913   5.617   0.059
23983WAT      O72190   7.323   8.774   1.585
23983WAT     H172191   7.320   8.760   1.684
23983WAT     H272192   7.401   8.833   1.562
23984WAT      O72193   6.514   4.175   1.345
23984WAT     H172194   6.429   4.197   1.296
23984WAT     H272195   6.492   4.146   1.438
23985WAT      O72196   4.782   1.830   0.046
23985WAT     H172197   4.851   1.830   0.118
23985WAT     H272198   4.774   1.921   0.006
23986WAT      O72199   6.875   9.623   6.768
23986WAT     H172200   6.803   9.603   6.702
23986WAT     H272201   6.833   9.649   6.856
23987WAT      O72202   9.173   2.116   2.023
23987WAT     H172203   9.141   2.198   1.975
23987WAT     H272204   9.105   2.043   2.014
23988WAT      O72205   1.519   0.263   0.498
23988WAT     H172206   1.583   0.203   0.547
23988WAT     H272207   1.546   0.269   0.402
23989WAT      O72208   2.523   6.091   5.800
23989WAT     H172209   2.429   6.060   5.788
23989WAT     H272210   2.532   6.136   5.889
23990WAT      O72211   6.053   0.830   2.041
23990WAT     H172212   6.005   0.879   2.113
23990WAT     H272213   6.092   0.745   2.077
23991WAT      O72214   5.005   5.431   1.736
23991WAT     H172215   5.067   5.404   1.663
23991WAT     H272216   5.024   5.376   1.818
23992WAT      O72217   3.927   9.278   0.657
23992WAT     H172218   3.933   9.182   0.630
23992WAT     H272219   3.861   9.325   0.598
23993WAT      O72220   5.314   2.551   8.181
23993WAT     H172221   5.294   2.459   8.148
23993WAT     H272222   5.302   2.617   8.106
23994WAT      O72223   7.018   1.112   5.822
23994WAT     H172224   7.003   1.139   5.917
23994WAT     H272225   7.056   1.190   5.771
23995WAT      O72226   2.117   3.115   2.749
23995WAT     H172227   2.045   3.184   2.736
23995WAT     H272228   2.091   3.031   2.700
23996WAT      O72229   3.615   0.871   2.155
23996WAT     H172230   3.631   0.823   2.241
23996WAT     H272231   3.518   0.897   2.149
23997WAT      O72232   1.631   4.984   7.144
23997WAT     H172233   1.573   4.963   7.065
23997WAT     H272234   1.722   5.010   7.112
23998WAT      O72235   3.929   8.385   7.839
23998WAT     H172236   4.027   8.399   7.853
23998WAT     H272237   3.913   8.357   7.744
23999WAT      O72238   8.718   1.188   6.402
23999WAT     H172239   8.662   1.159   6.480
23999WAT     H272240   8.792   1.122   6.388
24000WAT      O72241   5.763   1.307   3.070
24000WAT     H172242   5.815   1.258   3.139
24000WAT     H272243   5.739   1.245   2.995
24001WAT      O72244   4.368   0.538   2.256
24001WAT     H172245   4.381   0.441   2.235
24001WAT     H272246   4.436   0.593   2.208
24002WAT      O72247   7.105   8.087   5.810
24002WAT     H172248   7.191   8.122   5.772
24002WAT     H272249   7.080   8.142   5.890
24003WAT      O72250   6.200   7.722   8.774
24003WAT     H172251   6.136   7.733   8.698
24003WAT     H272252   6.152   7.681   8.852
24004WAT      O72253   2.728   9.676   3.108
24004WAT     H172254   2.823   9.648   3.124
24004WAT     H272255   2.711   9.765   3.150
24005WAT      O72256   1.686   8.708   2.802
24005WAT     H172257   1.762   8.657   2.842
24005WAT     H272258   1.685   8.694   2.703
24006WAT      O72259   3.651   2.674   0.953
24006WAT     H172260   3.575   2.627   0.909
24006WAT     H272261   3.687   2.617   1.027
24007WAT      O72262   7.381   4.742   9.198
24007WAT     H172263   7.405   4.796   9.117
24007WAT     H272264   7.432   4.656   9.196
24008WAT      O72265   9.667   7.836   0.766
24008WAT     H172266   9.764   7.824   0.788
24008WAT     H272267   9.642   7.932   0.780
24009WAT      O72268   3.839   4.533   9.031
24009WAT     H172269   3.776   4.458   9.013
24009WAT     H272270   3.830   4.562   9.126
24010WAT      O72271   2.412   2.034   1.689
24010WAT     H172272   2.463   1.954   1.720
24010WAT     H272273   2.395   2.027   1.591
24011WAT      O72274   3.764   8.984   3.920
24011WAT     H172275   3.835   9.044   3.955
24011WAT     H272276   3.779   8.968   3.822
24012WAT      O72277   8.501   0.612   2.874
24012WAT     H172278   8.478   0.586   2.968
24012WAT     H272279   8.501   0.530   2.816
24013WAT      O72280   3.410   7.163   8.595
24013WAT     H172281   3.331   7.197   8.544
24013WAT     H272282   3.478   7.126   8.531
24014WAT      O72283   4.713   3.567   6.810
24014WAT     H172284   4.711   3.667   6.810
24014WAT     H272285   4.653   3.533   6.882
24015WAT      O72286   2.706   0.474   6.464
24015WAT     H172287   2.768   0.548   6.489
24015WAT     H272288   2.689   0.477   6.365
24016WAT      O72289   0.904   9.583   2.486
24016WAT     H172290   0.981   9.556   2.428
24016WAT     H272291   0.893   9.518   2.560
24017WAT      O72292   6.670   4.606   8.674
24017WAT     H172293   6.657   4.626   8.576
24017WAT     H272294   6.766   4.617   8.697
24018WAT      O72295   7.216   2.621   9.336
24018WAT     H172296   7.132   2.594   9.382
24018WAT     H272297   7.237   2.717   9.358
24019WAT      O72298   3.880   3.704   9.426
24019WAT     H172299   3.877   3.622   9.369
24019WAT     H272300   3.811   3.697   9.498
24020WAT      O72301   4.028   3.469   1.026
24020WAT     H172302   3.939   3.468   0.980
24020WAT     H272303   4.058   3.375   1.042
24021WAT      O72304   8.075   0.740   6.300
24021WAT     H172305   8.058   0.646   6.330
24021WAT     H272306   8.024   0.758   6.216
24022WAT      O72307   2.607   5.332   7.380
24022WAT     H172308   2.627   5.301   7.473
24022WAT     H272309   2.539   5.405   7.384
24023WAT      O72310   4.522   5.270   9.325
24023WAT     H172311   4.555   5.332   9.396
24023WAT     H272312   4.488   5.324   9.248
24024WAT      O72313   7.313   4.638   8.136
24024WAT     H172314   7.401   4.609   8.175
24024WAT     H272315   7.292   4.582   8.056
24025WAT      O72316   2.360   8.585   6.388
24025WAT     H172317   2.316   8.630   6.310
24025WAT     H272318   2.293   8.571   6.461
24026WAT      O72319   4.224   3.231   7.930
24026WAT     H172320   4.128   3.224   7.903
24026WAT     H272321   4.248   3.151   7.985
24027WAT      O72322   9.250   0.805   8.417
24027WAT     H172323   9.266   0.862   8.336
24027WAT     H272324   9.303   0.721   8.408
24028WAT      O72325   9.305   5.045   4.829
24028WAT     H172326   9.341   5.060   4.921
24028WAT     H272327   9.245   4.965   4.829
24029WAT      O72328   1.194   8.884   7.107
24029WAT     H172329   1.208   8.982   7.116
24029WAT     H272330   1.122   8.866   7.040
24030WAT      O72331   2.790   9.123   6.995
24030WAT     H172332   2.788   9.082   7.086
24030WAT     H272333   2.762   9.055   6.927
24031WAT      O72334   8.637   5.334   4.511
24031WAT     H172335   8.617   5.251   4.458
24031WAT     H272336   8.609   5.321   4.606
24032WAT      O72337   6.553   7.671   5.445
24032WAT     H172338   6.591   7.597   5.501
24032WAT     H272339   6.579   7.759   5.485
24033WAT      O72340   6.388   7.590   3.377
24033WAT     H172341   6.346   7.627   3.294
24033WAT     H272342   6.456   7.521   3.352
24034WAT      O72343   5.426   5.425   8.988
24034WAT     H172344   5.470   5.459   8.905
24034WAT     H272345   5.368   5.496   9.027
24035WAT      O72346   0.121   7.057   2.775
24035WAT     H172347   0.072   7.143   2.786
24035WAT     H272348   0.098   7.017   2.686
24036WAT      O72349   2.749   8.555   3.304
24036WAT     H172350   2.816   8.602   3.362
24036WAT     H272351   2.657   8.567   3.343
24037WAT      O72352   0.106   3.885   4.406
24037WAT     H172353   0.202   3.900   4.384
24037WAT     H272354   0.087   3.922   4.497
24038WAT      O72355   1.748   2.852   9.396
24038WAT     H172356   1.781   2.830   9.488
24038WAT     H272357   1.744   2.951   9.384
24039WAT      O72358   2.793   4.533   0.333
24039WAT     H172359   2.856   4.517   0.408
24039WAT     H272360   2.713   4.473   0.344
24040WAT      O72361   8.170   0.110   9.781
24040WAT     H172362   8.134   0.037   9.840
24040WAT     H272363   8.173   0.196   9.833
24041WAT      O72364   9.235   0.882   1.653
24041WAT     H172365   9.186   0.822   1.716
24041WAT     H272366   9.229   0.976   1.685
24042WAT      O72367   2.892   4.297   6.845
24042WAT     H172368   2.817   4.361   6.859
24042WAT     H272369   2.878   4.248   6.759
24043WAT      O72370   6.617   6.322   7.578
24043WAT     H172371   6.628   6.232   7.619
24043WAT     H272372   6.537   6.368   7.618
24044WAT      O72373   1.883   8.319   4.043
24044WAT     H172374   1.843   8.408   4.068
24044WAT     H272375   1.910   8.321   3.947
24045WAT      O72376   8.467   9.774   7.684
24045WAT     H172377   8.513   9.857   7.652
24045WAT     H272378   8.533   9.698   7.686
24046WAT      O72379   5.906   1.047   9.644
24046WAT     H172380   5.970   1.077   9.573
24046WAT     H272381   5.871   1.127   9.693
24047WAT      O72382   1.408   9.194   4.246
24047WAT     H172383   1.313   9.166   4.230
24047WAT     H272384   1.437   9.257   4.173
24048WAT      O72385   9.106   1.856   0.519
24048WAT     H172386   9.095   1.955   0.506
24048WAT     H272387   9.154   1.817   0.440
24049WAT      O72388   6.352   0.258   4.767
24049WAT     H172389   6.396   0.348   4.763
24049WAT     H272390   6.256   0.266   4.743
24050WAT      O72391   2.461   7.641   9.737
24050WAT     H172392   2.413   7.644   9.825
24050WAT     H272393   2.395   7.646   9.662
24051WAT      O72394   2.302   0.034   6.312
24051WAT     H172395   2.338  -0.029   6.243
24051WAT     H272396   2.202   0.032   6.311
24052WAT      O72397   1.436   9.005   1.218
24052WAT     H172398   1.502   8.938   1.183
24052WAT     H272399   1.481   9.095   1.225
24053WAT      O72400   3.452   2.152   2.554
24053WAT     H172401   3.500   2.087   2.495
24053WAT     H272402   3.356   2.157   2.528
24054WAT      O72403   6.331   8.892   0.136
24054WAT     H172404   6.430   8.900   0.142
24054WAT     H272405   6.292   8.980   0.105
24055WAT      O72406   1.516   2.041   9.411
24055WAT     H172407   1.527   2.042   9.312
24055WAT     H272408   1.492   2.132   9.443
24056WAT      O72409   0.703   2.002   9.333
24056WAT     H172410   0.609   1.982   9.358
24056WAT     H272411   0.765   1.945   9.387
24057WAT      O72412   5.774   1.588   8.443
24057WAT     H172413   5.777   1.552   8.536
24057WAT     H272414   5.728   1.676   8.442
24058WAT      O72415   2.178   6.873   0.601
24058WAT     H172416   2.105   6.898   0.663
24058WAT     H272417   2.230   6.797   0.639
24059WAT      O72418   1.870   0.744   8.280
24059WAT     H172419   1.878   0.664   8.339
24059WAT     H272420   1.775   0.777   8.280
24060WAT      O72421   0.385   5.978   3.604
24060WAT     H172422   0.301   6.020   3.568
24060WAT     H272423   0.368   5.882   3.624
24061WAT      O72424   6.306   3.811   7.668
24061WAT     H172425   6.223   3.850   7.708
24061WAT     H272426   6.360   3.884   7.626
24062WAT      O72427   7.307   5.851   6.368
24062WAT     H172428   7.279   5.893   6.454
24062WAT     H272429   7.323   5.922   6.300
24063WAT      O72430   8.385   6.544   4.805
24063WAT     H172431   8.468   6.529   4.753
24063WAT     H272432   8.308   6.502   4.757
24064WAT      O72433   3.649   8.872   2.921
24064WAT     H172434   3.663   8.794   2.983
24064WAT     H272435   3.592   8.941   2.967
24065WAT      O72436   6.266   6.559   3.992
24065WAT     H172437   6.291   6.462   3.996
24065WAT     H272438   6.169   6.570   4.013
24066WAT      O72439   9.124   5.845   2.341
24066WAT     H172440   9.198   5.782   2.316
24066WAT     H272441   9.143   5.935   2.303
24067WAT      O72442   8.827   9.331   7.144
24067WAT     H172443   8.919   9.346   7.106
24067WAT     H272444   8.765   9.402   7.110
24068WAT      O72445   5.189   9.246   8.526
24068WAT     H172446   5.194   9.297   8.611
24068WAT     H272447   5.275   9.197   8.511
24069WAT      O72448   2.635   5.347   2.560
24069WAT     H172449   2.660   5.432   2.514
24069WAT     H272450   2.632   5.362   2.659
24070WAT      O72451   3.243   5.558   3.353
24070WAT     H172452   3.146   5.533   3.355
24070WAT     H272453   3.281   5.550   3.446
24071WAT      O72454   6.915   2.772   0.155
24071WAT     H172455   6.912   2.736   0.248
24071WAT     H272456   6.847   2.725   0.099
24072WAT      O72457   2.885   2.161   3.201
24072WAT     H172458   2.851   2.216   3.124
24072WAT     H272459   2.910   2.070   3.168
24073WAT      O72460   1.351   1.799   1.765
24073WAT     H172461   1.389   1.749   1.688
24073WAT     H272462   1.371   1.749   1.850
24074WAT      O72463   9.070   7.309   1.995
24074WAT     H172464   9.132   7.231   1.986
24074WAT     H272465   9.109   7.388   1.948
24075WAT      O72466   2.158   8.807   2.414
24075WAT     H172467   2.238   8.804   2.355
24075WAT     H272468   2.183   8.776   2.506
24076WAT      O72469   9.029   1.214   8.493
24076WAT     H172470   9.033   1.313   8.486
24076WAT     H272471   9.043   1.186   8.588
24077WAT      O72472   5.705   6.545   4.880
24077WAT     H172473   5.668   6.453   4.867
24077WAT     H272474   5.680   6.578   4.971
24078WAT      O72475   1.384   1.965   0.300
24078WAT     H172476   1.407   2.039   0.238
24078WAT     H272477   1.449   1.963   0.376
24079WAT      O72478   0.176   8.793   6.647
24079WAT     H172479   0.266   8.838   6.653
24079WAT     H272480   0.151   8.783   6.550
24080WAT      O72481   6.647   9.762   5.857
24080WAT     H172482   6.591   9.692   5.814
24080WAT     H272483   6.699   9.721   5.932
24081WAT      O72484   7.652   1.324   2.275
24081WAT     H172485   7.694   1.404   2.319
24081WAT     H272486   7.681   1.241   2.322
24082WAT      O72487   7.724   6.977   4.234
24082WAT     H172488   7.762   7.003   4.323
24082WAT     H272489   7.660   7.047   4.203
24083WAT      O72490   6.948   2.170   6.236
24083WAT     H172491   6.949   2.104   6.311
24083WAT     H272492   6.988   2.128   6.154
24084WAT      O72493   8.157   9.088   9.124
24084WAT     H172494   8.071   9.072   9.171
24084WAT     H272495   8.207   9.161   9.171
24085WAT      O72496   0.362   3.235   4.084
24085WAT     H172497   0.264   3.221   4.093
24085WAT     H272498   0.389   3.318   4.133
24086WAT      O72499   7.384   6.510   8.310
24086WAT     H172500   7.390   6.533   8.407
24086WAT     H272501   7.458   6.555   8.260
24087WAT      O72502   1.175   8.722   6.305
24087WAT     H172503   1.159   8.628   6.274
24087WAT     H272504   1.238   8.721   6.383
24088WAT      O72505   5.485   8.487   1.858
24088WAT     H172506   5.462   8.391   1.841
24088WAT     H272507   5.422   8.524   1.927
24089WAT      O72508   4.905   6.636   6.859
24089WAT     H172509   4.852   6.584   6.793
24089WAT     H272510   4.883   6.604   6.952
24090WAT      O72511   1.954   3.673   6.792
24090WAT     H172512   1.972   3.682   6.694
24090WAT     H272513   1.856   3.689   6.809
24091WAT      O72514   4.875   7.137   6.139
24091WAT     H172515   4.961   7.092   6.112
24091WAT     H272516   4.807   7.067   6.160
24092WAT      O72517   7.778   7.389   5.713
24092WAT     H172518   7.713   7.366   5.785
24092WAT     H272519   7.833   7.309   5.690
24093WAT      O72520   6.411   5.177   2.339
24093WAT     H172521   6.354   5.160   2.258
24093WAT     H272522   6.388   5.111   2.410
24094WAT      O72523   5.299   4.773   7.593
24094WAT     H172524   5.288   4.673   7.594
24094WAT     H272525   5.297   4.806   7.499
24095WAT      O72526   3.322   6.929   2.432
24095WAT     H172527   3.249   6.961   2.492
24095WAT     H272528   3.354   6.840   2.464
24096WAT      O72529   0.115   3.447   6.188
24096WAT     H172530   0.157   3.538   6.189
24096WAT     H272531   0.181   3.379   6.220
24097WAT      O72532   7.417   2.257   7.117
24097WAT     H172533   7.461   2.210   7.193
24097WAT     H272534   7.325   2.285   7.144
24098WAT      O72535   1.699   2.534   7.456
24098WAT     H172536   1.623   2.489   7.502
24098WAT     H272537   1.714   2.491   7.367
24099WAT      O72538   8.951   1.355   4.560
24099WAT     H172539   8.973   1.442   4.516
24099WAT     H272540   8.868   1.366   4.615
24100WAT      O72541   4.789   3.329   8.609
24100WAT     H172542   4.819   3.295   8.698
24100WAT     H272543   4.805   3.427   8.604
24101WAT      O72544   5.451   0.737   3.916
24101WAT     H172545   5.498   0.822   3.894
24101WAT     H272546   5.501   0.689   3.988
24102WAT      O72547   2.846   4.695   5.790
24102WAT     H172548   2.842   4.776   5.730
24102WAT     H272549   2.834   4.613   5.735
24103WAT      O72550   3.127   2.534   0.217
24103WAT     H172551   3.064   2.484   0.276
24103WAT     H272552   3.133   2.489   0.128
24104WAT      O72553   1.124   7.662   0.005
24104WAT     H172554   1.145   7.572  -0.033
24104WAT     H272555   1.037   7.695  -0.032
24105WAT      O72556   8.845   1.562   4.812
24105WAT     H172557   8.830   1.477   4.862
24105WAT     H272558   8.941   1.589   4.819
24106WAT      O72559   7.416   3.908   0.719
24106WAT     H172560   7.474   3.989   0.733
24106WAT     H272561   7.469   3.838   0.671
24107WAT      O72562   5.440   2.971   9.055
24107WAT     H172563   5.425   2.880   9.018
24107WAT     H272564   5.434   2.968   9.155
24108WAT      O72565   9.141   7.666   2.013
24108WAT     H172566   9.059   7.611   2.026
24108WAT     H272567   9.207   7.614   1.958
24109WAT      O72568   6.861   4.196   1.147
24109WAT     H172569   6.907   4.111   1.123
24109WAT     H272570   6.782   4.209   1.087
24110WAT      O72571   4.610   4.741   0.505
24110WAT     H172572   4.689   4.759   0.445
24110WAT     H272573   4.542   4.687   0.455
24111WAT      O72574   9.386   7.105   7.560
24111WAT     H172575   9.361   7.190   7.514
24111WAT     H272576   9.458   7.059   7.509
24112WAT      O72577   3.189   5.245   4.103
24112WAT     H172578   3.236   5.246   4.015
24112WAT     H272579   3.219   5.323   4.157
24113WAT      O72580   3.642   1.686   8.427
24113WAT     H172581   3.716   1.724   8.371
24113WAT     H272582   3.673   1.677   8.522
24114WAT      O72583   1.208   1.734   4.005
24114WAT     H172584   1.213   1.802   4.078
24114WAT     H272585   1.295   1.730   3.957
24115WAT      O72586   7.447   5.574   5.791
24115WAT     H172587   7.542   5.552   5.813
24115WAT     H272588   7.417   5.516   5.715
24116WAT      O72589   2.206   7.937   6.350
24116WAT     H172590   2.221   7.964   6.255
24116WAT     H272591   2.235   8.012   6.411
24117WAT      O72592   0.988   0.836   4.389
24117WAT     H172593   0.896   0.834   4.352
24117WAT     H272594   1.046   0.775   4.336
24118WAT      O72595   7.232   0.575   0.610
24118WAT     H172596   7.292   0.598   0.686
24118WAT     H272597   7.138   0.599   0.633
24119WAT      O72598   3.448   9.646   8.585
24119WAT     H172599   3.386   9.573   8.614
24119WAT     H272600   3.488   9.623   8.497
24120WAT      O72601   8.062   7.496   5.939
24120WAT     H172602   8.009   7.456   6.013
24120WAT     H272603   8.098   7.423   5.880
24121WAT      O72604   4.475   0.855   7.663
24121WAT     H172605   4.391   0.821   7.706
24121WAT     H272606   4.465   0.953   7.645
24122WAT      O72607   2.448   5.564   7.382
24122WAT     H172608   2.364   5.566   7.327
24122WAT     H272609   2.494   5.652   7.375
24123WAT      O72610   9.587   9.618   3.176
24123WAT     H172611   9.650   9.600   3.101
24123WAT     H272612   9.531   9.536   3.193
24124WAT      O72613   6.538   0.638   1.304
24124WAT     H172614   6.585   0.583   1.372
24124WAT     H272615   6.504   0.722   1.346
24125WAT      O72616   9.338   2.263   3.315
24125WAT     H172617   9.340   2.265   3.215
24125WAT     H272618   9.268   2.200   3.346
24126WAT      O72619   6.917   5.624   8.572
24126WAT     H172620   6.981   5.694   8.604
24126WAT     H272621   6.952   5.582   8.489
24127WAT      O72622   0.095   6.993   3.179
24127WAT     H172623   0.004   6.993   3.218
24127WAT     H272624   0.088   6.991   3.079
24128WAT      O72625   4.338   6.208   9.373
24128WAT     H172626   4.383   6.233   9.287
24128WAT     H272627   4.252   6.162   9.353
24129WAT      O72628   5.051   9.681   8.368
24129WAT     H172629   5.133   9.696   8.424
24129WAT     H272630   5.039   9.583   8.353
24130WAT      O72631   7.100   0.224   5.324
24130WAT     H172632   7.192   0.260   5.341
24130WAT     H272633   7.033   0.297   5.335
24131WAT      O72634   0.936   9.083   1.864
24131WAT     H172635   0.974   9.176   1.859
24131WAT     H272636   0.991   9.028   1.928
24132WAT      O72637   4.078   6.401   4.161
24132WAT     H172638   4.094   6.499   4.147
24132WAT     H272639   3.982   6.385   4.183
24133WAT      O72640   0.796   0.510   7.489
24133WAT     H172641   0.867   0.553   7.433
24133WAT     H272642   0.839   0.449   7.556
24134WAT      O72643   0.050   4.251   0.958
24134WAT     H172644   0.098   4.332   0.991
24134WAT     H272645  -0.004   4.212   1.032
24135WAT      O72646   2.324   0.185   6.040
24135WAT     H172647   2.264   0.105   6.039
24135WAT     H272648   2.279   0.261   5.991
24136WAT      O72649   0.611   2.642   6.741
24136WAT     H172650   0.538   2.614   6.804
24136WAT     H272651   0.601   2.739   6.718
24137WAT      O72652   0.188   2.281   0.066
24137WAT     H172653   0.222   2.257  -0.025
24137WAT     H272654   0.240   2.360   0.101
24138WAT      O72655   2.861   4.244   7.837
24138WAT     H172656   2.929   4.276   7.771
24138WAT     H272657   2.882   4.284   7.927
24139WAT      O72658   7.908   1.352   1.161
24139WAT     H172659   7.855   1.293   1.099
24139WAT     H272660   7.982   1.298   1.202
24140WAT      O72661   1.883   5.181   4.588
24140WAT     H172662   1.849   5.099   4.542
24140WAT     H272663   1.822   5.258   4.568
24141WAT      O72664   1.440   6.177   8.968
24141WAT     H172665   1.459   6.266   9.011
24141WAT     H272666   1.512   6.156   8.903
24142WAT      O72667   3.081   1.783   9.291
24142WAT     H172668   3.086   1.733   9.205
24142WAT     H272669   3.168   1.775   9.340
24143WAT      O72670   8.152   4.136   0.552
24143WAT     H172671   8.127   4.056   0.497
24143WAT     H272672   8.087   4.147   0.627
24144WAT      O72673   6.129   5.104   8.998
24144WAT     H172674   6.201   5.075   8.936
24144WAT     H272675   6.160   5.094   9.093
24145WAT      O72676   7.310   3.998   5.276
24145WAT     H172677   7.242   4.070   5.289
24145WAT     H272678   7.384   4.032   5.218
24146WAT      O72679   3.749   1.545   5.315
24146WAT     H172680   3.705   1.578   5.232
24146WAT     H272681   3.701   1.464   5.349
24147WAT      O72682   9.254   7.663   6.428
24147WAT     H172683   9.348   7.631   6.435
24147WAT     H272684   9.252   7.750   6.377
24148WAT      O72685   9.700   1.680   4.490
24148WAT     H172686   9.703   1.603   4.553
24148WAT     H272687   9.618   1.673   4.432
24149WAT      O72688   2.259   8.928   5.279
24149WAT     H172689   2.280   8.896   5.372
24149WAT     H272690   2.344   8.956   5.234
24150WAT      O72691   1.990   5.580   8.965
24150WAT     H172692   2.059   5.623   8.907
24150WAT     H272693   1.925   5.529   8.909
24151WAT      O72694   3.295   5.142   9.756
24151WAT     H172695   3.305   5.044   9.737
24151WAT     H272696   3.198   5.165   9.763
24152WAT      O72697   0.990   8.148   6.127
24152WAT     H172698   1.056   8.191   6.065
24152WAT     H272699   0.937   8.080   6.076
24153WAT      O72700   1.853   7.874   5.959
24153WAT     H172701   1.849   7.894   6.056
24153WAT     H272702   1.829   7.955   5.906
24154WAT      O72703   1.679   8.245   7.567
24154WAT     H172704   1.652   8.338   7.541
24154WAT     H272705   1.770   8.247   7.607
24155WAT      O72706   0.524   8.537   9.542
24155WAT     H172707   0.622   8.517   9.537
24155WAT     H272708   0.511   8.630   9.576
24156WAT      O72709   3.945   2.871   5.694
24156WAT     H172710   3.926   2.800   5.627
24156WAT     H272711   3.921   2.961   5.656
24157WAT      O72712   3.378   3.202   8.532
24157WAT     H172713   3.377   3.141   8.452
24157WAT     H272714   3.444   3.276   8.516
24158WAT      O72715   5.507   7.306   1.595
24158WAT     H172716   5.465   7.388   1.634
24158WAT     H272717   5.493   7.305   1.496
24159WAT      O72718   5.598   1.700   6.220
24159WAT     H172719   5.663   1.719   6.294
24159WAT     H272720   5.544   1.782   6.201
24160WAT      O72721   7.962   1.401   3.581
24160WAT     H172722   7.944   1.469   3.511
24160WAT     H272723   7.876   1.368   3.620
24161WAT      O72724   1.043   3.069   5.306
24161WAT     H172725   1.094   3.113   5.232
24161WAT     H272726   1.084   3.094   5.394
24162WAT      O72727   6.617   2.225   3.442
24162WAT     H172728   6.682   2.291   3.403
24162WAT     H272729   6.545   2.275   3.489
24163WAT      O72730   0.239   5.354   7.327
24163WAT     H172731   0.305   5.287   7.292
24163WAT     H272732   0.211   5.328   7.420
24164WAT      O72733   7.858   3.239   5.934
24164WAT     H172734   7.804   3.308   5.886
24164WAT     H272735   7.830   3.235   6.030
24165WAT      O72736   9.574   1.430   1.573
24165WAT     H172737   9.500   1.435   1.640
24165WAT     H272738   9.557   1.495   1.499
24166WAT      O72739   5.059   2.075   3.463
24166WAT     H172740   5.083   2.005   3.530
24166WAT     H272741   5.070   2.165   3.504
24167WAT      O72742   5.239   4.328   2.897
24167WAT     H172743   5.294   4.389   2.954
24167WAT     H272744   5.283   4.316   2.809
24168WAT      O72745   1.813   0.171   0.024
24168WAT     H172746   1.835   0.255  -0.026
24168WAT     H272747   1.717   0.173   0.054
24169WAT      O72748   9.347   0.322   7.849
24169WAT     H172749   9.408   0.343   7.926
24169WAT     H272750   9.289   0.401   7.830
24170WAT      O72751   2.791   9.714   1.698
24170WAT     H172752   2.798   9.647   1.772
24170WAT     H272753   2.695   9.742   1.688
24171WAT      O72754   2.526   9.213   6.049
24171WAT     H172755   2.608   9.267   6.032
24171WAT     H272756   2.545   9.144   6.119
24172WAT      O72757   2.792   1.266   5.441
24172WAT     H172758   2.818   1.317   5.523
24172WAT     H272759   2.850   1.296   5.365
24173WAT      O72760   2.626   6.554   6.047
24173WAT     H172761   2.664   6.521   6.134
24173WAT     H272762   2.649   6.651   6.036
24174WAT      O72763   5.635   7.547   5.005
24174WAT     H172764   5.541   7.520   5.026
24174WAT     H272765   5.686   7.468   4.972
24175WAT      O72766   3.553   9.490   2.432
24175WAT     H172767   3.494   9.508   2.353
24175WAT     H272768   3.497   9.457   2.508
24176WAT      O72769   9.762   1.313   0.527
24176WAT     H172770   9.681   1.294   0.472
24176WAT     H272771   9.842   1.272   0.483
24177WAT      O72772   5.457   1.860   4.634
24177WAT     H172773   5.476   1.954   4.607
24177WAT     H272774   5.535   1.824   4.684
24178WAT      O72775   4.900   3.320   0.331
24178WAT     H172776   4.837   3.383   0.286
24178WAT     H272777   4.849   3.240   0.364
24179WAT      O72778   5.531   7.676   4.263
24179WAT     H172779   5.629   7.686   4.277
24179WAT     H272780   5.499   7.593   4.309
24180WAT      O72781   8.644   5.146   1.964
24180WAT     H172782   8.700   5.065   1.978
24180WAT     H272783   8.693   5.227   1.996
24181WAT      O72784   6.864   9.620   7.447
24181WAT     H172785   6.841   9.540   7.391
24181WAT     H272786   6.808   9.618   7.531
24182WAT      O72787   3.844   9.668   1.597
24182WAT     H172788   3.893   9.650   1.682
24182WAT     H272789   3.855   9.591   1.535
24183WAT      O72790   1.268   4.653   2.603
24183WAT     H172791   1.194   4.595   2.635
24183WAT     H272792   1.333   4.670   2.678
24184WAT      O72793   1.697   2.308   0.245
24184WAT     H172794   1.684   2.209   0.245
24184WAT     H272795   1.682   2.345   0.153
24185WAT      O72796   3.686   3.942   3.390
24185WAT     H172797   3.723   3.861   3.344
24185WAT     H272798   3.606   3.915   3.444
24186WAT      O72799   5.124   1.649   7.530
24186WAT     H172800   5.171   1.576   7.482
24186WAT     H272801   5.027   1.626   7.540
24187WAT      O72802   2.784   5.534   3.527
24187WAT     H172803   2.850   5.604   3.554
24187WAT     H272804   2.763   5.477   3.606
24188WAT      O72805   9.441   8.747   7.650
24188WAT     H172806   9.359   8.705   7.688
24188WAT     H272807   9.516   8.740   7.716
24189WAT      O72808   3.076   0.120   3.129
24189WAT     H172809   3.033   0.133   3.039
24189WAT     H272810   3.053   0.029   3.164
24190WAT      O72811   8.852   5.618   7.398
24190WAT     H172812   8.949   5.622   7.422
24190WAT     H272813   8.840   5.570   7.311
24191WAT      O72814   2.859   7.030   9.581
24191WAT     H172815   2.836   7.034   9.484
24191WAT     H272816   2.807   6.956   9.624
24192WAT      O72817   8.770   0.190   3.161
24192WAT     H172818   8.847   0.126   3.153
24192WAT     H272819   8.725   0.177   3.249
24193WAT      O72820   8.351   4.478   7.222
24193WAT     H172821   8.358   4.570   7.260
24193WAT     H272822   8.419   4.468   7.148
24194WAT      O72823   5.757   5.342   5.870
24194WAT     H172824   5.660   5.322   5.856
24194WAT     H272825   5.805   5.341   5.783
24195WAT      O72826   2.727   2.159   4.024
24195WAT     H172827   2.790   2.222   3.979
24195WAT     H272828   2.647   2.145   3.966
24196WAT      O72829   8.805   7.831   2.334
24196WAT     H172830   8.867   7.909   2.325
24196WAT     H272831   8.733   7.854   2.400
24197WAT      O72832   0.985   1.414   6.147
24197WAT     H172833   0.916   1.464   6.094
24197WAT     H272834   0.973   1.434   6.244
24198WAT      O72835   0.467   8.435   6.150
24198WAT     H172836   0.492   8.503   6.082
24198WAT     H272837   0.523   8.353   6.138
24199WAT      O72838   0.076   9.021   2.429
24199WAT     H172839   0.018   9.031   2.348
24199WAT     H272840   0.122   9.107   2.449
24200WAT      O72841   5.663   6.254   2.206
24200WAT     H172842   5.755   6.284   2.179
24200WAT     H272843   5.624   6.198   2.133
24201WAT      O72844   6.303   1.007   2.972
24201WAT     H172845   6.370   0.994   2.899
24201WAT     H272846   6.324   0.945   3.048
24202WAT      O72847   0.809   3.124   0.817
24202WAT     H172848   0.734   3.077   0.863
24202WAT     H272849   0.773   3.174   0.739
24203WAT      O72850   1.692   5.708   5.304
24203WAT     H172851   1.673   5.732   5.399
24203WAT     H272852   1.637   5.629   5.278
24204WAT      O72853   7.205   5.121   3.266
24204WAT     H172854   7.302   5.128   3.243
24204WAT     H272855   7.152   5.104   3.183
24205WAT      O72856   8.282   4.121   1.396
24205WAT     H172857   8.314   4.039   1.445
24205WAT     H272858   8.251   4.095   1.305
24206WAT      O72859   5.231   6.803   4.236
24206WAT     H172860   5.224   6.824   4.333
24206WAT     H272861   5.281   6.876   4.189
24207WAT      O72862   0.280   5.275   8.804
24207WAT     H172863   0.252   5.255   8.898
24207WAT     H272864   0.226   5.350   8.768
24208WAT      O72865   3.367   3.049   0.427
24208WAT     H172866   3.337   2.987   0.355
24208WAT     H272867   3.466   3.065   0.419
24209WAT      O72868   0.838   5.266   5.214
24209WAT     H172869   0.846   5.204   5.292
24209WAT     H272870   0.748   5.309   5.214
24210WAT      O72871   7.587   4.487   1.149
24210WAT     H172872   7.563   4.454   1.240
24210WAT     H272873   7.639   4.572   1.156
24211WAT      O72874   6.608   8.676   6.702
24211WAT     H172875   6.530   8.717   6.749
24211WAT     H272876   6.693   8.715   6.739
24212WAT      O72877   1.954   5.305   3.361
24212WAT     H172878   2.023   5.255   3.310
24212WAT     H272879   1.952   5.400   3.330
24213WAT      O72880   0.288   0.763   5.425
24213WAT     H172881   0.248   0.849   5.454
24213WAT     H272882   0.277   0.695   5.498
24214WAT      O72883   7.247   4.827   1.027
24214WAT     H172884   7.206   4.740   1.057
24214WAT     H272885   7.177   4.897   1.023
24215WAT      O72886   0.607   3.088   4.112
24215WAT     H172887   0.655   3.170   4.141
24215WAT     H272888   0.521   3.113   4.067
24216WAT      O72889   8.626   7.804   7.764
24216WAT     H172890   8.574   7.855   7.696
24216WAT     H272891   8.714   7.776   7.725
24217WAT      O72892   5.214   9.700   6.581
24217WAT     H172893   5.297   9.755   6.586
24217WAT     H272894   5.134   9.760   6.592
24218WAT      O72895   0.182   9.689   9.439
24218WAT     H172896   0.189   9.707   9.340
24218WAT     H272897   0.211   9.770   9.489
24219WAT      O72898   3.953   8.240   4.625
24219WAT     H172899   3.992   8.163   4.575
24219WAT     H272900   4.005   8.254   4.710
24220WAT      O72901   8.798   0.798   8.333
24220WAT     H172902   8.723   0.821   8.271
24220WAT     H272903   8.778   0.712   8.380
24221WAT      O72904   8.217   7.147   6.231
24221WAT     H172905   8.251   7.054   6.213
24221WAT     H272906   8.123   7.155   6.198
24222WAT      O72907   1.578   1.442   9.051
24222WAT     H172908   1.500   1.503   9.034
24222WAT     H272909   1.662   1.496   9.051
24223WAT      O72910   9.393   0.289   9.506
24223WAT     H172911   9.370   0.237   9.588
24223WAT     H272912   9.462   0.239   9.453
24224WAT      O72913   7.228   1.342   8.160
24224WAT     H172914   7.262   1.353   8.254
24224WAT     H272915   7.136   1.380   8.153
24225WAT      O72916   6.790   2.284   8.753
24225WAT     H172917   6.862   2.349   8.777
24225WAT     H272918   6.811   2.195   8.792
24226WAT      O72919   3.916   7.686   2.035
24226WAT     H172920   3.936   7.773   1.990
24226WAT     H272921   3.827   7.652   2.004
24227WAT      O72922   2.066   4.249   1.574
24227WAT     H172923   2.126   4.328   1.584
24227WAT     H272924   2.042   4.213   1.665
24228WAT      O72925   0.728   1.683   1.111
24228WAT     H172926   0.786   1.673   1.031
24228WAT     H272927   0.773   1.642   1.190
24229WAT      O72928   9.023   2.866   9.582
24229WAT     H172929   9.064   2.917   9.507
24229WAT     H272930   9.046   2.769   9.573
24230WAT      O72931   6.899   0.827   9.675
24230WAT     H172932   6.977   0.774   9.707
24230WAT     H272933   6.925   0.879   9.594
24231WAT      O72934   4.652   1.441   7.669
24231WAT     H172935   4.672   1.388   7.586
24231WAT     H272936   4.708   1.406   7.744
24232WAT      O72937   6.119   3.116   3.902
24232WAT     H172938   6.131   3.215   3.900
24232WAT     H272939   6.165   3.078   3.982
24233WAT      O72940   6.291   1.724   0.915
24233WAT     H172941   6.303   1.637   0.868
24233WAT     H272942   6.330   1.798   0.860
24234WAT      O72943   4.638   1.379   8.394
24234WAT     H172944   4.580   1.428   8.328
24234WAT     H272945   4.636   1.426   8.482
24235WAT      O72946   7.043   2.547   1.184
24235WAT     H172947   7.113   2.539   1.113
24235WAT     H272948   7.050   2.468   1.246
24236WAT      O72949   4.476   3.442   1.575
24236WAT     H172950   4.470   3.388   1.492
24236WAT     H272951   4.387   3.443   1.621
24237WAT      O72952   2.935   1.672   6.401
24237WAT     H172953   3.001   1.747   6.413
24237WAT     H272954   2.844   1.710   6.387
24238WAT      O72955   3.062   6.045   2.457
24238WAT     H172956   3.093   5.970   2.515
24238WAT     H272957   2.986   6.092   2.502
24239WAT      O72958   8.383   9.097   6.824
24239WAT     H172959   8.388   9.119   6.726
24239WAT     H272960   8.420   9.006   6.840
24240WAT      O72961   2.521   9.475   5.074
24240WAT     H172962   2.489   9.384   5.047
24240WAT     H272963   2.598   9.501   5.015
24241WAT      O72964   7.369   1.760   8.863
24241WAT     H172965   7.329   1.832   8.806
24241WAT     H272966   7.306   1.736   8.936
24242WAT      O72967   6.690   7.409   1.726
24242WAT     H172968   6.722   7.443   1.637
24242WAT     H272969   6.592   7.389   1.720
24243WAT      O72970   7.992   1.547   0.980
24243WAT     H172971   7.948   1.502   1.058
24243WAT     H272972   8.085   1.511   0.969
24244WAT      O72973   0.609   2.499   9.204
24244WAT     H172974   0.612   2.490   9.104
24244WAT     H272975   0.555   2.425   9.242
24245WAT      O72976   5.872   5.110   3.123
24245WAT     H172977   5.927   5.055   3.185
24245WAT     H272978   5.777   5.078   3.125
24246WAT      O72979   6.803   8.290   6.178
24246WAT     H172980   6.706   8.270   6.163
24246WAT     H272981   6.823   8.382   6.143
24247WAT      O72982   6.470   0.781   7.307
24247WAT     H172983   6.494   0.810   7.399
24247WAT     H272984   6.554   0.768   7.253
24248WAT      O72985   0.771   3.617   0.252
24248WAT     H172986   0.729   3.708   0.255
24248WAT     H272987   0.866   3.625   0.223
24249WAT      O72988   4.610   8.753   1.419
24249WAT     H172989   4.535   8.809   1.454
24249WAT     H272990   4.615   8.668   1.470
24250WAT      O72991   9.057   2.060   5.636
24250WAT     H172992   9.087   2.148   5.673
24250WAT     H272993   9.086   1.987   5.698
24251WAT      O72994   9.584   9.791   7.056
24251WAT     H172995   9.493   9.815   7.024
24251WAT     H272996   9.580   9.704   7.106
24252WAT      O72997   3.299   6.915   4.882
24252WAT     H172998   3.231   6.982   4.913
24252WAT     H272999   3.373   6.910   4.949
24253WAT      O73000   5.790   4.151   5.423
24253WAT     H173001   5.795   4.144   5.324
24253WAT     H273002   5.727   4.225   5.448
24254WAT      O73003   7.235   5.948   9.471
24254WAT     H173004   7.295   5.905   9.404
24254WAT     H273005   7.290   5.995   9.540
24255WAT      O73006   3.529   5.378   8.119
24255WAT     H173007   3.446   5.420   8.156
24255WAT     H273008   3.552   5.420   8.031
24256WAT      O73009   9.298   6.402   7.607
24256WAT     H173010   9.324   6.417   7.702
24256WAT     H273011   9.225   6.466   7.582
24257WAT      O73012   7.880   7.893   0.865
24257WAT     H173013   7.891   7.795   0.847
24257WAT     H273014   7.967   7.940   0.849
24258WAT      O73015   0.543   7.765   2.370
24258WAT     H173016   0.637   7.743   2.343
24258WAT     H273017   0.488   7.681   2.368
24259WAT      O73018   1.117   4.977   7.812
24259WAT     H173019   1.018   4.969   7.798
24259WAT     H273020   1.157   5.028   7.736
24260WAT      O73021   6.745   4.875   3.060
24260WAT     H173022   6.696   4.962   3.052
24260WAT     H273023   6.738   4.825   2.974
24261WAT      O73024   0.854   0.421   0.878
24261WAT     H173025   0.951   0.401   0.865
24261WAT     H273026   0.840   0.520   0.882
24262WAT      O73027   3.557   1.782   1.719
24262WAT     H173028   3.467   1.743   1.698
24262WAT     H273029   3.620   1.762   1.645
24263WAT      O73030   6.159   8.928   2.484
24263WAT     H173031   6.093   8.877   2.429
24263WAT     H273032   6.126   9.022   2.498
24264WAT      O73033   9.381   8.643   6.621
24264WAT     H173034   9.459   8.701   6.598
24264WAT     H273035   9.411   8.549   6.635
24265WAT      O73036   3.684   8.657   3.069
24265WAT     H173037   3.608   8.670   3.132
24265WAT     H273038   3.740   8.579   3.098
24266WAT      O73039   2.280   3.508   4.015
24266WAT     H173040   2.216   3.542   4.084
24266WAT     H273041   2.322   3.424   4.048
24267WAT      O73042   9.792   5.971   3.432
24267WAT     H173043   9.792   5.978   3.532
24267WAT     H273044   9.698   5.957   3.400
24268WAT      O73045   5.805   8.310   1.033
24268WAT     H173046   5.849   8.328   1.121
24268WAT     H273047   5.706   8.308   1.044
24269WAT      O73048   2.515   0.711   0.079
24269WAT     H173049   2.544   0.669  -0.007
24269WAT     H273050   2.592   0.714   0.143
24270WAT      O73051   4.563   4.742   7.450
24270WAT     H173052   4.525   4.826   7.412
24270WAT     H273053   4.512   4.716   7.532
24271WAT      O73054   5.986   4.522   2.839
24271WAT     H173055   6.044   4.603   2.831
24271WAT     H273056   5.893   4.545   2.808
24272WAT      O73057   4.286   6.195   1.051
24272WAT     H173058   4.265   6.143   1.133
24272WAT     H273059   4.263   6.292   1.066
24273WAT      O73060   0.967   2.285   5.182
24273WAT     H173061   0.954   2.339   5.265
24273WAT     H273062   1.013   2.341   5.113
24274WAT      O73063   5.248   1.334   5.136
24274WAT     H173064   5.334   1.292   5.165
24274WAT     H273065   5.241   1.426   5.175
24275WAT      O73066   7.543   4.045   6.589
24275WAT     H173067   7.496   4.020   6.505
24275WAT     H273068   7.517   4.138   6.615
24276WAT      O73069   6.485   4.099   1.594
24276WAT     H173070   6.485   4.001   1.571
24276WAT     H273071   6.560   4.118   1.656
24277WAT      O73072   3.813   3.863   2.368
24277WAT     H173073   3.894   3.815   2.400
24277WAT     H273074   3.841   3.941   2.312
24278WAT      O73075   0.920   4.732   1.541
24278WAT     H173076   0.823   4.744   1.561
24278WAT     H273077   0.974   4.788   1.603
24279WAT      O73078   9.713   7.697   2.626
24279WAT     H173079   9.804   7.705   2.586
24279WAT     H273080   9.662   7.781   2.609
24280WAT      O73081   6.070   0.752   3.891
24280WAT     H173082   6.122   0.668   3.910
24280WAT     H273083   6.089   0.820   3.962
24281WAT      O73084   9.524   8.056   9.393
24281WAT     H173085   9.453   8.047   9.323
24281WAT     H273086   9.587   7.978   9.386
24282WAT      O73087   3.573   8.539   3.751
24282WAT     H173088   3.641   8.547   3.824
24282WAT     H273089   3.620   8.524   3.663
24283WAT      O73090   4.573   6.945   8.888
24283WAT     H173091   4.629   6.867   8.862
24283WAT     H273092   4.478   6.916   8.898
24284WAT      O73093   0.168   4.003   5.217
24284WAT     H173094   0.170   4.016   5.316
24284WAT     H273095   0.260   4.013   5.179
24285WAT      O73096   6.155   9.780   4.776
24285WAT     H173097   6.104   9.814   4.855
24285WAT     H273098   6.252   9.802   4.788
24286WAT      O73099   4.405   7.448   4.782
24286WAT     H173100   4.436   7.421   4.691
24286WAT     H273101   4.485   7.468   4.839
24287WAT      O73102   5.694   2.110   8.415
24287WAT     H173103   5.709   2.099   8.513
24287WAT     H273104   5.719   2.203   8.387
24288WAT      O73105   2.271   8.347   0.570
24288WAT     H173106   2.283   8.381   0.477
24288WAT     H273107   2.173   8.348   0.593
24289WAT      O73108   1.210   7.937   6.333
24289WAT     H173109   1.220   7.915   6.430
24289WAT     H273110   1.287   7.901   6.282
24290WAT      O73111   3.829   6.815   3.672
24290WAT     H173112   3.768   6.736   3.679
24290WAT     H273113   3.906   6.803   3.735
24291WAT      O73114   2.085   7.310   9.845
24291WAT     H173115   2.157   7.370   9.880
24291WAT     H273116   2.031   7.360   9.777
24292WAT      O73117   9.799   7.950   7.120
24292WAT     H173118   9.857   7.959   7.201
24292WAT     H273119   9.736   7.873   7.132
24293WAT      O73120   0.459   3.172   9.446
24293WAT     H173121   0.559   3.175   9.447
24293WAT     H273122   0.428   3.086   9.406
24294WAT      O73123   2.471   8.404   8.654
24294WAT     H173124   2.521   8.330   8.610
24294WAT     H273125   2.524   8.489   8.645
24295WAT      O73126   3.680   4.672   0.455
24295WAT     H173127   3.724   4.583   0.447
24295WAT     H273128   3.738   4.734   0.509
24296WAT      O73129   8.500   8.597   9.766
24296WAT     H173130   8.467   8.553   9.850
24296WAT     H273131   8.484   8.696   9.772
24297WAT      O73132   1.983   5.325   3.633
24297WAT     H173133   2.050   5.258   3.664
24297WAT     H273134   1.977   5.323   3.533
24298WAT      O73135   7.356   9.598   8.876
24298WAT     H173136   7.294   9.616   8.800
24298WAT     H273137   7.323   9.520   8.929
24299WAT      O73138   8.117   8.944   7.809
24299WAT     H173139   8.121   8.875   7.881
24299WAT     H273140   8.079   9.029   7.845
24300WAT      O73141   2.660   1.793   8.419
24300WAT     H173142   2.695   1.824   8.331
24300WAT     H273143   2.575   1.842   8.441
24301WAT      O73144   2.932   8.344   7.833
24301WAT     H173145   2.931   8.288   7.916
24301WAT     H273146   2.843   8.388   7.821
24302WAT      O73147   0.151   6.804   4.252
24302WAT     H173148   0.075   6.819   4.190
24302WAT     H273149   0.220   6.876   4.239
24303WAT      O73150   6.464   5.115   5.498
24303WAT     H173151   6.399   5.148   5.430
24303WAT     H273152   6.544   5.174   5.499
24304WAT      O73153   9.112   2.082   8.308
24304WAT     H173154   9.112   2.164   8.249
24304WAT     H273155   9.180   2.093   8.380
24305WAT      O73156   7.649   7.560   2.543
24305WAT     H173157   7.557   7.543   2.579
24305WAT     H273158   7.712   7.576   2.619
24306WAT      O73159   1.402   4.574   3.769
24306WAT     H173160   1.449   4.544   3.852
24306WAT     H273161   1.304   4.557   3.778
24307WAT      O73162   4.995   3.809   8.455
24307WAT     H173163   4.918   3.871   8.469
24307WAT     H273164   5.080   3.859   8.466
24308WAT      O73165   3.253   5.301   6.595
24308WAT     H173166   3.188   5.376   6.612
24308WAT     H273167   3.218   5.243   6.522
24309WAT      O73168   5.976   4.431   1.212
24309WAT     H173169   5.984   4.503   1.280
24309WAT     H273170   5.881   4.426   1.181
24310WAT      O73171   3.966   2.591   6.843
24310WAT     H173172   4.028   2.614   6.768
24310WAT     H273173   3.904   2.519   6.813
24311WAT      O73174   7.269   1.673   4.457
24311WAT     H173175   7.273   1.773   4.445
24311WAT     H273176   7.298   1.650   4.549
24312WAT      O73177   8.958   9.589   6.598
24312WAT     H173178   8.983   9.552   6.508
24312WAT     H273179   8.873   9.640   6.591
24313WAT      O73180   8.063   4.363   8.841
24313WAT     H173181   8.080   4.435   8.909
24313WAT     H273182   8.021   4.284   8.887
24314WAT      O73183   1.808   1.642   5.007
24314WAT     H173184   1.843   1.609   5.095
24314WAT     H273185   1.797   1.565   4.945
24315WAT      O73186   5.331   4.207   9.402
24315WAT     H173187   5.302   4.123   9.357
24315WAT     H273188   5.365   4.271   9.333
24316WAT      O73189   5.037   7.551   9.645
24316WAT     H173190   4.961   7.522   9.702
24316WAT     H273191   5.108   7.479   9.646
24317WAT      O73192   4.622   1.302   2.146
24317WAT     H173193   4.536   1.343   2.115
24317WAT     H273194   4.604   1.236   2.218
24318WAT      O73195   7.300   5.209   0.195
24318WAT     H173196   7.350   5.157   0.125
24318WAT     H273197   7.361   5.225   0.273
24319WAT      O73198   8.232   5.990   4.401
24319WAT     H173199   8.323   6.010   4.365
24319WAT     H273200   8.163   6.033   4.344
24320WAT      O73201   4.431   9.588   1.524
24320WAT     H173202   4.374   9.567   1.445
24320WAT     H273203   4.374   9.595   1.606
24321WAT      O73204   5.555   6.920   6.848
24321WAT     H173205   5.490   6.932   6.773
24321WAT     H273206   5.506   6.899   6.932
24322WAT      O73207   2.463   8.086   4.555
24322WAT     H173208   2.553   8.083   4.599
24322WAT     H273209   2.474   8.118   4.460
24323WAT      O73210   8.364   8.756   6.752
24323WAT     H173211   8.370   8.803   6.664
24323WAT     H273212   8.342   8.660   6.738
24324WAT      O73213   0.954   4.981   3.906
24324WAT     H173214   0.903   4.896   3.894
24324WAT     H273215   0.909   5.038   3.974
24325WAT      O73216   6.706   5.691   7.377
24325WAT     H173217   6.778   5.730   7.434
24325WAT     H273218   6.723   5.714   7.281
24326WAT      O73219   2.200   3.877   7.166
24326WAT     H173220   2.175   3.799   7.109
24326WAT     H273221   2.128   3.894   7.233
24327WAT      O73222   1.226   5.034   3.798
24327WAT     H173223   1.133   5.007   3.825
24327WAT     H273224   1.221   5.100   3.723
24328WAT      O73225   8.265   5.592   4.723
24328WAT     H173226   8.266   5.493   4.709
24328WAT     H273227   8.215   5.636   4.649
24329WAT      O73228   7.806   3.202   8.276
24329WAT     H173229   7.893   3.235   8.239
24329WAT     H273230   7.770   3.130   8.216
24330WAT      O73231   1.858   4.757   0.644
24330WAT     H173232   1.790   4.705   0.591
24330WAT     H273233   1.825   4.850   0.658
24331WAT      O73234   8.090   9.752   3.878
24331WAT     H173235   8.024   9.776   3.807
24331WAT     H273236   8.142   9.833   3.905
24332WAT      O73237   5.814   2.455   1.135
24332WAT     H173238   5.814   2.382   1.203
24332WAT     H273239   5.870   2.429   1.057
24333WAT      O73240   7.150   9.606   3.538
24333WAT     H173241   7.132   9.695   3.579
24333WAT     H273242   7.246   9.600   3.513
24334WAT      O73243   8.252   5.932   7.064
24334WAT     H173244   8.318   5.972   7.128
24334WAT     H273245   8.234   5.998   6.991
24335WAT      O73246   9.659   8.465   8.161
24335WAT     H173247   9.690   8.441   8.253
24335WAT     H273248   9.613   8.554   8.163
24336WAT      O73249   9.679   4.888   5.397
24336WAT     H173250   9.637   4.935   5.475
24336WAT     H273251   9.682   4.949   5.318
24337WAT      O73252   0.579   2.477   5.782
24337WAT     H173253   0.592   2.401   5.846
24337WAT     H273254   0.504   2.455   5.720
24338WAT      O73255   1.517   2.209   6.449
24338WAT     H173256   1.488   2.196   6.354
24338WAT     H273257   1.490   2.129   6.503
24339WAT      O73258   7.123   7.465   7.827
24339WAT     H173259   7.046   7.518   7.861
24339WAT     H273260   7.103   7.430   7.736
24340WAT      O73261   5.936   8.082   3.266
24340WAT     H173262   5.905   8.022   3.339
24340WAT     H273263   6.030   8.059   3.242
24341WAT      O73264   2.554   2.465   7.464
24341WAT     H173265   2.549   2.398   7.390
24341WAT     H273266   2.510   2.550   7.436
24342WAT      O73267   3.846   9.340   0.951
24342WAT     H173268   3.804   9.271   1.010
24342WAT     H273269   3.858   9.303   0.859
24343WAT      O73270   4.857   8.847   1.325
24343WAT     H173271   4.764   8.812   1.339
24343WAT     H273272   4.906   8.785   1.263
24344WAT      O73273   3.429   0.500   3.057
24344WAT     H173274   3.391   0.411   3.084
24344WAT     H273275   3.375   0.537   2.982
24345WAT      O73276   3.259   5.899   5.564
24345WAT     H173277   3.185   5.911   5.498
24345WAT     H273278   3.223   5.916   5.656
24346WAT      O73279   6.777   6.279   8.321
24346WAT     H173280   6.742   6.195   8.279
24346WAT     H273281   6.830   6.330   8.253
24347WAT      O73282   6.736   6.251   5.226
24347WAT     H173283   6.762   6.230   5.132
24347WAT     H273284   6.777   6.185   5.288
24348WAT      O73285   0.291   8.878   7.745
24348WAT     H173286   0.221   8.941   7.710
24348WAT     H273287   0.246   8.802   7.792
24349WAT      O73288   0.115   2.279   3.923
24349WAT     H173289   0.152   2.187   3.934
24349WAT     H273290   0.133   2.332   4.006
24350WAT      O73291   4.458   5.252   2.841
24350WAT     H173292   4.446   5.162   2.885
24350WAT     H273293   4.462   5.322   2.912
24351WAT      O73294   3.418   5.198   9.082
24351WAT     H173295   3.438   5.130   9.153
24351WAT     H273296   3.344   5.258   9.112
24352WAT      O73297   0.552   1.471   0.946
24352WAT     H173298   0.573   1.427   0.858
24352WAT     H273299   0.615   1.547   0.961
24353WAT      O73300   6.253   8.986   9.373
24353WAT     H173301   6.219   8.916   9.309
24353WAT     H273302   6.266   9.072   9.324
24354WAT      O73303   5.386   6.395   9.645
24354WAT     H173304   5.481   6.369   9.634
24354WAT     H273305   5.339   6.387   9.557
24355WAT      O73306   7.239   7.222   3.224
24355WAT     H173307   7.241   7.123   3.235
24355WAT     H273308   7.290   7.265   3.297
24356WAT      O73309   3.945   4.874   2.426
24356WAT     H173310   3.942   4.872   2.526
24356WAT     H273311   3.871   4.820   2.389
24357WAT      O73312   9.447   0.635   0.459
24357WAT     H173313   9.526   0.606   0.513
24357WAT     H273314   9.459   0.730   0.430
24358WAT      O73315   6.955   2.446   2.250
24358WAT     H173316   7.053   2.427   2.247
24358WAT     H273317   6.928   2.470   2.343
24359WAT      O73318   4.303   6.199   8.440
24359WAT     H173319   4.244   6.193   8.359
24359WAT     H273320   4.254   6.245   8.514
24360WAT      O73321   8.693   8.497   9.264
24360WAT     H173322   8.730   8.498   9.171
24360WAT     H273323   8.700   8.589   9.303
24361WAT      O73324   3.605   2.492   4.899
24361WAT     H173325   3.600   2.592   4.908
24361WAT     H273326   3.518   2.452   4.927
24362WAT      O73327   5.137   5.209   0.975
24362WAT     H173328   5.111   5.293   1.022
24362WAT     H273329   5.133   5.132   1.038
24363WAT      O73330   2.345   2.196   1.451
24363WAT     H173331   2.371   2.247   1.533
24363WAT     H273332   2.416   2.129   1.429
24364WAT      O73333   8.215   2.711   3.091
24364WAT     H173334   8.123   2.747   3.104
24364WAT     H273335   8.224   2.671   3.000
24365WAT      O73336   8.326   3.874   8.776
24365WAT     H173337   8.312   3.893   8.873
24365WAT     H273338   8.240   3.885   8.727
24366WAT      O73339   3.101   8.452   8.648
24366WAT     H173340   3.124   8.474   8.743
24366WAT     H273341   3.055   8.364   8.645
24367WAT      O73342   8.619   6.732   8.541
24367WAT     H173343   8.666   6.785   8.471
24367WAT     H273344   8.523   6.759   8.545
24368WAT      O73345   6.173   5.218   5.783
24368WAT     H173346   6.157   5.270   5.867
24368WAT     H273347   6.263   5.175   5.787
24369WAT      O73348   9.653   6.073   2.958
24369WAT     H173349   9.613   6.006   3.021
24369WAT     H273350   9.580   6.130   2.920
24370WAT      O73351   4.654   4.146   5.409
24370WAT     H173352   4.641   4.056   5.368
24370WAT     H273353   4.752   4.167   5.413
24371WAT      O73354   5.084   0.549   2.444
24371WAT     H173355   5.156   0.614   2.469
24371WAT     H273356   5.112   0.498   2.363
24372WAT      O73357   5.567   5.135   9.720
24372WAT     H173358   5.608   5.217   9.759
24372WAT     H273359   5.477   5.157   9.684
24373WAT      O73360   7.204   4.160   6.028
24373WAT     H173361   7.270   4.156   5.953
24373WAT     H273362   7.222   4.242   6.083
24374WAT      O73363   4.524   5.648   9.859
24374WAT     H173364   4.441   5.615   9.905
24374WAT     H273365   4.546   5.740   9.892
24375WAT      O73366   0.867   1.766   7.807
24375WAT     H173367   0.859   1.717   7.895
24375WAT     H273368   0.786   1.746   7.752
24376WAT      O73369   7.863   5.446   8.497
24376WAT     H173370   7.872   5.537   8.458
24376WAT     H273371   7.943   5.391   8.473
24377WAT      O73372   6.910   7.840   4.306
24377WAT     H173373   6.924   7.861   4.209
24377WAT     H273374   6.845   7.764   4.314
24378WAT      O73375   2.822   8.126   5.476
24378WAT     H173376   2.799   8.041   5.428
24378WAT     H273377   2.845   8.105   5.571
24379WAT      O73378   5.886   6.463   5.088
24379WAT     H173379   5.866   6.377   5.135
24379WAT     H273380   5.804   6.520   5.086
24380WAT      O73381   0.890   1.700   9.720
24380WAT     H173382   0.817   1.712   9.652
24380WAT     H273383   0.869   1.756   9.801
24381WAT      O73384   1.925   1.546   8.111
24381WAT     H173385   1.959   1.628   8.157
24381WAT     H273386   1.979   1.530   8.028
24382WAT      O73387   2.992   7.887   2.338
24382WAT     H173388   3.022   7.965   2.392
24382WAT     H273389   3.032   7.803   2.375
24383WAT      O73390   8.935   3.478   4.976
24383WAT     H173391   9.033   3.494   4.981
24383WAT     H273392   8.917   3.383   4.953
24384WAT      O73393   3.184   5.877   6.903
24384WAT     H173394   3.167   5.785   6.940
24384WAT     H273395   3.281   5.900   6.915
24385WAT      O73396   3.479   6.786   8.022
24385WAT     H173397   3.544   6.833   7.962
24385WAT     H273398   3.449   6.701   7.978
24386WAT      O73399   5.052   1.083   8.871
24386WAT     H173400   5.061   1.110   8.967
24386WAT     H273401   4.989   1.006   8.864
24387WAT      O73402   3.391   0.833   5.366
24387WAT     H173403   3.389   0.932   5.378
24387WAT     H273404   3.348   0.809   5.279
24388WAT      O73405   4.360   2.989   1.833
24388WAT     H173406   4.260   2.993   1.841
24388WAT     H273407   4.391   2.898   1.858
24389WAT      O73408   6.875   2.335   5.295
24389WAT     H173409   6.927   2.380   5.367
24389WAT     H273410   6.845   2.245   5.326
24390WAT      O73411   9.224   8.597   7.749
24390WAT     H173412   9.292   8.561   7.814
24390WAT     H273413   9.210   8.531   7.676
24391WAT      O73414   0.973   3.337   8.643
24391WAT     H173415   0.969   3.243   8.676
24391WAT     H273416   0.969   3.338   8.543
24392WAT      O73417   1.830   2.374   2.995
24392WAT     H173418   1.821   2.309   3.071
24392WAT     H273419   1.921   2.417   2.999
24393WAT      O73420   8.015   2.160   3.894
24393WAT     H173421   8.050   2.225   3.826
24393WAT     H273422   8.092   2.124   3.948
24394WAT      O73423   7.921   2.601   9.585
24394WAT     H173424   7.856   2.542   9.633
24394WAT     H273425   7.888   2.617   9.492
24395WAT      O73426   9.169   9.799   6.604
24395WAT     H173427   9.115   9.717   6.622
24395WAT     H273428   9.252   9.774   6.555
24396WAT      O73429   1.864   6.337   6.982
24396WAT     H173430   1.844   6.431   6.955
24396WAT     H273431   1.853   6.276   6.904
24397WAT      O73432   6.865   4.356   2.057
24397WAT     H173433   6.874   4.376   1.960
24397WAT     H273434   6.919   4.275   2.080
24398WAT      O73435   5.922   4.092   4.009
24398WAT     H173436   5.926   4.191   3.996
24398WAT     H273437   5.828   4.060   3.994
24399WAT      O73438   7.469   9.661   0.097
24399WAT     H173439   7.471   9.664   0.197
24399WAT     H273440   7.378   9.688   0.064
24400WAT      O73441   7.079   3.924   3.160
24400WAT     H173442   7.075   4.018   3.192
24400WAT     H273443   7.040   3.863   3.229
24401WAT      O73444   6.541   3.131   9.695
24401WAT     H173445   6.460   3.183   9.723
24401WAT     H273446   6.558   3.147   9.598
24402WAT      O73447   0.927   7.627   5.397
24402WAT     H173448   0.904   7.666   5.308
24402WAT     H273449   0.913   7.696   5.468
24403WAT      O73450   0.815   1.207   4.834
24403WAT     H173451   0.886   1.164   4.889
24403WAT     H273452   0.727   1.199   4.880
24404WAT      O73453   2.108   2.121   5.217
24404WAT     H173454   2.083   2.202   5.270
24404WAT     H273455   2.095   2.140   5.119
24405WAT      O73456   6.933   6.942   7.002
24405WAT     H173457   7.007   6.966   7.064
24405WAT     H273458   6.892   7.025   6.965
24406WAT      O73459   3.834   4.829   3.653
24406WAT     H173460   3.879   4.798   3.569
24406WAT     H273461   3.784   4.754   3.695
24407WAT      O73462   8.418   1.858   9.820
24407WAT     H173463   8.376   1.774   9.855
24407WAT     H273464   8.447   1.844   9.726
24408WAT      O73465   4.686   7.028   3.536
24408WAT     H173466   4.706   7.114   3.488
24408WAT     H273467   4.592   7.001   3.517
24409WAT      O73468   2.872   4.126   6.094
24409WAT     H173469   2.936   4.049   6.103
24409WAT     H273470   2.905   4.188   6.023
24410WAT      O73471   8.196   6.507   0.652
24410WAT     H173472   8.110   6.548   0.622
24410WAT     H273473   8.177   6.422   0.701
24411WAT      O73474   1.487   4.328   6.191
24411WAT     H173475   1.453   4.257   6.252
24411WAT     H273476   1.587   4.327   6.190
24412WAT      O73477   6.380   6.741   4.355
24412WAT     H173478   6.426   6.765   4.269
24412WAT     H273479   6.407   6.649   4.382
24413WAT      O73480   0.963   5.074   2.642
24413WAT     H173481   0.966   5.080   2.542
24413WAT     H273482   1.029   5.006   2.673
24414WAT      O73483   5.473   4.812   8.965
24414WAT     H173484   5.434   4.891   8.917
24414WAT     H273485   5.548   4.843   9.024
24415WAT      O73486   5.303   6.609   9.796
24415WAT     H173487   5.346   6.535   9.743
24415WAT     H273488   5.260   6.571   9.877
24416WAT      O73489   3.497   6.782   3.444
24416WAT     H173490   3.564   6.729   3.496
24416WAT     H273491   3.405   6.746   3.462
24417WAT      O73492   7.585   1.728   4.098
24417WAT     H173493   7.656   1.672   4.055
24417WAT     H273494   7.521   1.668   4.147
24418WAT      O73495   0.202   9.414   7.204
24418WAT     H173496   0.124   9.477   7.206
24418WAT     H273497   0.189   9.342   7.272
24419WAT      O73498   6.320   6.280   2.852
24419WAT     H173499   6.270   6.210   2.902
24419WAT     H273500   6.408   6.297   2.896
24420WAT      O73501   0.614   0.375   6.337
24420WAT     H173502   0.703   0.335   6.317
24420WAT     H273503   0.611   0.469   6.303
24421WAT      O73504   2.896   1.909   3.542
24421WAT     H173505   2.826   1.841   3.521
24421WAT     H273506   2.867   1.998   3.507
24422WAT      O73507   8.996   2.313   3.767
24422WAT     H173508   9.021   2.366   3.847
24422WAT     H273509   8.899   2.329   3.745
24423WAT      O73510   7.253   7.317   5.215
24423WAT     H173511   7.262   7.251   5.141
24423WAT     H273512   7.235   7.408   5.178
24424WAT      O73513   6.702   7.784   1.087
24424WAT     H173514   6.797   7.813   1.097
24424WAT     H273515   6.672   7.742   1.172
24425WAT      O73516   7.448   4.444   9.207
24425WAT     H173517   7.506   4.426   9.287
24425WAT     H273518   7.505   4.452   9.125
24426WAT      O73519   7.087   7.743   9.122
24426WAT     H173520   7.054   7.668   9.065
24426WAT     H273521   7.083   7.715   9.218
24427WAT      O73522   7.060   2.024   9.021
24427WAT     H173523   7.152   2.055   8.995
24427WAT     H273524   7.007   2.007   8.938
24428WAT      O73525   7.051   5.143   4.713
24428WAT     H173526   7.030   5.237   4.685
24428WAT     H273527   7.009   5.079   4.649
24429WAT      O73528   7.676   9.417   8.515
24429WAT     H173529   7.689   9.466   8.428
24429WAT     H273530   7.580   9.392   8.525
24430WAT      O73531   1.642   6.068   7.835
24430WAT     H173532   1.589   6.152   7.843
24430WAT     H273533   1.684   6.047   7.924
24431WAT      O73534   2.366   3.367   6.783
24431WAT     H173535   2.336   3.362   6.878
24431WAT     H273536   2.457   3.327   6.775
24432WAT      O73537   0.195   2.786   2.316
24432WAT     H173538   0.129   2.794   2.241
24432WAT     H273539   0.248   2.871   2.323
24433WAT      O73540   4.000   5.604   4.888
24433WAT     H173541   4.015   5.687   4.941
24433WAT     H273542   3.907   5.570   4.904
24434WAT      O73543   3.398   8.782   2.109
24434WAT     H173544   3.370   8.706   2.168
24434WAT     H273545   3.381   8.869   2.155
24435WAT      O73546   0.929   1.523   6.411
24435WAT     H173547   0.887   1.614   6.406
24435WAT     H273548   1.023   1.532   6.446
24436WAT      O73549   0.639   0.952   4.580
24436WAT     H173550   0.684   0.876   4.627
24436WAT     H273551   0.553   0.973   4.626
24437WAT      O73552   9.702   2.262   0.314
24437WAT     H173553   9.736   2.189   0.373
24437WAT     H273554   9.635   2.317   0.364
24438WAT      O73555   7.869   2.528   1.304
24438WAT     H173556   7.892   2.622   1.278
24438WAT     H273557   7.889   2.467   1.227
24439WAT      O73558   0.854   2.459   5.347
24439WAT     H173559   0.878   2.409   5.431
24439WAT     H273560   0.904   2.545   5.345
24440WAT      O73561   3.235   7.329   8.420
24440WAT     H173562   3.215   7.426   8.437
24440WAT     H273563   3.187   7.299   8.338
24441WAT      O73564   1.969   9.516   0.033
24441WAT     H173565   1.967   9.595  -0.028
24441WAT     H273566   1.947   9.546   0.126
24442WAT      O73567   9.603   5.026   2.403
24442WAT     H173568   9.684   5.083   2.405
24442WAT     H273569   9.600   4.969   2.485
24443WAT      O73570   3.521   8.995   6.280
24443WAT     H173571   3.559   8.956   6.195
24443WAT     H273572   3.513   9.094   6.269
24444WAT      O73573   3.243   8.660   0.448
24444WAT     H173574   3.190   8.585   0.408
24444WAT     H273575   3.181   8.724   0.494
24445WAT      O73576   3.490   9.273   1.012
24445WAT     H173577   3.488   9.370   1.037
24445WAT     H273578   3.442   9.220   1.082
24446WAT      O73579   6.813   8.104   2.461
24446WAT     H173580   6.756   8.036   2.507
24446WAT     H273581   6.873   8.058   2.395
24447WAT      O73582   8.912   6.533   2.180
24447WAT     H173583   8.850   6.525   2.258
24447WAT     H273584   8.866   6.500   2.098
24448WAT      O73585   4.953   1.514   0.158
24448WAT     H173586   4.996   1.563   0.235
24448WAT     H273587   4.989   1.421   0.154
24449WAT      O73588   4.746   7.973   4.076
24449WAT     H173589   4.795   7.958   3.990
24449WAT     H273590   4.735   7.886   4.124
24450WAT      O73591   6.165   1.119   7.585
24450WAT     H173592   6.075   1.163   7.592
24450WAT     H273593   6.153   1.024   7.558
24451WAT      O73594   6.493   8.885   4.746
24451WAT     H173595   6.486   8.814   4.815
24451WAT     H273596   6.587   8.890   4.712
24452WAT      O73597   5.470   2.320   7.736
24452WAT     H173598   5.559   2.281   7.713
24452WAT     H273599   5.399   2.249   7.726
24453WAT      O73600   2.352   2.637   7.307
24453WAT     H173601   2.263   2.649   7.263
24453WAT     H273602   2.424   2.676   7.249
24454WAT      O73603   1.675   2.967   0.228
24454WAT     H173604   1.634   3.053   0.259
24454WAT     H273605   1.614   2.923   0.163
24455WAT      O73606   6.019   3.108   9.494
24455WAT     H173607   6.067   3.139   9.412
24455WAT     H273608   6.011   3.009   9.493
24456WAT      O73609   3.327   8.082   0.794
24456WAT     H173610   3.344   8.131   0.880
24456WAT     H273611   3.353   7.987   0.804
24457WAT      O73612   3.164   9.079   1.946
24457WAT     H173613   3.215   9.165   1.944
24457WAT     H273614   3.078   9.090   1.897
24458WAT      O73615   8.190   2.033   4.278
24458WAT     H173616   8.115   2.098   4.267
24458WAT     H273617   8.169   1.969   4.352
24459WAT      O73618   6.433   7.918   1.140
24459WAT     H173619   6.501   7.847   1.159
24459WAT     H273620   6.476   8.008   1.150
24460WAT      O73621   2.391   6.664   9.066
24460WAT     H173622   2.327   6.587   9.073
24460WAT     H273623   2.442   6.657   8.980
24461WAT      O73624   5.681   6.287   6.760
24461WAT     H173625   5.766   6.281   6.709
24461WAT     H273626   5.690   6.354   6.834
24462WAT      O73627   8.845   6.076   2.170
24462WAT     H173628   8.912   6.034   2.108
24462WAT     H273629   8.894   6.127   2.240
24463WAT      O73630   8.079   1.785   5.642
24463WAT     H173631   8.069   1.769   5.544
24463WAT     H273632   8.093   1.698   5.688
24464WAT      O73633   5.500   4.589   7.951
24464WAT     H173634   5.452   4.661   7.900
24464WAT     H273635   5.469   4.500   7.919
24465WAT      O73636   4.574   7.377   4.561
24465WAT     H173637   4.662   7.371   4.515
24465WAT     H273638   4.513   7.306   4.527
24466WAT      O73639   3.647   2.530   8.477
24466WAT     H173640   3.719   2.511   8.410
24466WAT     H273641   3.579   2.457   8.473
24467WAT      O73642   9.894   6.587   3.623
24467WAT     H173643   9.906   6.684   3.602
24467WAT     H273644   9.800   6.559   3.601
24468WAT      O73645   0.311   4.056   1.348
24468WAT     H173646   0.240   4.124   1.368
24468WAT     H273647   0.294   3.974   1.403
24469WAT      O73648   0.158   6.980   6.022
24469WAT     H173649   0.192   6.946   6.110
24469WAT     H273650   0.183   7.076   6.012
24470WAT      O73651   1.241   7.174   5.945
24470WAT     H173652   1.226   7.120   6.028
24470WAT     H273653   1.177   7.251   5.943
24471WAT      O73654   4.122   2.891   1.121
24471WAT     H173655   4.187   2.828   1.078
24471WAT     H273656   4.157   2.919   1.210
24472WAT      O73657   8.829   3.476   9.036
24472WAT     H173658   8.823   3.575   9.038
24472WAT     H273659   8.903   3.446   9.097
24473WAT      O73660   2.008   7.022   1.036
24473WAT     H173661   2.069   6.979   1.102
24473WAT     H273662   2.033   7.119   1.026
24474WAT      O73663   7.222   9.774   6.894
24474WAT     H173664   7.311   9.745   6.861
24474WAT     H273665   7.215   9.756   6.992
24475WAT      O73666   6.281   1.857   5.868
24475WAT     H173667   6.216   1.830   5.939
24475WAT     H273668   6.262   1.806   5.784
24476WAT      O73669   7.622   2.004   3.650
24476WAT     H173670   7.542   2.055   3.617
24476WAT     H273671   7.636   2.024   3.747
24477WAT      O73672   7.992   7.881   9.350
24477WAT     H173673   8.087   7.848   9.350
24477WAT     H273674   7.992   7.979   9.329
24478WAT      O73675   0.687   7.014   5.250
24478WAT     H173676   0.673   6.951   5.174
24478WAT     H273677   0.606   7.070   5.263
24479WAT      O73678   9.227   4.178   3.484
24479WAT     H173679   9.280   4.261   3.504
24479WAT     H273680   9.289   4.100   3.480
24480WAT      O73681   9.585   0.631   1.704
24480WAT     H173682   9.534   0.688   1.639
24480WAT     H273683   9.608   0.544   1.661
24481WAT      O73684   4.106   3.963   1.046
24481WAT     H173685   4.044   3.893   1.082
24481WAT     H273686   4.186   3.970   1.107
24482WAT      O73687   2.376   9.223   0.259
24482WAT     H173688   2.404   9.284   0.333
24482WAT     H273689   2.455   9.200   0.203
24483WAT      O73690   1.741   2.816   2.992
24483WAT     H173691   1.731   2.827   3.091
24483WAT     H273692   1.690   2.735   2.962
24484WAT      O73693   5.977   8.901   8.732
24484WAT     H173694   5.994   8.996   8.707
24484WAT     H273695   5.880   8.879   8.716
24485WAT      O73696   8.726   8.492   7.723
24485WAT     H173697   8.811   8.447   7.695
24485WAT     H273698   8.742   8.541   7.809
24486WAT      O73699   9.310   5.611   3.756
24486WAT     H173700   9.211   5.599   3.742
24486WAT     H273701   9.337   5.561   3.839
24487WAT      O73702   9.046   7.978   7.000
24487WAT     H173703   9.140   7.998   6.971
24487WAT     H273704   9.018   7.889   6.964
24488WAT      O73705   7.699   5.107   4.455
24488WAT     H173706   7.631   5.173   4.487
24488WAT     H273707   7.721   5.044   4.529
24489WAT      O73708   1.753   2.885   3.979
24489WAT     H173709   1.738   2.941   4.061
24489WAT     H273710   1.826   2.819   3.996
24490WAT      O73711   3.626   6.387   0.624
24490WAT     H173712   3.656   6.299   0.588
24490WAT     H273713   3.526   6.391   0.622
24491WAT      O73714   5.679   8.895   1.619
24491WAT     H173715   5.626   8.844   1.688
24491WAT     H273716   5.674   8.993   1.639
24492WAT      O73717   7.496   6.187   1.999
24492WAT     H173718   7.535   6.238   1.923
24492WAT     H273719   7.570   6.158   2.061
24493WAT      O73720   0.850   6.896   6.062
24493WAT     H173721   0.809   6.984   6.041
24493WAT     H273722   0.787   6.822   6.039
24494WAT      O73723   9.802   2.568   8.606
24494WAT     H173724   9.820   2.523   8.694
24494WAT     H273725   9.862   2.648   8.598
24495WAT      O73726   7.787   2.052   4.756
24495WAT     H173727   7.836   2.124   4.806
24495WAT     H273728   7.700   2.088   4.722
24496WAT      O73729   5.225   9.259   9.719
24496WAT     H173730   5.319   9.231   9.701
24496WAT     H273731   5.215   9.277   9.817
24497WAT      O73732   5.242   6.833   0.174
24497WAT     H173733   5.310   6.892   0.129
24497WAT     H273734   5.175   6.803   0.106
24498WAT      O73735   4.660   3.470   4.300
24498WAT     H173736   4.673   3.497   4.204
24498WAT     H273737   4.621   3.378   4.304
24499WAT      O73738   1.518   9.788   3.979
24499WAT     H173739   1.611   9.776   3.944
24499WAT     H273740   1.521   9.793   4.079
24500WAT      O73741   3.019   1.875   9.555
24500WAT     H173742   3.009   1.974   9.565
24500WAT     H273743   3.033   1.852   9.459
24501WAT      O73744   4.829   5.338   8.385
24501WAT     H173745   4.834   5.242   8.356
24501WAT     H273746   4.776   5.390   8.318
24502WAT      O73747   4.930   2.619   6.589
24502WAT     H173748   4.832   2.619   6.606
24502WAT     H273749   4.953   2.549   6.520
24503WAT      O73750   3.300   4.983   2.357
24503WAT     H173751   3.313   5.075   2.320
24503WAT     H273752   3.297   4.987   2.457
24504WAT      O73753   6.537   6.511   0.173
24504WAT     H173754   6.491   6.596   0.149
24504WAT     H273755   6.636   6.522   0.165
24505WAT      O73756   7.362   5.833   9.250
24505WAT     H173757   7.444   5.775   9.249
24505WAT     H273758   7.385   5.924   9.216
24506WAT      O73759   4.459   2.190   6.168
24506WAT     H173760   4.465   2.278   6.120
24506WAT     H273761   4.385   2.193   6.235
24507WAT      O73762   7.084   0.912   1.183
24507WAT     H173763   7.182   0.931   1.175
24507WAT     H273764   7.034   0.999   1.185
24508WAT      O73765   1.533   3.183   2.465
24508WAT     H173766   1.527   3.106   2.529
24508WAT     H273767   1.579   3.259   2.510
24509WAT      O73768   4.641   8.066   2.536
24509WAT     H173769   4.657   8.078   2.634
24509WAT     H273770   4.652   8.154   2.489
24510WAT      O73771   6.189   6.152   5.890
24510WAT     H173772   6.273   6.190   5.928
24510WAT     H273773   6.150   6.086   5.954
24511WAT      O73774   2.118   2.506   3.662
24511WAT     H173775   2.021   2.483   3.660
24511WAT     H273776   2.160   2.469   3.745
24512WAT      O73777   6.811   6.476   1.509
24512WAT     H173778   6.753   6.553   1.536
24512WAT     H273779   6.892   6.511   1.461
24513WAT      O73780   9.708   4.209   2.238
24513WAT     H173781   9.724   4.269   2.316
24513WAT     H273782   9.741   4.254   2.155
24514WAT      O73783   5.537   9.511   5.319
24514WAT     H173784   5.446   9.474   5.299
24514WAT     H273785   5.569   9.476   5.407
24515WAT      O73786   3.075   5.830   4.210
24515WAT     H173787   3.043   5.826   4.115
24515WAT     H273788   3.156   5.888   4.215
24516WAT      O73789   4.459   7.077   6.274
24516WAT     H173790   4.484   6.980   6.267
24516WAT     H273791   4.527   7.133   6.228
24517WAT      O73792   1.888   3.284   3.408
24517WAT     H173793   1.927   3.320   3.324
24517WAT     H273794   1.862   3.360   3.468
24518WAT      O73795   9.432   7.441   4.208
24518WAT     H173796   9.436   7.448   4.308
24518WAT     H273797   9.513   7.482   4.168
24519WAT      O73798   3.590   2.869   5.880
24519WAT     H173799   3.588   2.860   5.781
24519WAT     H273800   3.639   2.952   5.905
24520WAT      O73801   8.000   6.956   5.913
24520WAT     H173802   7.971   6.868   5.952
24520WAT     H273803   7.922   7.019   5.911
24521WAT      O73804   7.990   4.072   2.843
24521WAT     H173805   7.902   4.043   2.880
24521WAT     H273806   8.053   4.091   2.918
24522WAT      O73807   6.076   4.581   4.406
24522WAT     H173808   6.150   4.616   4.348
24522WAT     H273809   6.003   4.650   4.410
24523WAT      O73810   2.070   7.677   6.910
24523WAT     H173811   2.030   7.587   6.892
24523WAT     H273812   2.109   7.678   7.002
24524WAT      O73813   1.098   8.781   4.279
24524WAT     H173814   1.136   8.747   4.365
24524WAT     H273815   1.050   8.708   4.232
24525WAT      O73816   7.353   5.756   2.208
24525WAT     H173817   7.355   5.845   2.162
24525WAT     H273818   7.353   5.770   2.307
24526WAT      O73819   0.124   9.028   5.482
24526WAT     H173820   0.165   9.010   5.393
24526WAT     H273821   0.065   8.951   5.508
24527WAT      O73822   5.519   7.941   6.576
24527WAT     H173823   5.482   8.026   6.540
24527WAT     H273824   5.538   7.951   6.674
24528WAT      O73825   0.460   1.323   6.530
24528WAT     H173826   0.497   1.391   6.467
24528WAT     H273827   0.524   1.308   6.605
24529WAT      O73828   0.728   3.068   4.426
24529WAT     H173829   0.641   3.071   4.378
24529WAT     H273830   0.792   3.011   4.375
24530WAT      O73831   9.686   8.124   2.578
24530WAT     H173832   9.627   8.043   2.572
24530WAT     H273833   9.636   8.204   2.545
24531WAT      O73834   8.545   7.737   8.005
24531WAT     H173835   8.594   7.760   7.921
24531WAT     H273836   8.481   7.811   8.027
24532WAT      O73837   7.306   4.951   8.738
24532WAT     H173838   7.338   4.993   8.653
24532WAT     H273839   7.259   5.020   8.793
24533WAT      O73840   7.599   5.771   7.907
24533WAT     H173841   7.559   5.833   7.840
24533WAT     H273842   7.599   5.678   7.871
24534WAT      O73843   5.905   5.886   6.825
24534WAT     H173844   5.846   5.873   6.745
24534WAT     H273845   5.991   5.928   6.796
24535WAT      O73846   3.827   9.376   5.305
24535WAT     H173847   3.756   9.441   5.279
24535WAT     H273848   3.790   9.283   5.303
24536WAT      O73849   1.023   9.414   7.734
24536WAT     H173850   0.984   9.367   7.654
24536WAT     H273851   1.121   9.424   7.722
24537WAT      O73852   6.012   8.754   5.477
24537WAT     H173853   6.026   8.838   5.529
24537WAT     H273854   5.988   8.776   5.383
24538WAT      O73855   9.316   5.053   0.449
24538WAT     H173856   9.290   4.993   0.374
24538WAT     H273857   9.336   4.997   0.530
24539WAT      O73858   9.422   1.272   0.830
24539WAT     H173859   9.517   1.285   0.803
24539WAT     H273860   9.418   1.220   0.915
24540WAT      O73861   8.242   9.631   4.587
24540WAT     H173862   8.197   9.665   4.670
24540WAT     H273863   8.255   9.532   4.595
24541WAT      O73864   4.690   3.746   0.873
24541WAT     H173865   4.783   3.754   0.910
24541WAT     H273866   4.634   3.691   0.934
24542WAT      O73867   0.016   7.478   5.066
24542WAT     H173868   0.040   7.381   5.061
24542WAT     H273869  -0.072   7.493   5.022
24543WAT      O73870   8.100   7.691   3.113
24543WAT     H173871   8.125   7.786   3.094
24543WAT     H273872   8.145   7.660   3.197
24544WAT      O73873   6.452   4.994   0.369
24544WAT     H173874   6.375   4.943   0.331
24544WAT     H273875   6.535   4.939   0.360
24545WAT      O73876   1.295   5.886   6.285
24545WAT     H173877   1.370   5.892   6.219
24545WAT     H273878   1.214   5.849   6.239
24546WAT      O73879   1.509   4.525   5.560
24546WAT     H173880   1.526   4.426   5.559
24546WAT     H273881   1.461   4.551   5.476
24547WAT      O73882   4.229   6.356   3.311
24547WAT     H173883   4.159   6.290   3.337
24547WAT     H273884   4.225   6.373   3.212
24548WAT      O73885   7.970   0.337   5.498
24548WAT     H173886   8.036   0.271   5.533
24548WAT     H273887   7.894   0.347   5.563
24549WAT      O73888   3.970   7.701   5.100
24549WAT     H173889   3.877   7.737   5.086
24549WAT     H273890   3.968   7.601   5.100
24550WAT      O73891   4.801   4.363   0.812
24550WAT     H173892   4.885   4.340   0.763
24550WAT     H273893   4.814   4.450   0.861
24551WAT      O73894   8.239   4.661   6.490
24551WAT     H173895   8.292   4.596   6.543
24551WAT     H273896   8.281   4.674   6.400
24552WAT      O73897   1.265   0.973   0.295
24552WAT     H173898   1.219   1.060   0.311
24552WAT     H273899   1.256   0.915   0.376
24553WAT      O73900   8.563   0.843   8.172
24553WAT     H173901   8.484   0.826   8.230
24553WAT     H273902   8.550   0.928   8.121
24554WAT      O73903   9.396   8.933   6.977
24554WAT     H173904   9.393   9.023   6.934
24554WAT     H273905   9.342   8.868   6.924
24555WAT      O73906   0.799   9.705   1.237
24555WAT     H173907   0.725   9.642   1.262
24555WAT     H273908   0.860   9.661   1.171
24556WAT      O73909   7.774   7.088   9.277
24556WAT     H173910   7.695   7.056   9.329
24556WAT     H273911   7.797   7.181   9.303
24557WAT      O73912   4.538   4.014   0.577
24557WAT     H173913   4.618   4.011   0.637
24557WAT     H273914   4.458   4.043   0.629
24558WAT      O73915   0.636   2.587   4.386
24558WAT     H173916   0.580   2.572   4.305
24558WAT     H273917   0.617   2.515   4.453
24559WAT      O73918   6.913   3.304   1.691
24559WAT     H173919   6.964   3.223   1.721
24559WAT     H273920   6.926   3.315   1.592
24560WAT      O73921   3.430   0.494   5.214
24560WAT     H173922   3.398   0.584   5.185
24560WAT     H273923   3.355   0.429   5.211
24561WAT      O73924   2.320   4.587   5.490
24561WAT     H173925   2.360   4.631   5.410
24561WAT     H273926   2.250   4.646   5.529
24562WAT      O73927   7.338   8.355   3.057
24562WAT     H173928   7.238   8.347   3.066
24562WAT     H273929   7.370   8.433   3.110
24563WAT      O73930   4.501   8.183   0.401
24563WAT     H173931   4.507   8.241   0.320
24563WAT     H273932   4.482   8.240   0.481
24564WAT      O73933   1.905   8.295   0.809
24564WAT     H173934   1.878   8.378   0.858
24564WAT     H273935   1.938   8.320   0.718
24565WAT      O73936   6.955   9.505   7.033
24565WAT     H173937   6.956   9.605   7.046
24565WAT     H273938   6.938   9.485   6.936
24566WAT      O73939   3.809   8.612   9.732
24566WAT     H173940   3.848   8.668   9.805
24566WAT     H273941   3.709   8.618   9.735
24567WAT      O73942   4.315   4.300   8.296
24567WAT     H173943   4.315   4.249   8.382
24567WAT     H273944   4.342   4.238   8.222
24568WAT      O73945   2.908   8.607   2.186
24568WAT     H173946   2.823   8.577   2.229
24568WAT     H273947   2.986   8.577   2.242
24569WAT      O73948   5.085   1.003   3.492
24569WAT     H173949   5.003   1.036   3.446
24569WAT     H273950   5.087   1.038   3.586
24570WAT      O73951   3.647   8.327   0.600
24570WAT     H173952   3.681   8.320   0.693
24570WAT     H273953   3.713   8.377   0.544
24571WAT      O73954   3.778   2.389   6.775
24571WAT     H173955   3.708   2.414   6.843
24571WAT     H273956   3.733   2.364   6.689
24572WAT      O73957   9.109   3.446   5.954
24572WAT     H173958   9.097   3.493   5.866
24572WAT     H273959   9.044   3.481   6.020
24573WAT      O73960   5.498   5.193   0.854
24573WAT     H173961   5.474   5.246   0.935
24573WAT     H273962   5.456   5.233   0.774
24574WAT      O73963   9.122   6.236   1.977
24574WAT     H173964   9.066   6.154   1.966
24574WAT     H273965   9.077   6.313   1.932
24575WAT      O73966   8.922   5.268   4.486
24575WAT     H173967   8.946   5.281   4.390
24575WAT     H273968   8.831   5.307   4.503
24576WAT      O73969   7.287   4.080   6.852
24576WAT     H173970   7.337   3.993   6.856
24576WAT     H273971   7.314   4.131   6.770
24577WAT      O73972   3.857   7.437   8.767
24577WAT     H173973   3.765   7.441   8.731
24577WAT     H273974   3.872   7.513   8.831
24578WAT      O73975   2.634   7.153   3.366
24578WAT     H173976   2.656   7.205   3.449
24578WAT     H273977   2.718   7.134   3.315
24579WAT      O73978   2.201   7.441   6.409
24579WAT     H173979   2.177   7.537   6.393
24579WAT     H273980   2.294   7.435   6.444
24580WAT      O73981   9.464   0.141   5.756
24580WAT     H173982   9.525   0.210   5.794
24580WAT     H273983   9.394   0.117   5.824
24581WAT      O73984   2.958   4.034   1.377
24581WAT     H173985   2.886   4.052   1.310
24581WAT     H273986   3.047   4.037   1.332
24582WAT      O73987   5.048   6.848   7.755
24582WAT     H173988   5.024   6.831   7.660
24582WAT     H273989   5.143   6.878   7.761
24583WAT      O73990   0.504   4.776   5.943
24583WAT     H173991   0.485   4.787   5.846
24583WAT     H273992   0.451   4.843   5.995
24584WAT      O73993   5.708   4.962   0.395
24584WAT     H173994   5.612   4.936   0.401
24584WAT     H273995   5.766   4.884   0.420
24585WAT      O73996   5.332   6.389   8.270
24585WAT     H173997   5.393   6.335   8.328
24585WAT     H273998   5.375   6.477   8.250
24586WAT      O73999   9.134   4.285   6.356
24586WAT     H174000   9.186   4.284   6.441
24586WAT     H274001   9.196   4.269   6.279
24587WAT      O74002   0.685   6.907   4.545
24587WAT     H174003   0.666   6.978   4.476
24587WAT     H274004   0.780   6.914   4.574
24588WAT      O74005   9.068   9.401   4.159
24588WAT     H174006   9.019   9.434   4.079
24588WAT     H274007   9.151   9.455   4.172
24589WAT      O74008   0.219   0.832   1.674
24589WAT     H174009   0.209   0.852   1.576
24589WAT     H274010   0.295   0.769   1.687
24590WAT      O74011   5.222   5.517   3.301
24590WAT     H174012   5.213   5.471   3.389
24590WAT     H274013   5.311   5.494   3.261
24591WAT      O74014   4.221   3.434   4.530
24591WAT     H174015   4.177   3.524   4.521
24591WAT     H274016   4.245   3.400   4.439
24592WAT      O74017   7.000   7.430   2.881
24592WAT     H174018   7.018   7.360   2.811
24592WAT     H274019   6.938   7.498   2.844
24593WAT      O74020   3.185   9.503   8.390
24593WAT     H174021   3.244   9.528   8.314
24593WAT     H274022   3.093   9.481   8.355
24594WAT      O74023   4.255   4.879   9.521
24594WAT     H174024   4.244   4.979   9.523
24594WAT     H274025   4.318   4.854   9.447
24595WAT      O74026   5.636   0.058   8.352
24595WAT     H174027   5.726   0.087   8.386
24595WAT     H274028   5.646  -0.029   8.303
24596WAT      O74029   4.093   5.195   5.004
24596WAT     H174030   4.021   5.201   4.936
24596WAT     H274031   4.138   5.105   4.998
24597WAT      O74032   7.781   8.307   8.036
24597WAT     H174033   7.749   8.236   7.975
24597WAT     H274034   7.747   8.396   8.004
24598WAT      O74035   5.826   4.508   2.129
24598WAT     H174036   5.870   4.566   2.199
24598WAT     H274037   5.835   4.412   2.155
24599WAT      O74038   8.939   1.639   6.965
24599WAT     H174039   8.925   1.609   7.060
24599WAT     H274040   9.004   1.715   6.964
24600WAT      O74041   3.957   6.518   3.284
24600WAT     H174042   4.034   6.456   3.298
24600WAT     H274043   3.911   6.496   3.198
24601WAT      O74044   4.957   1.879   8.723
24601WAT     H174045   4.866   1.879   8.680
24601WAT     H274046   4.960   1.949   8.794
24602WAT      O74047   5.464   0.360   0.436
24602WAT     H174048   5.477   0.375   0.534
24602WAT     H274049   5.403   0.282   0.422
24603WAT      O74050   2.203   6.008   2.713
24603WAT     H174051   2.113   6.047   2.732
24603WAT     H274052   2.251   5.993   2.799
24604WAT      O74053   8.229   9.395   1.534
24604WAT     H174054   8.204   9.299   1.539
24604WAT     H274055   8.160   9.451   1.581
24605WAT      O74056   8.687   7.493   6.880
24605WAT     H174057   8.679   7.420   6.813
24605WAT     H274058   8.631   7.472   6.960
24606WAT      O74059   5.315   9.666   9.265
24606WAT     H174060   5.309   9.642   9.168
24606WAT     H274061   5.224   9.686   9.299
24607WAT      O74062   1.650   9.490   8.077
24607WAT     H174063   1.571   9.536   8.117
24607WAT     H274064   1.636   9.481   7.978
24608WAT      O74065   0.823   6.386   2.885
24608WAT     H174066   0.799   6.456   2.952
24608WAT     H274067   0.911   6.408   2.844
24609WAT      O74068   6.760   7.605   7.002
24609WAT     H174069   6.671   7.571   7.034
24609WAT     H274070   6.808   7.532   6.955
24610WAT      O74071   3.355   2.021   2.824
24610WAT     H174072   3.289   1.952   2.796
24610WAT     H274073   3.378   2.079   2.746
24611WAT      O74074   8.795   3.210   8.950
24611WAT     H174075   8.889   3.178   8.960
24611WAT     H274076   8.787   3.302   8.989
24612WAT      O74077   1.806   5.005   3.157
24612WAT     H174078   1.798   4.927   3.220
24612WAT     H274079   1.901   5.013   3.127
24613WAT      O74080   3.007   3.291   9.613
24613WAT     H174081   3.039   3.224   9.546
24613WAT     H274082   3.062   3.374   9.607
24614WAT      O74083   3.906   9.419   8.994
24614WAT     H174084   3.965   9.377   8.925
24614WAT     H274085   3.851   9.348   9.039
24615WAT      O74086   1.814   4.828   9.724
24615WAT     H174087   1.808   4.728   9.724
24615WAT     H274088   1.740   4.866   9.669
24616WAT      O74089   2.419   9.474   8.027
24616WAT     H174090   2.361   9.553   8.046
24616WAT     H274091   2.368   9.390   8.045
24617WAT      O74092   5.768   7.454   9.118
24617WAT     H174093   5.825   7.407   9.051
24617WAT     H274094   5.690   7.496   9.073
24618WAT      O74095   2.194   5.705   4.187
24618WAT     H174096   2.236   5.791   4.158
24618WAT     H274097   2.246   5.667   4.264
24619WAT      O74098   4.545   6.095   9.079
24619WAT     H174099   4.627   6.105   9.022
24619WAT     H274100   4.514   6.185   9.109
24620WAT      O74101   0.682   0.978   8.447
24620WAT     H174102   0.612   1.011   8.384
24620WAT     H274103   0.639   0.928   8.521
24621WAT      O74104   2.081   8.987   9.704
24621WAT     H174105   2.047   9.047   9.631
24621WAT     H274106   2.087   9.038   9.789
24622WAT      O74107   0.140   0.715   7.895
24622WAT     H174108   0.094   0.750   7.976
24622WAT     H274109   0.075   0.706   7.820
24623WAT      O74110   6.611   4.886   0.900
24623WAT     H174111   6.520   4.851   0.919
24623WAT     H274112   6.637   4.864   0.806
24624WAT      O74113   5.542   2.179   6.964
24624WAT     H174114   5.550   2.278   6.946
24624WAT     H274115   5.454   2.161   7.008
24625WAT      O74116   6.258   6.765   7.449
24625WAT     H174117   6.266   6.799   7.542
24625WAT     H274118   6.206   6.680   7.448
24626WAT      O74119   1.145   0.896   1.496
24626WAT     H174120   1.145   0.980   1.442
24626WAT     H274121   1.090   0.910   1.579
24627WAT      O74122   9.772   8.016   2.329
24627WAT     H174123   9.791   8.059   2.417
24627WAT     H274124   9.673   8.010   2.316
24628WAT      O74125   4.238   8.301   9.403
24628WAT     H174126   4.250   8.350   9.317
24628WAT     H274127   4.183   8.219   9.387
24629WAT      O74128   4.516   5.467   2.994
24629WAT     H174129   4.608   5.499   2.972
24629WAT     H274130   4.513   5.438   3.090
24630WAT      O74131   6.166   0.727   2.413
24630WAT     H174132   6.082   0.713   2.465
24630WAT     H274133   6.157   0.683   2.323
24631WAT      O74134   7.688   7.045   7.729
24631WAT     H174135   7.707   6.959   7.681
24631WAT     H274136   7.629   7.026   7.807
24632WAT      O74137   2.769   7.796   2.594
24632WAT     H174138   2.684   7.744   2.580
24632WAT     H274139   2.774   7.869   2.526
24633WAT      O74140   3.232   9.559   4.417
24633WAT     H174141   3.242   9.553   4.318
24633WAT     H274142   3.312   9.518   4.460
24634WAT      O74143   8.549   4.871   1.255
24634WAT     H174144   8.459   4.863   1.298
24634WAT     H274145   8.613   4.913   1.319
24635WAT      O74146   9.750   6.948   2.944
24635WAT     H174147   9.731   6.975   3.038
24635WAT     H274148   9.832   6.892   2.941
24636WAT      O74149   6.914   6.435   7.242
24636WAT     H174150   6.864   6.499   7.184
24636WAT     H274151   7.005   6.421   7.205
24637WAT      O74152   1.477   8.297   9.560
24637WAT     H174153   1.506   8.277   9.653
24637WAT     H274154   1.475   8.212   9.507
24638WAT      O74155   7.938   5.159   7.372
24638WAT     H174156   7.861   5.212   7.336
24638WAT     H274157   7.975   5.101   7.299
24639WAT      O74158   0.836   2.119   2.940
24639WAT     H174159   0.926   2.100   2.901
24639WAT     H274160   0.843   2.199   3.001
24640WAT      O74161   4.914   5.931   3.232
24640WAT     H174162   4.977   5.858   3.204
24640WAT     H274163   4.821   5.894   3.235
24641WAT      O74164   2.047   9.272   2.329
24641WAT     H174165   1.972   9.293   2.391
24641WAT     H274166   2.105   9.201   2.369
24642WAT      O74167   2.105   7.600   1.221
24642WAT     H174168   2.198   7.601   1.256
24642WAT     H274169   2.066   7.509   1.230
24643WAT      O74170   9.843   4.547   0.989
24643WAT     H174171   9.753   4.563   0.946
24643WAT     H274172   9.832   4.538   1.087
24644WAT      O74173   7.464   6.444   9.388
24644WAT     H174174   7.450   6.495   9.473
24644WAT     H274175   7.496   6.351   9.410
24645WAT      O74176   4.406   5.844   9.538
24645WAT     H174177   4.310   5.873   9.528
24645WAT     H274178   4.417   5.753   9.498
24646WAT      O74179   2.536   5.083   9.576
24646WAT     H174180   2.532   5.094   9.477
24646WAT     H274181   2.476   5.151   9.619
24647WAT      O74182   5.888   3.921   7.312
24647WAT     H174183   5.885   4.009   7.359
24647WAT     H274184   5.946   3.858   7.364
24648WAT      O74185   2.288   5.990   1.218
24648WAT     H174186   2.216   5.950   1.161
24648WAT     H274187   2.352   6.041   1.161
24649WAT      O74188   6.935   2.387   6.711
24649WAT     H174189   6.942   2.402   6.612
24649WAT     H274190   6.874   2.456   6.751
24650WAT      O74191   4.439   9.467   5.619
24650WAT     H174192   4.434   9.555   5.573
24650WAT     H274193   4.473   9.479   5.712
24651WAT      O74194   4.497   1.194   9.100
24651WAT     H174195   4.541   1.262   9.158
24651WAT     H274196   4.539   1.194   9.009
24652WAT      O74197   7.517   3.631   7.684
24652WAT     H174198   7.461   3.698   7.733
24652WAT     H274199   7.498   3.539   7.720
24653WAT      O74200   7.456   3.197   1.601
24653WAT     H174201   7.363   3.203   1.638
24653WAT     H274202   7.452   3.198   1.501
24654WAT      O74203   7.966   9.256   9.513
24654WAT     H174204   8.012   9.344   9.522
24654WAT     H274205   7.940   9.242   9.418
24655WAT      O74206   5.783   7.264   6.797
24655WAT     H174207   5.777   7.208   6.880
24655WAT     H274208   5.716   7.231   6.730
24656WAT      O74209   9.411   5.376   1.979
24656WAT     H174210   9.471   5.451   1.949
24656WAT     H274211   9.338   5.414   2.037
24657WAT      O74212   0.923   5.299   3.293
24657WAT     H174213   0.975   5.214   3.290
24657WAT     H274214   0.825   5.278   3.283
24658WAT      O74215   7.164   7.236   8.940
24658WAT     H174216   7.088   7.206   8.883
24658WAT     H274217   7.207   7.156   8.984
24659WAT      O74218   6.122   1.310   9.184
24659WAT     H174219   6.078   1.235   9.235
24659WAT     H274220   6.199   1.346   9.238
24660WAT      O74221   0.739   0.894   6.195
24660WAT     H174222   0.810   0.925   6.259
24660WAT     H274223   0.749   0.944   6.108
24661WAT      O74224   0.379   2.411   4.572
24661WAT     H174225   0.336   2.439   4.486
24661WAT     H274226   0.350   2.473   4.645
24662WAT      O74227   0.354   6.452   5.635
24662WAT     H174228   0.339   6.550   5.628
24662WAT     H274229   0.355   6.425   5.731
24663WAT      O74230   6.768   5.771   2.493
24663WAT     H174231   6.734   5.846   2.437
24663WAT     H274232   6.857   5.797   2.532
24664WAT      O74233   0.968   7.256   3.971
24664WAT     H174234   0.972   7.221   4.064
24664WAT     H274235   1.045   7.316   3.954
24665WAT      O74236   7.439   9.450   1.391
24665WAT     H174237   7.382   9.525   1.422
24665WAT     H274238   7.526   9.451   1.441
24666WAT      O74239   7.859   1.252   5.858
24666WAT     H174240   7.959   1.252   5.865
24666WAT     H274241   7.828   1.342   5.829
24667WAT      O74242   0.001   0.018   9.730
24667WAT     H174243  -0.089   0.041   9.695
24667WAT     H274244   0.071   0.049   9.666
24668WAT      O74245   1.905   0.444   4.282
24668WAT     H174246   1.949   0.378   4.342
24668WAT     H274247   1.973   0.509   4.247
24669WAT      O74248   4.699   9.713   0.639
24669WAT     H174249   4.752   9.629   0.643
24669WAT     H274250   4.631   9.714   0.713
24670WAT      O74251   5.147   1.668   7.132
24670WAT     H174252   5.213   1.735   7.096
24670WAT     H274253   5.195   1.603   7.190
24671WAT      O74254   3.866   4.001   3.152
24671WAT     H174255   3.821   4.053   3.225
24671WAT     H274256   3.963   3.991   3.174
24672WAT      O74257   1.592   8.571   6.859
24672WAT     H174258   1.621   8.560   6.954
24672WAT     H274259   1.511   8.514   6.842
24673WAT      O74260   1.099   2.238   2.304
24673WAT     H174261   1.146   2.171   2.361
24673WAT     H274262   1.158   2.317   2.288
24674WAT      O74263   4.526   4.859   9.087
24674WAT     H174264   4.550   4.764   9.069
24674WAT     H274265   4.551   4.915   9.008
24675WAT      O74266   2.884   4.457   8.021
24675WAT     H174267   2.804   4.437   8.078
24675WAT     H274268   2.888   4.556   8.003
24676WAT      O74269   2.241   2.339   6.512
24676WAT     H174270   2.177   2.267   6.538
24676WAT     H274271   2.321   2.297   6.468
24677WAT      O74272   3.981   0.629   3.514
24677WAT     H174273   3.914   0.648   3.442
24677WAT     H274274   3.939   0.575   3.587
24678WAT      O74275   9.454   2.018   1.799
24678WAT     H174276   9.441   2.099   1.742
24678WAT     H274277   9.394   1.944   1.766
24679WAT      O74278   8.017   2.749   2.837
24679WAT     H174279   8.060   2.670   2.793
24679WAT     H274280   8.045   2.832   2.790
24680WAT      O74281   4.034   9.242   2.529
24680WAT     H174282   4.003   9.254   2.623
24680WAT     H274283   4.005   9.153   2.495
24681WAT      O74284   5.261   2.567   5.697
24681WAT     H174285   5.200   2.620   5.638
24681WAT     H274286   5.341   2.622   5.721
24682WAT      O74287   7.734   2.509   4.656
24682WAT     H174288   7.831   2.536   4.660
24682WAT     H274289   7.725   2.428   4.599
24683WAT      O74290   3.938   4.115   6.326
24683WAT     H174291   3.949   4.053   6.404
24683WAT     H274292   3.859   4.086   6.272
24684WAT      O74293   7.916   4.461   2.997
24684WAT     H174294   7.875   4.539   2.950
24684WAT     H274295   8.002   4.437   2.953
24685WAT      O74296   7.893   3.821   4.931
24685WAT     H174297   7.974   3.774   4.896
24685WAT     H274298   7.874   3.900   4.873
24686WAT      O74299   6.744   8.389   6.560
24686WAT     H174300   6.687   8.471   6.558
24686WAT     H274301   6.833   8.411   6.519
24687WAT      O74302   4.627   3.803   7.058
24687WAT     H174303   4.621   3.820   6.960
24687WAT     H274304   4.611   3.889   7.107
24688WAT      O74305   8.763   6.593   8.165
24688WAT     H174306   8.682   6.650   8.183
24688WAT     H274307   8.740   6.497   8.182
24689WAT      O74308   3.781   0.556   9.001
24689WAT     H174309   3.711   0.516   8.942
24689WAT     H274310   3.850   0.487   9.022
24690WAT      O74311   1.024   6.986   9.454
24690WAT     H174312   1.081   7.065   9.475
24690WAT     H274313   1.030   6.964   9.357
24691WAT      O74314   2.786   5.581   5.616
24691WAT     H174315   2.851   5.532   5.558
24691WAT     H274316   2.717   5.518   5.651
24692WAT      O74317   7.065   6.835   2.338
24692WAT     H174318   7.014   6.752   2.311
24692WAT     H274319   7.109   6.819   2.426
24693WAT      O74320   4.382   7.425   1.995
24693WAT     H174321   4.380   7.517   1.957
24693WAT     H274322   4.436   7.365   1.936
24694WAT      O74323   1.221   3.404   8.060
24694WAT     H174324   1.218   3.305   8.054
24694WAT     H274325   1.314   3.436   8.041
24695WAT      O74326   4.877   1.615   3.505
24695WAT     H174327   4.836   1.548   3.568
24695WAT     H274328   4.876   1.706   3.549
24696WAT      O74329   7.761   1.781   0.507
24696WAT     H174330   7.823   1.789   0.429
24696WAT     H274331   7.671   1.750   0.475
24697WAT      O74332   0.481   3.627   8.214
24697WAT     H174333   0.580   3.632   8.211
24697WAT     H274334   0.443   3.659   8.128
24698WAT      O74335   7.990   5.539   1.229
24698WAT     H174336   8.056   5.468   1.204
24698WAT     H274337   7.916   5.498   1.283
24699WAT      O74338   4.678   2.497   4.678
24699WAT     H174339   4.706   2.584   4.719
24699WAT     H274340   4.670   2.427   4.749
24700WAT      O74341   7.887   1.088   6.111
24700WAT     H174342   7.846   1.146   6.041
24700WAT     H274343   7.891   0.994   6.079
24701WAT      O74344   1.514   5.368   3.723
24701WAT     H174345   1.598   5.326   3.757
24701WAT     H274346   1.470   5.420   3.797
24702WAT      O74347   9.393   0.832   4.158
24702WAT     H174348   9.358   0.743   4.186
24702WAT     H274349   9.349   0.861   4.073
24703WAT      O74350   8.483   8.315   8.198
24703WAT     H174351   8.528   8.327   8.109
24703WAT     H274352   8.398   8.367   8.199
24704WAT      O74353   0.891   5.419   4.848
24704WAT     H174354   0.815   5.435   4.784
24704WAT     H274355   0.910   5.503   4.898
24705WAT      O74356   4.559   7.279   1.111
24705WAT     H174357   4.570   7.338   1.191
24705WAT     H274358   4.466   7.241   1.111
24706WAT      O74359   4.746   6.718   3.762
24706WAT     H174360   4.807   6.641   3.742
24706WAT     H274361   4.733   6.725   3.861
24707WAT      O74362   8.673   3.136   2.774
24707WAT     H174363   8.632   3.099   2.858
24707WAT     H274364   8.676   3.236   2.780
24708WAT      O74365   6.202   4.394   3.827
24708WAT     H174366   6.262   4.369   3.751
24708WAT     H274367   6.205   4.493   3.839
24709WAT      O74368   5.926   4.450   7.640
24709WAT     H174369   5.953   4.521   7.575
24709WAT     H274370   5.849   4.398   7.604
24710WAT      O74371   8.782   5.839   8.471
24710WAT     H174372   8.797   5.771   8.543
24710WAT     H274373   8.771   5.793   8.383
24711WAT      O74374   5.885   2.588   7.864
24711WAT     H174375   5.968   2.606   7.918
24711WAT     H274376   5.820   2.536   7.919
24712WAT      O74377   0.720   6.703   5.097
24712WAT     H174378   0.804   6.750   5.125
24712WAT     H274379   0.738   6.646   5.017
24713WAT      O74380   3.966   9.596   8.518
24713WAT     H174381   3.877   9.640   8.512
24713WAT     H274382   3.961   9.505   8.477
24714WAT      O74383   2.463   5.728   2.012
24714WAT     H174384   2.540   5.779   2.051
24714WAT     H274385   2.495   5.642   1.974
24715WAT      O74386   9.863   1.818   0.591
24715WAT     H174387   9.815   1.731   0.576
24715WAT     H274388   9.941   1.824   0.530
24716WAT      O74389   5.124   0.994   5.086
24716WAT     H174390   5.096   0.897   5.083
24716WAT     H274391   5.082   1.042   5.009
24717WAT      O74392   2.070   2.911   4.257
24717WAT     H174393   2.094   2.902   4.354
24717WAT     H274394   1.995   2.848   4.236
24718WAT      O74395   7.962   0.495   2.248
24718WAT     H174396   7.940   0.454   2.159
24718WAT     H274397   8.018   0.577   2.235
24719WAT      O74398   1.327   3.785   2.091
24719WAT     H174399   1.323   3.756   2.187
24719WAT     H274400   1.294   3.712   2.032
24720WAT      O74401   3.825   6.148   3.986
24720WAT     H174402   3.840   6.166   3.888
24720WAT     H274403   3.896   6.084   4.018
24721WAT      O74404   7.582   6.409   7.123
24721WAT     H174405   7.527   6.493   7.128
24721WAT     H274406   7.532   6.334   7.168
24722WAT      O74407   9.114   9.746   6.136
24722WAT     H174408   9.043   9.685   6.173
24722WAT     H274409   9.080   9.790   6.052
24723WAT      O74410   8.069   7.456   6.336
24723WAT     H174411   8.041   7.552   6.338
24723WAT     H274412   8.161   7.449   6.299
24724WAT      O74413   8.084   2.858   9.325
24724WAT     H174414   8.074   2.956   9.306
24724WAT     H274415   8.152   2.844   9.397
24725WAT      O74416   8.905   1.597   4.252
24725WAT     H174417   8.974   1.598   4.325
24725WAT     H274418   8.883   1.691   4.226
24726WAT      O74419   4.632   2.600   6.602
24726WAT     H174420   4.572   2.639   6.532
24726WAT     H274421   4.577   2.554   6.672
24727WAT      O74422   0.643   9.378   9.831
24727WAT     H174423   0.574   9.326   9.782
24727WAT     H274424   0.725   9.386   9.775
24728WAT      O74425   8.053   5.158   0.570
24728WAT     H174426   8.131   5.145   0.631
24728WAT     H274427   8.045   5.079   0.509
24729WAT      O74428   9.343   9.205   0.467
24729WAT     H174429   9.411   9.277   0.479
24729WAT     H274430   9.375   9.121   0.511
24730WAT      O74431   5.175   4.419   0.540
24730WAT     H174432   5.273   4.401   0.546
24730WAT     H274433   5.158   4.516   0.560
24731WAT      O74434   9.157   6.030   8.045
24731WAT     H174435   9.107   5.975   8.111
24731WAT     H274436   9.240   6.066   8.088
24732WAT      O74437   7.450   8.561   4.672
24732WAT     H174438   7.417   8.573   4.766
24732WAT     H274439   7.508   8.639   4.648
24733WAT      O74440   1.017   9.589   6.772
24733WAT     H174441   0.997   9.674   6.724
24733WAT     H274442   0.994   9.511   6.714
24734WAT      O74443   5.421   9.135   6.595
24734WAT     H174444   5.516   9.143   6.567
24734WAT     H274445   5.362   9.130   6.514
24735WAT      O74446   1.156   5.472   8.560
24735WAT     H174447   1.102   5.555   8.576
24735WAT     H274448   1.181   5.467   8.463
24736WAT      O74449   2.398   0.563   3.936
24736WAT     H174450   2.406   0.574   4.035
24736WAT     H274451   2.314   0.606   3.904
24737WAT      O74452   8.493   8.273   1.927
24737WAT     H174453   8.410   8.327   1.914
24737WAT     H274454   8.501   8.205   1.854
24738WAT      O74455   8.026   4.822   2.506
24738WAT     H174456   7.977   4.856   2.586
24738WAT     H274457   8.080   4.896   2.466
24739WAT      O74458   6.009   2.185   6.988
24739WAT     H174459   6.059   2.192   6.902
24739WAT     H274460   5.935   2.118   6.978
24740WAT      O74461   9.630   9.659   9.871
24740WAT     H174462   9.561   9.729   9.886
24740WAT     H274463   9.661   9.624   9.959
24741WAT      O74464   2.061   7.079   8.698
24741WAT     H174465   2.069   7.172   8.732
24741WAT     H274466   2.129   7.021   8.745
24742WAT      O74467   1.627   3.031   7.113
24742WAT     H174468   1.566   2.955   7.136
24742WAT     H274469   1.572   3.111   7.087
24743WAT      O74470   5.190   0.343   5.313
24743WAT     H174471   5.288   0.344   5.294
24743WAT     H274472   5.166   0.423   5.368
24744WAT      O74473   5.989   4.060   6.843
24744WAT     H174474   6.080   4.022   6.861
24744WAT     H274475   5.937   4.062   6.928
24745WAT      O74476   8.995   2.911   6.589
24745WAT     H174477   8.915   2.889   6.532
24745WAT     H274478   9.046   2.827   6.608
24746WAT      O74479   0.117   6.596   3.146
24746WAT     H174480   0.199   6.541   3.157
24746WAT     H274481   0.037   6.536   3.141
24747WAT      O74482   1.823   2.630   1.690
24747WAT     H174483   1.807   2.532   1.686
24747WAT     H274484   1.739   2.677   1.718
24748WAT      O74485   8.198   1.326   2.703
24748WAT     H174486   8.164   1.233   2.692
24748WAT     H274487   8.295   1.329   2.676
24749WAT      O74488   1.347   3.265   7.600
24749WAT     H174489   1.423   3.203   7.613
24749WAT     H274490   1.261   3.214   7.600
24750WAT      O74491   7.152   4.218   4.060
24750WAT     H174492   7.169   4.311   4.026
24750WAT     H274493   7.217   4.155   4.018
24751WAT      O74494   5.633   0.878   0.563
24751WAT     H174495   5.600   0.921   0.647
24751WAT     H274496   5.623   0.779   0.571
24752WAT      O74497   8.814   4.297   8.733
24752WAT     H174498   8.739   4.363   8.745
24752WAT     H274499   8.789   4.210   8.775
24753WAT      O74500   2.909   8.569   1.909
24753WAT     H174501   2.925   8.579   2.008
24753WAT     H274502   2.997   8.570   1.861
24754WAT      O74503   3.582   2.724   0.170
24754WAT     H174504   3.616   2.634   0.144
24754WAT     H274505   3.620   2.751   0.258
24755WAT      O74506   4.203   7.965   8.067
24755WAT     H174507   4.123   8.019   8.045
24755WAT     H274508   4.285   8.012   8.036
24756WAT      O74509   7.078   1.923   6.823
24756WAT     H174510   7.165   1.972   6.828
24756WAT     H274511   7.011   1.979   6.773
24757WAT      O74512   5.228   8.958   5.105
24757WAT     H174513   5.195   8.902   5.029
24757WAT     H274514   5.270   8.900   5.174
24758WAT      O74515   9.265   0.467   3.316
24758WAT     H174516   9.269   0.462   3.216
24758WAT     H274517   9.244   0.377   3.353
24759WAT      O74518   3.743   5.015   8.630
24759WAT     H174519   3.763   5.111   8.609
24759WAT     H274520   3.803   4.984   8.703
24760WAT      O74521   4.560   0.701   7.456
24760WAT     H174522   4.528   0.765   7.526
24760WAT     H274523   4.485   0.640   7.431
24761WAT      O74524   0.013   8.775   8.418
24761WAT     H174525   0.024   8.827   8.503
24761WAT     H274526   0.017   8.677   8.438
24762WAT      O74527   7.101   8.800   8.163
24762WAT     H174528   7.004   8.818   8.181
24762WAT     H274529   7.135   8.733   8.228
24763WAT      O74530   0.649   1.787   8.825
24763WAT     H174531   0.725   1.740   8.871
24763WAT     H274532   0.565   1.736   8.842
24764WAT      O74533   2.653   6.834   8.439
24764WAT     H174534   2.656   6.842   8.539
24764WAT     H274535   2.744   6.854   8.402
24765WAT      O74536   6.404   0.732   8.028
24765WAT     H174537   6.395   0.641   7.986
24765WAT     H274538   6.499   0.761   8.025
24766WAT      O74539   2.587   2.769   4.013
24766WAT     H174540   2.621   2.773   3.919
24766WAT     H274541   2.488   2.754   4.011
24767WAT      O74542   4.028   4.212   7.634
24767WAT     H174543   4.085   4.236   7.713
24767WAT     H274544   4.037   4.115   7.614
24768WAT      O74545   3.793   8.336   1.704
24768WAT     H174546   3.779   8.356   1.801
24768WAT     H274547   3.704   8.325   1.660
24769WAT      O74548   2.081   8.835   0.947
24769WAT     H174549   2.020   8.785   0.886
24769WAT     H274550   2.027   8.888   1.012
24770WAT      O74551   6.614   8.891   0.966
24770WAT     H174552   6.685   8.920   1.030
24770WAT     H274553   6.544   8.963   0.959
24771WAT      O74554   6.912   2.619   3.915
24771WAT     H174555   6.815   2.643   3.924
24771WAT     H274556   6.968   2.695   3.948
24772WAT      O74557   6.172   6.447   1.795
24772WAT     H174558   6.075   6.444   1.822
24772WAT     H274559   6.202   6.355   1.769
24773WAT      O74560   4.213   6.580   8.278
24773WAT     H174561   4.273   6.506   8.308
24773WAT     H274562   4.269   6.657   8.246
24774WAT      O74563   8.164   8.829   9.106
24774WAT     H174564   8.175   8.927   9.121
24774WAT     H274565   8.151   8.810   9.009
24775WAT      O74566   3.223   5.561   1.396
24775WAT     H174567   3.175   5.575   1.482
24775WAT     H274568   3.303   5.504   1.411
24776WAT      O74569   8.495   6.780   5.659
24776WAT     H174570   8.594   6.771   5.657
24776WAT     H274571   8.458   6.762   5.567
24777WAT      O74572   6.930   5.114   2.066
24777WAT     H174573   6.859   5.159   2.120
24777WAT     H274574   6.890   5.038   2.014
24778WAT      O74575   5.397   8.624   5.307
24778WAT     H174576   5.394   8.724   5.312
24778WAT     H274577   5.491   8.593   5.315
24779WAT      O74578   8.550   8.682   8.738
24779WAT     H174579   8.635   8.637   8.765
24779WAT     H274580   8.531   8.758   8.801
24780WAT      O74581   7.727   4.190   0.099
24780WAT     H174582   7.745   4.105   0.049
24780WAT     H274583   7.634   4.189   0.134
24781WAT      O74584   7.703   8.571   2.752
24781WAT     H174585   7.604   8.565   2.765
24781WAT     H274586   7.728   8.534   2.662
24782WAT      O74587   3.647   5.931   9.528
24782WAT     H174588   3.628   5.847   9.477
24782WAT     H274589   3.568   5.991   9.524
24783WAT      O74590   3.329   0.791   8.391
24783WAT     H174591   3.319   0.840   8.305
24783WAT     H274592   3.354   0.856   8.464
24784WAT      O74593   2.105   4.210   7.105
24784WAT     H174594   2.062   4.132   7.058
24784WAT     H274595   2.203   4.192   7.117
24785WAT      O74596   2.119   2.223   4.949
24785WAT     H174597   2.036   2.218   4.894
24785WAT     H274598   2.198   2.198   4.893
24786WAT      O74599   8.830   5.643   1.923
24786WAT     H174600   8.924   5.666   1.946
24786WAT     H274601   8.800   5.699   1.846
24787WAT      O74602   5.609   8.513   4.588
24787WAT     H174603   5.628   8.432   4.644
24787WAT     H274604   5.541   8.491   4.518
24788WAT      O74605   8.598   1.238   1.973
24788WAT     H174606   8.544   1.308   1.925
24788WAT     H274607   8.694   1.265   1.972
24789WAT      O74608   3.990   9.405   2.134
24789WAT     H174609   3.901   9.450   2.138
24789WAT     H274610   3.987   9.320   2.186
24790WAT      O74611   0.190   7.739   4.453
24790WAT     H174612   0.163   7.671   4.386
24790WAT     H274613   0.128   7.817   4.450
24791WAT      O74614   1.581   2.868   3.499
24791WAT     H174615   1.565   2.960   3.533
24791WAT     H274616   1.675   2.841   3.520
24792WAT      O74617   5.055   8.875   1.952
24792WAT     H174618   5.018   8.814   2.021
24792WAT     H274619   5.097   8.822   1.879
24793WAT      O74620   1.473   0.177   4.438
24793WAT     H174621   1.506   0.261   4.481
24793WAT     H274622   1.378   0.189   4.412
24794WAT      O74623   4.523   2.254   8.766
24794WAT     H174624   4.479   2.332   8.810
24794WAT     H274625   4.524   2.176   8.829
24795WAT      O74626   9.102   9.620   9.202
24795WAT     H174627   9.110   9.563   9.284
24795WAT     H274628   9.022   9.679   9.210
24796WAT      O74629   6.645   2.637   0.729
24796WAT     H174630   6.609   2.670   0.641
24796WAT     H274631   6.679   2.544   0.719
24797WAT      O74632   1.891   9.818   3.263
24797WAT     H174633   1.909   9.824   3.165
24797WAT     H274634   1.838   9.735   3.282
24798WAT      O74635   4.664   3.337   3.806
24798WAT     H174636   4.628   3.248   3.779
24798WAT     H274637   4.755   3.349   3.765
24799WAT      O74638   1.600   6.278   6.170
24799WAT     H174639   1.512   6.241   6.200
24799WAT     H274640   1.668   6.206   6.169
24800WAT      O74641   9.232   0.056   2.788
24800WAT     H174642   9.316   0.017   2.750
24800WAT     H274643   9.175   0.090   2.714
24801WAT      O74644   7.615   6.202   3.870
24801WAT     H174645   7.642   6.126   3.929
24801WAT     H274646   7.685   6.273   3.873
24802WAT      O74647   1.725   4.112   1.694
24802WAT     H174648   1.816   4.081   1.667
24802WAT     H274649   1.664   4.033   1.700
24803WAT      O74650   1.403   0.847   1.614
24803WAT     H174651   1.478   0.834   1.548
24803WAT     H274652   1.318   0.861   1.564
24804WAT      O74653   9.030   7.339   6.570
24804WAT     H174654   8.968   7.265   6.596
24804WAT     H274655   9.115   7.301   6.534
24805WAT      O74656   5.978   1.480   5.318
24805WAT     H174657   6.002   1.426   5.238
24805WAT     H274658   5.957   1.574   5.289
24806WAT      O74659   2.874   5.028   4.763
24806WAT     H174660   2.802   5.019   4.832
24806WAT     H274661   2.964   5.029   4.808
24807WAT      O74662   1.499   3.141   2.184
24807WAT     H174663   1.568   3.097   2.127
24807WAT     H274664   1.512   3.115   2.280
24808WAT      O74665   8.034   3.417   6.647
24808WAT     H174666   8.026   3.447   6.552
24808WAT     H274667   7.944   3.389   6.680
24809WAT      O74668   9.419   9.468   2.881
24809WAT     H174669   9.461   9.485   2.970
24809WAT     H274670   9.393   9.371   2.875
24810WAT      O74671   7.051   9.605   8.403
24810WAT     H174672   7.018   9.698   8.420
24810WAT     H274673   6.982   9.539   8.434
24811WAT      O74674   5.783   0.037   5.235
24811WAT     H174675   5.856  -0.016   5.278
24811WAT     H274676   5.694   0.005   5.268
24812WAT      O74677   4.732   2.143   0.239
24812WAT     H174678   4.756   2.141   0.142
24812WAT     H274679   4.792   2.208   0.286
24813WAT      O74680   7.737   2.176   1.974
24813WAT     H174681   7.650   2.180   2.023
24813WAT     H274682   7.759   2.266   1.939
24814WAT      O74683   1.396   2.150   0.105
24814WAT     H174684   1.379   2.222   0.172
24814WAT     H274685   1.460   2.184   0.036
24815WAT      O74686   7.215   4.970   9.810
24815WAT     H174687   7.186   4.903   9.743
24815WAT     H274688   7.142   4.984   9.877
24816WAT      O74689   3.844   6.326   3.470
24816WAT     H174690   3.909   6.263   3.428
24816WAT     H274691   3.844   6.412   3.419
24817WAT      O74692   3.622   3.160   3.706
24817WAT     H174693   3.582   3.081   3.660
24817WAT     H274694   3.644   3.230   3.639
24818WAT      O74695   3.083   0.206   8.154
24818WAT     H174696   3.143   0.186   8.077
24818WAT     H274697   3.128   0.272   8.215
24819WAT      O74698   5.743   6.041   6.963
24819WAT     H174699   5.750   6.131   6.921
24819WAT     H274700   5.803   5.977   6.915
24820WAT      O74701   4.013   8.320   0.105
24820WAT     H174702   4.070   8.381   0.159
24820WAT     H274703   3.978   8.370   0.025
24821WAT      O74704   5.052   6.106   3.048
24821WAT     H174705   5.030   6.204   3.047
24821WAT     H274706   5.002   6.061   3.122
24822WAT      O74707   7.634   7.698   1.391
24822WAT     H174708   7.549   7.646   1.375
24822WAT     H274709   7.702   7.637   1.431
24823WAT      O74710   8.129   3.299   9.227
24823WAT     H174711   8.197   3.234   9.260
24823WAT     H274712   8.049   3.250   9.194
24824WAT      O74713   0.433   2.030   7.400
24824WAT     H174714   0.381   2.106   7.440
24824WAT     H274715   0.375   1.949   7.396
24825WAT      O74716   6.788   3.915   4.789
24825WAT     H174717   6.863   3.956   4.738
24825WAT     H274718   6.703   3.962   4.767
24826WAT      O74719   1.207   7.095   6.584
24826WAT     H174720   1.107   7.101   6.593
24826WAT     H274721   1.250   7.150   6.655
24827WAT      O74722   6.846   7.354   6.854
24827WAT     H174723   6.835   7.404   6.767
24827WAT     H274724   6.802   7.265   6.847
24828WAT      O74725   4.802   1.934   5.399
24828WAT     H174726   4.856   1.959   5.319
24828WAT     H274727   4.789   1.835   5.401
24829WAT      O74728   3.430   0.461   3.784
24829WAT     H174729   3.415   0.558   3.770
24829WAT     H274730   3.475   0.422   3.704
24830WAT      O74731   7.529   8.210   9.110
24830WAT     H174732   7.581   8.295   9.119
24830WAT     H274733   7.559   8.145   9.179
24831WAT      O74734   5.795   9.101   7.856
24831WAT     H174735   5.832   9.189   7.887
24831WAT     H274736   5.700   9.114   7.826
24832WAT      O74737   4.030   8.595   2.084
24832WAT     H174738   4.093   8.653   2.033
24832WAT     H274739   4.036   8.617   2.181
24833WAT      O74740   6.532   7.248   8.245
24833WAT     H174741   6.556   7.341   8.216
24833WAT     H274742   6.442   7.248   8.289
24834WAT      O74743   1.954   6.636   3.999
24834WAT     H174744   2.014   6.711   4.028
24834WAT     H274745   1.912   6.594   4.080
24835WAT      O74746   6.207   9.168   5.720
24835WAT     H174747   6.267   9.091   5.740
24835WAT     H274748   6.261   9.244   5.683
24836WAT      O74749   4.016   0.603   2.010
24836WAT     H174750   4.004   0.558   2.099
24836WAT     H274751   4.108   0.587   1.976
24837WAT      O74752   5.828   1.465   0.255
24837WAT     H174753   5.747   1.513   0.290
24837WAT     H274754   5.874   1.523   0.187
24838WAT      O74755   0.383   9.800   7.505
24838WAT     H174756   0.397   9.898   7.521
24838WAT     H274757   0.326   9.788   7.424
24839WAT      O74758   4.249   3.939   2.391
24839WAT     H174759   4.306   3.858   2.396
24839WAT     H274760   4.306   4.020   2.378
24840WAT      O74761   0.905   6.392   4.521
24840WAT     H174762   0.905   6.360   4.426
24840WAT     H274763   0.840   6.468   4.529
24841WAT      O74764   6.854   5.532   2.317
24841WAT     H174765   6.829   5.547   2.222
24841WAT     H274766   6.853   5.619   2.366
24842WAT      O74767   8.052   7.365   7.217
24842WAT     H174768   8.092   7.431   7.154
24842WAT     H274769   7.986   7.307   7.168
24843WAT      O74770   4.127   6.983   1.842
24843WAT     H174771   4.219   6.980   1.801
24843WAT     H274772   4.084   6.893   1.833
24844WAT      O74773   4.076   5.004   9.204
24844WAT     H174774   4.139   5.081   9.200
24844WAT     H274775   4.004   5.023   9.271
24845WAT      O74776   8.271   0.269   3.428
24845WAT     H174777   8.290   0.171   3.422
24845WAT     H274778   8.172   0.284   3.425
24846WAT      O74779   0.652   5.913   0.658
24846WAT     H174780   0.613   6.005   0.666
24846WAT     H274781   0.747   5.920   0.628
24847WAT      O74782   2.600   3.528   3.520
24847WAT     H174783   2.665   3.582   3.574
24847WAT     H274784   2.510   3.532   3.564
24848WAT      O74785   8.223   4.329   3.470
24848WAT     H174786   8.228   4.352   3.567
24848WAT     H274787   8.253   4.408   3.416
24849WAT      O74788   2.983   3.961   5.599
24849WAT     H174789   2.943   3.925   5.683
24849WAT     H274790   2.912   3.970   5.530
24850WAT      O74791   0.181   9.823   2.615
24850WAT     H174792   0.266   9.809   2.565
24850WAT     H274793   0.201   9.860   2.706
24851WAT      O74794   2.296   3.766   0.579
24851WAT     H174795   2.310   3.667   0.579
24851WAT     H274796   2.367   3.810   0.524
24852WAT      O74797   5.832   5.111   2.085
24852WAT     H174798   5.871   5.036   2.138
24852WAT     H274799   5.760   5.076   2.026
24853WAT      O74800   9.334   5.537   8.568
24853WAT     H174801   9.268   5.466   8.591
24853WAT     H274802   9.413   5.496   8.523
24854WAT      O74803   9.410   6.685   7.787
24854WAT     H174804   9.490   6.626   7.771
24854WAT     H274805   9.423   6.735   7.873
24855WAT      O74806   1.932   6.115   4.832
24855WAT     H174807   1.963   6.107   4.927
24855WAT     H274808   2.011   6.120   4.771
24856WAT      O74809   0.060   9.029   1.015
24856WAT     H174810  -0.001   9.076   0.952
24856WAT     H274811   0.154   9.060   1.000
24857WAT      O74812   0.903   0.275   9.535
24857WAT     H174813   0.989   0.224   9.528
24857WAT     H274814   0.848   0.258   9.453
24858WAT      O74815   7.822   9.536   0.636
24858WAT     H174816   7.901   9.514   0.694
24858WAT     H274817   7.809   9.465   0.568
24859WAT      O74818   4.030   5.569   7.459
24859WAT     H174819   4.105   5.614   7.507
24859WAT     H274820   4.024   5.474   7.488
24860WAT      O74821   6.818   3.313   5.375
24860WAT     H174822   6.812   3.410   5.397
24860WAT     H274823   6.911   3.280   5.395
24861WAT      O74824   2.378   0.124   1.037
24861WAT     H174825   2.382   0.054   0.965
24861WAT     H274826   2.467   0.129   1.082
24862WAT      O74827   8.554   1.658   6.292
24862WAT     H174828   8.463   1.626   6.319
24862WAT     H274829   8.623   1.614   6.351
24863WAT      O74830   5.580   5.984   9.168
24863WAT     H174831   5.619   5.943   9.251
24863WAT     H274832   5.496   6.033   9.192
24864WAT      O74833   0.919   4.017   2.455
24864WAT     H174834   0.896   3.959   2.376
24864WAT     H274835   0.950   3.960   2.531
24865WAT      O74836   1.259   3.182   3.712
24865WAT     H174837   1.185   3.232   3.668
24865WAT     H274838   1.347   3.217   3.680
24866WAT      O74839   1.610   1.616   0.235
24866WAT     H174840   1.707   1.636   0.218
24866WAT     H274841   1.554   1.671   0.172
24867WAT      O74842   6.061   9.342   6.562
24867WAT     H174843   5.963   9.330   6.543
24867WAT     H274844   6.114   9.308   6.484
24868WAT      O74845   6.582   0.681   1.720
24868WAT     H174846   6.620   0.718   1.804
24868WAT     H274847   6.598   0.745   1.644
24869WAT      O74848   3.517   1.780   0.260
24869WAT     H174849   3.435   1.836   0.265
24869WAT     H274850   3.573   1.811   0.183
24870WAT      O74851   1.360   4.797   8.758
24870WAT     H174852   1.262   4.796   8.778
24870WAT     H274853   1.374   4.836   8.667
24871WAT      O74854   2.914   7.990   8.619
24871WAT     H174855   2.968   7.917   8.578
24871WAT     H274856   2.837   7.952   8.668
24872WAT      O74857   4.456   0.505   8.229
24872WAT     H174858   4.392   0.570   8.271
24872WAT     H274859   4.508   0.552   8.158
24873WAT      O74860   7.003   4.462   6.105
24873WAT     H174861   6.919   4.409   6.112
24873WAT     H274862   7.042   4.451   6.013
24874WAT      O74863   7.499   3.093   0.509
24874WAT     H174864   7.557   3.012   0.494
24874WAT     H274865   7.556   3.168   0.541
24875WAT      O74866   9.540   4.995   5.898
24875WAT     H174867   9.524   4.908   5.943
24875WAT     H274868   9.497   5.069   5.951
24876WAT      O74869   1.267   0.155   9.834
24876WAT     H174870   1.226   0.146   9.743
24876WAT     H274871   1.288   0.064   9.870
24877WAT      O74872   7.271   3.638   2.968
24877WAT     H174873   7.267   3.722   3.022
24877WAT     H274874   7.204   3.642   2.894
24878WAT      O74875   1.879   8.628   0.535
24878WAT     H174876   1.895   8.719   0.497
24878WAT     H274877   1.780   8.614   0.547
24879WAT      O74878   4.198   2.345   5.786
24879WAT     H174879   4.158   2.416   5.844
24879WAT     H274880   4.295   2.365   5.770
24880WAT      O74881   8.515   2.298   5.406
24880WAT     H174882   8.558   2.316   5.318
24880WAT     H274883   8.462   2.214   5.402
24881WAT      O74884   1.404   4.878   2.386
24881WAT     H174885   1.415   4.798   2.327
24881WAT     H274886   1.392   4.848   2.480
24882WAT      O74887   2.583   7.586   1.491
24882WAT     H174888   2.671   7.634   1.483
24882WAT     H274889   2.598   7.488   1.483
24883WAT      O74890   6.531   3.390   9.200
24883WAT     H174891   6.578   3.329   9.264
24883WAT     H274892   6.529   3.482   9.239
24884WAT      O74893   7.709   1.442   1.959
24884WAT     H174894   7.616   1.440   1.996
24884WAT     H274895   7.733   1.535   1.932
24885WAT      O74896   1.135   5.535   3.769
24885WAT     H174897   1.126   5.614   3.707
24885WAT     H274898   1.060   5.535   3.835
24886WAT      O74899   8.363   5.327   0.165
24886WAT     H174900   8.383   5.410   0.114
24886WAT     H274901   8.336   5.254   0.102
24887WAT      O74902   0.603   8.976   0.150
24887WAT     H174903   0.650   8.943   0.068
24887WAT     H274904   0.516   9.019   0.124
24888WAT      O74905   4.091   0.986   7.811
24888WAT     H174906   4.027   0.929   7.862
24888WAT     H274907   4.085   0.964   7.713
24889WAT      O74908   2.488   8.288   1.253
24889WAT     H174909   2.493   8.216   1.322
24889WAT     H274910   2.397   8.329   1.255
24890WAT      O74911   6.302   4.858   6.844
24890WAT     H174912   6.368   4.795   6.885
24890WAT     H274913   6.213   4.813   6.837
24891WAT      O74914   9.111   2.623   6.622
24891WAT     H174915   9.153   2.582   6.540
24891WAT     H274916   9.018   2.588   6.633
24892WAT      O74917   1.573   9.815   4.584
24892WAT     H174918   1.520   9.862   4.513
24892WAT     H274919   1.627   9.882   4.635
24893WAT      O74920   0.245   6.194   4.837
24893WAT     H174921   0.257   6.270   4.772
24893WAT     H274922   0.168   6.138   4.808
24894WAT      O74923   8.417   5.414   5.193
24894WAT     H174924   8.457   5.400   5.102
24894WAT     H274925   8.481   5.467   5.248
24895WAT      O74926   2.428   0.726   5.399
24895WAT     H174927   2.480   0.695   5.479
24895WAT     H274928   2.411   0.825   5.407
24896WAT      O74929   9.151   3.686   5.352
24896WAT     H174930   9.067   3.637   5.328
24896WAT     H274931   9.137   3.784   5.340
24897WAT      O74932   0.262   3.729   8.638
24897WAT     H174933   0.236   3.779   8.721
24897WAT     H274934   0.257   3.791   8.560
24898WAT      O74935   2.931   2.905   4.448
24898WAT     H174936   2.836   2.932   4.432
24898WAT     H274937   2.974   2.881   4.362
24899WAT      O74938   8.977   3.629   7.694
24899WAT     H174939   8.985   3.722   7.656
24899WAT     H274940   9.013   3.628   7.787
24900WAT      O74941   5.393   3.249   9.047
24900WAT     H174942   5.315   3.253   9.110
24900WAT     H274943   5.438   3.160   9.055
24901WAT      O74944   1.116   1.321   3.035
24901WAT     H174945   1.175   1.400   3.048
24901WAT     H274946   1.090   1.313   2.939
24902WAT      O74947   0.548   4.234   3.312
24902WAT     H174948   0.492   4.275   3.240
24902WAT     H274949   0.543   4.135   3.306
24903WAT      O74950   2.521   8.489   0.250
24903WAT     H174951   2.428   8.478   0.287
24903WAT     H274952   2.531   8.431   0.170
24904WAT      O74953   2.384   5.845   4.068
24904WAT     H174954   2.379   5.930   4.016
24904WAT     H274955   2.416   5.771   4.009
24905WAT      O74956   4.238   9.182   6.572
24905WAT     H174957   4.233   9.256   6.639
24905WAT     H274958   4.155   9.126   6.577
24906WAT      O74959   2.514   6.316   8.970
24906WAT     H174960   2.436   6.302   9.031
24906WAT     H274961   2.517   6.242   8.902
24907WAT      O74962   0.548   5.441   4.199
24907WAT     H174963   0.467   5.466   4.251
24907WAT     H274964   0.573   5.517   4.138
24908WAT      O74965   4.725   7.285   6.475
24908WAT     H174966   4.737   7.324   6.566
24908WAT     H274967   4.791   7.211   6.462
24909WAT      O74968   6.742   7.302   9.692
24909WAT     H174969   6.777   7.361   9.619
24909WAT     H274970   6.805   7.305   9.770
24910WAT      O74971   3.816   8.845   4.155
24910WAT     H174972   3.889   8.776   4.158
24910WAT     H274973   3.791   8.863   4.060
24911WAT      O74974   5.384   6.512   2.086
24911WAT     H174975   5.453   6.528   2.014
24911WAT     H274976   5.322   6.590   2.090
24912WAT      O74977   6.985   2.073   7.302
24912WAT     H174978   6.931   2.107   7.379
24912WAT     H274979   7.042   1.996   7.331
24913WAT      O74980   0.053   6.636   6.310
24913WAT     H174981  -0.014   6.587   6.253
24913WAT     H274982   0.138   6.584   6.312
24914WAT      O74983   5.439   4.011   6.871
24914WAT     H174984   5.367   4.008   6.940
24914WAT     H274985   5.442   4.103   6.831
24915WAT      O74986   3.670   9.791   3.074
24915WAT     H174987   3.735   9.724   3.110
24915WAT     H274988   3.663   9.781   2.975
24916WAT      O74989   8.782   1.412   5.210
24916WAT     H174990   8.725   1.403   5.292
24916WAT     H274991   8.835   1.496   5.216
24917WAT      O74992   4.003   7.401   6.877
24917WAT     H174993   4.095   7.437   6.893
24917WAT     H274994   3.991   7.384   6.779
24918WAT      O74995   7.840   6.077   0.961
24918WAT     H174996   7.798   6.008   0.902
24918WAT     H274997   7.931   6.098   0.928
24919WAT      O74998   3.912   0.989   6.014
24919WAT     H174999   3.988   1.054   6.004
24919WAT     H275000   3.882   0.988   6.109
24920WAT      O75001   4.848   1.636   7.555
24920WAT     H175002   4.810   1.548   7.584
24920WAT     H275003   4.780   1.708   7.569
24921WAT      O75004   4.806   1.231   5.573
24921WAT     H175005   4.828   1.179   5.656
24921WAT     H275006   4.772   1.168   5.503
24922WAT      O75007   6.237   3.045   8.331
24922WAT     H175008   6.148   3.084   8.306
24922WAT     H275009   6.252   2.961   8.279
24923WAT      O75010   5.826   3.957   1.153
24923WAT     H175011   5.891   4.023   1.193
24923WAT     H275012   5.863   3.922   1.067
24924WAT      O75013   0.298   7.377   9.776
24924WAT     H175014   0.237   7.447   9.737
24924WAT     H275015   0.351   7.335   9.702
24925WAT      O75016   6.956   4.850   2.762
24925WAT     H175017   6.930   4.945   2.775
24925WAT     H275018   6.877   4.791   2.781
24926WAT      O75019   4.101   7.686   6.246
24926WAT     H175020   4.058   7.760   6.194
24926WAT     H275021   4.036   7.611   6.256
24927WAT      O75022   5.876   8.345   0.413
24927WAT     H175023   5.934   8.421   0.445
24927WAT     H275024   5.784   8.356   0.451
24928WAT      O75025   2.339   3.403   1.054
24928WAT     H175026   2.247   3.429   1.082
24928WAT     H275027   2.351   3.305   1.067
24929WAT      O75028   9.479   1.813   8.301
24929WAT     H175029   9.497   1.907   8.331
24929WAT     H275030   9.393   1.810   8.249
24930WAT      O75031   9.003   3.928   3.632
24930WAT     H175032   9.081   3.885   3.678
24930WAT     H275033   9.016   3.924   3.533
24931WAT      O75034   9.039   9.743   5.644
24931WAT     H175035   8.992   9.662   5.609
24931WAT     H275036   9.058   9.805   5.568
24932WAT      O75037   3.490   0.701   3.593
24932WAT     H175038   3.460   0.796   3.583
24932WAT     H275039   3.466   0.650   3.511
24933WAT      O75040   9.009   7.811   6.697
24933WAT     H175041   8.982   7.790   6.791
24933WAT     H275042   9.005   7.727   6.642
24934WAT      O75043   1.346   8.360   7.519
24934WAT     H175044   1.278   8.422   7.480
24934WAT     H275045   1.322   8.339   7.613
24935WAT      O75046   5.584   2.833   1.344
24935WAT     H175047   5.658   2.876   1.292
24935WAT     H275048   5.609   2.738   1.364
24936WAT      O75049   7.894   9.036   4.882
24936WAT     H175050   7.992   9.023   4.867
24936WAT     H275051   7.865   9.122   4.841
24937WAT      O75052   8.114   0.706   6.701
24937WAT     H175053   8.015   0.719   6.693
24937WAT     H275054   8.159   0.756   6.627
24938WAT      O75055   4.878   4.020   0.321
24938WAT     H175056   4.935   4.036   0.240
24938WAT     H275057   4.810   4.093   0.328
24939WAT      O75058   1.424   7.595   0.371
24939WAT     H175059   1.351   7.613   0.438
24939WAT     H275060   1.419   7.500   0.341
24940WAT      O75061   2.559   7.846   5.708
24940WAT     H175062   2.604   7.904   5.776
24940WAT     H275063   2.524   7.902   5.634
24941WAT      O75064   6.712   6.987   4.763
24941WAT     H175065   6.741   7.067   4.815
24941WAT     H275066   6.776   6.970   4.688
24942WAT      O75067   6.086   8.305   8.402
24942WAT     H175068   6.184   8.300   8.424
24942WAT     H275069   6.033   8.307   8.486
24943WAT      O75070   8.140   7.489   6.615
24943WAT     H175071   8.102   7.581   6.615
24943WAT     H275072   8.144   7.454   6.521
24944WAT      O75073   3.895   7.026   3.483
24944WAT     H175074   3.871   7.085   3.560
24944WAT     H275075   3.857   6.935   3.498
24945WAT      O75076   4.533   2.967   5.570
24945WAT     H175077   4.472   3.045   5.558
24945WAT     H275078   4.620   2.998   5.607
24946WAT      O75079   6.029   0.010   6.748
24946WAT     H175080   6.086   0.086   6.780
24946WAT     H275081   6.016  -0.055   6.823
24947WAT      O75082   5.707   0.756   0.879
24947WAT     H175083   5.696   0.844   0.927
24947WAT     H275084   5.803   0.745   0.852
24948WAT      O75085   5.445   8.199   8.187
24948WAT     H175086   5.493   8.271   8.236
24948WAT     H275087   5.398   8.140   8.252
24949WAT      O75088   0.165   1.071   4.525
24949WAT     H175089   0.144   1.023   4.610
24949WAT     H275090   0.081   1.097   4.479
24950WAT      O75091   3.967   3.617   3.494
24950WAT     H175092   3.897   3.666   3.545
24950WAT     H275093   3.944   3.617   3.397
24951WAT      O75094   4.706   1.085   0.998
24951WAT     H175095   4.715   0.985   0.989
24951WAT     H275096   4.675   1.123   0.911
24952WAT      O75097   1.682   6.555   8.634
24952WAT     H175098   1.716   6.553   8.540
24952WAT     H275099   1.652   6.463   8.660
24953WAT      O75100   7.607   7.959   8.645
24953WAT     H175101   7.577   7.995   8.733
24953WAT     H275102   7.527   7.943   8.587
24954WAT      O75103   2.053   7.749   0.998
24954WAT     H175104   2.098   7.707   0.919
24954WAT     H275105   2.072   7.695   1.080
24955WAT      O75106   4.135   5.578   5.343
24955WAT     H175107   4.173   5.666   5.314
24955WAT     H275108   4.042   5.568   5.308
24956WAT      O75109   0.988   4.208   9.698
24956WAT     H175110   0.898   4.181   9.666
24956WAT     H275111   1.028   4.273   9.634
24957WAT      O75112   5.920   7.705   7.912
24957WAT     H175113   5.914   7.783   7.849
24957WAT     H275114   6.007   7.708   7.960
24958WAT      O75115   2.692   3.947   1.660
24958WAT     H175116   2.699   3.890   1.742
24958WAT     H275117   2.774   4.003   1.651
24959WAT      O75118   1.201   8.886   2.020
24959WAT     H175119   1.195   8.815   2.090
24959WAT     H275120   1.176   8.847   1.931
24960WAT      O75121   4.636   2.927   8.709
24960WAT     H175122   4.565   2.980   8.756
24960WAT     H275123   4.650   2.841   8.757
24961WAT      O75124   5.901   9.746   4.714
24961WAT     H175125   5.997   9.748   4.739
24961WAT     H275126   5.848   9.801   4.779
24962WAT      O75127   7.372   0.924   1.250
24962WAT     H175128   7.435   0.861   1.204
24962WAT     H275129   7.371   0.905   1.348
24963WAT      O75130   8.394   5.265   9.148
24963WAT     H175131   8.339   5.195   9.194
24963WAT     H275132   8.334   5.323   9.092
24964WAT      O75133   8.347   0.961   3.637
24964WAT     H175134   8.277   1.015   3.683
24964WAT     H275135   8.420   1.022   3.606
24965WAT      O75136   9.757   8.324   1.266
24965WAT     H175137   9.721   8.310   1.358
24965WAT     H275138   9.855   8.344   1.271
24966WAT      O75139   2.383   6.099   2.272
24966WAT     H175140   2.455   6.034   2.297
24966WAT     H275141   2.392   6.123   2.176
24967WAT      O75142   4.950   6.959   3.868
24967WAT     H175143   5.000   6.904   3.801
24967WAT     H275144   4.904   7.034   3.821
24968WAT      O75145   0.393   1.419   3.747
24968WAT     H175146   0.295   1.412   3.765
24968WAT     H275147   0.410   1.406   3.649
24969WAT      O75148   2.821   6.397   4.313
24969WAT     H175149   2.890   6.462   4.344
24969WAT     H275150   2.838   6.374   4.217
24970WAT      O75151   4.699   6.549   1.124
24970WAT     H175152   4.719   6.527   1.029
24970WAT     H275153   4.601   6.562   1.135
24971WAT      O75154   6.788   5.566   1.278
24971WAT     H175155   6.780   5.641   1.212
24971WAT     H275156   6.698   5.525   1.292
24972WAT      O75157   2.811   9.206   5.731
24972WAT     H175158   2.881   9.226   5.800
24972WAT     H275159   2.737   9.154   5.773
24973WAT      O75160   8.684   6.162   5.679
24973WAT     H175161   8.633   6.247   5.676
24973WAT     H275162   8.778   6.180   5.711
24974WAT      O75163   2.949   6.890   0.710
24974WAT     H175164   2.996   6.809   0.675
24974WAT     H275165   2.926   6.950   0.634
24975WAT      O75166   9.053   8.175   5.368
24975WAT     H175167   8.970   8.225   5.342
24975WAT     H275168   9.098   8.221   5.445
24976WAT      O75169   8.941   1.854   8.728
24976WAT     H175170   9.007   1.858   8.803
24976WAT     H275171   8.990   1.858   8.641
24977WAT      O75172   0.496   1.000   8.779
24977WAT     H175173   0.572   1.064   8.770
24977WAT     H275174   0.459   1.006   8.872
24978WAT      O75175   8.262   7.216   0.796
24978WAT     H175176   8.165   7.213   0.774
24978WAT     H275177   8.296   7.310   0.784
24979WAT      O75178   0.036   2.296   8.245
24979WAT     H175179   0.122   2.255   8.275
24979WAT     H275180  -0.023   2.311   8.325
24980WAT      O75181   0.488   9.639   9.567
24980WAT     H175182   0.461   9.556   9.518
24980WAT     H275183   0.442   9.642   9.656
24981WAT      O75184   3.563   1.263   8.141
24981WAT     H175185   3.485   1.310   8.099
24981WAT     H275186   3.593   1.189   8.082
24982WAT      O75187   1.855   4.484   0.385
24982WAT     H175188   1.930   4.510   0.324
24982WAT     H275189   1.892   4.436   0.465
24983WAT      O75190   1.533   6.644   5.909
24983WAT     H175191   1.536   6.729   5.856
24983WAT     H275192   1.464   6.652   5.981
24984WAT      O75193   4.001   1.668   0.332
24984WAT     H175194   3.915   1.643   0.287
24984WAT     H275195   3.996   1.645   0.430
24985WAT      O75196   1.170   4.790   7.440
24985WAT     H175197   1.078   4.820   7.416
24985WAT     H275198   1.167   4.699   7.481
24986WAT      O75199   9.181   7.961   4.661
24986WAT     H175200   9.276   7.993   4.658
24986WAT     H275201   9.154   7.931   4.570
24987WAT      O75202   4.119   6.043   8.702
24987WAT     H175203   4.084   6.134   8.678
24987WAT     H275204   4.122   6.034   8.802
24988WAT      O75205   6.259   9.771   5.324
24988WAT     H175206   6.288   9.847   5.383
24988WAT     H275207   6.169   9.740   5.352
24989WAT      O75208   2.931   1.673   0.015
24989WAT     H175209   2.989   1.610  -0.035
24989WAT     H275210   2.888   1.737  -0.049
24990WAT      O75211   7.953   8.176   5.143
24990WAT     H175212   8.006   8.242   5.091
24990WAT     H275213   7.878   8.142   5.087
24991WAT      O75214   2.348   3.139   1.169
24991WAT     H175215   2.384   3.132   1.262
24991WAT     H275216   2.248   3.136   1.172
24992WAT      O75217   0.528   5.425   8.767
24992WAT     H175218   0.493   5.515   8.794
24992WAT     H275219   0.453   5.360   8.761
24993WAT      O75220   6.440   8.321   8.516
24993WAT     H175221   6.535   8.327   8.486
24993WAT     H275222   6.423   8.229   8.553
24994WAT      O75223   4.880   0.784   3.154
24994WAT     H175224   4.948   0.717   3.125
24994WAT     H275225   4.789   0.755   3.123
24995WAT      O75226   3.070   8.517   2.626
24995WAT     H175227   3.141   8.446   2.623
24995WAT     H275228   3.012   8.503   2.706
24996WAT      O75229   7.176   9.332   3.730
24996WAT     H175230   7.249   9.273   3.695
24996WAT     H275231   7.127   9.284   3.803
24997WAT      O75232   5.335   5.637   2.207
24997WAT     H175233   5.315   5.695   2.285
24997WAT     H275234   5.342   5.542   2.237
24998WAT      O75235   8.928   4.472   8.550
24998WAT     H175236   8.859   4.457   8.480
24998WAT     H275237   8.901   4.426   8.634
24999WAT      O75238   4.424   4.151   9.419
24999WAT     H175239   4.440   4.165   9.321
24999WAT     H275240   4.512   4.149   9.467
25000WAT      O75241   5.347   3.224   2.055
25000WAT     H175242   5.372   3.258   2.146
25000WAT     H275243   5.248   3.220   2.046
25001WAT      O75244   4.976   0.742   5.103
25001WAT     H175245   4.954   0.729   5.007
25001WAT     H275246   4.892   0.762   5.154
25002WAT      O75247   4.543   0.697   2.148
25002WAT     H175248   4.595   0.680   2.065
25002WAT     H275249   4.477   0.771   2.132
25003WAT      O75250   5.043   3.406   8.384
25003WAT     H175251   4.984   3.327   8.399
25003WAT     H275252   5.138   3.380   8.402
25004WAT      O75253   3.162   2.903   6.561
25004WAT     H175254   3.217   2.923   6.642
25004WAT     H275255   3.201   2.825   6.512
25005WAT      O75256   9.864   8.865   2.809
25005WAT     H175257   9.923   8.932   2.854
25005WAT     H275258   9.908   8.833   2.725
25006WAT      O75259   5.259   7.956   2.466
25006WAT     H175260   5.237   8.053   2.459
25006WAT     H275261   5.339   7.944   2.525
25007WAT      O75262   2.326   4.126   8.505
25007WAT     H175263   2.335   4.184   8.586
25007WAT     H275264   2.230   4.101   8.492
25008WAT      O75265   2.414   4.312   7.421
25008WAT     H175266   2.425   4.411   7.410
25008WAT     H275267   2.375   4.292   7.511
25009WAT      O75268   2.796   7.175   1.064
25009WAT     H175269   2.793   7.087   1.017
25009WAT     H275270   2.703   7.203   1.089
25010WAT      O75271   8.824   3.735   7.955
25010WAT     H175272   8.905   3.676   7.960
25010WAT     H275273   8.742   3.680   7.972
25011WAT      O75274   3.987   4.627   4.694
25011WAT     H175275   3.895   4.625   4.733
25011WAT     H275276   4.005   4.541   4.646
25012WAT      O75277   6.162   7.339   2.784
25012WAT     H175278   6.195   7.346   2.878
25012WAT     H275279   6.202   7.258   2.740
25013WAT      O75280   3.118   1.016   3.228
25013WAT     H175281   3.170   0.950   3.281
25013WAT     H275282   3.149   1.015   3.133
25014WAT      O75283   5.822   0.154   6.636
25014WAT     H175284   5.901   0.102   6.670
25014WAT     H275285   5.803   0.128   6.541
25015WAT      O75286   6.617   6.714   1.384
25015WAT     H175287   6.621   6.791   1.320
25015WAT     H275288   6.530   6.667   1.374
25016WAT      O75289   0.356   2.811   7.719
25016WAT     H175290   0.419   2.832   7.644
25016WAT     H275291   0.308   2.726   7.698
25017WAT      O75292   7.153   0.637   4.899
25017WAT     H175293   7.055   0.637   4.880
25017WAT     H275294   7.193   0.724   4.870
25018WAT      O75295   9.461   3.835   7.858
25018WAT     H175296   9.547   3.793   7.830
25018WAT     H275297   9.465   3.858   7.955
25019WAT      O75298   7.371   9.257   7.466
25019WAT     H175299   7.368   9.168   7.512
25019WAT     H275300   7.450   9.260   7.405
25020WAT      O75301   8.048   6.428   7.232
25020WAT     H175302   8.016   6.338   7.203
25020WAT     H275303   8.021   6.497   7.165
25021WAT      O75304   6.635   6.398   4.639
25021WAT     H175305   6.599   6.397   4.733
25021WAT     H275306   6.718   6.453   4.636
25022WAT      O75307   6.866   4.250   2.884
25022WAT     H175308   6.815   4.217   2.962
25022WAT     H275309   6.810   4.243   2.801
25023WAT      O75310   5.985   8.809   5.197
25023WAT     H175311   5.924   8.731   5.182
25023WAT     H275312   5.931   8.894   5.193
25024WAT      O75313   9.253   1.027   8.554
25024WAT     H175314   9.233   0.942   8.507
25024WAT     H275315   9.284   1.095   8.488
25025WAT      O75316   1.728   2.240   5.180
25025WAT     H175317   1.729   2.290   5.266
25025WAT     H275318   1.717   2.303   5.104
25026WAT      O75319   3.988   1.342   8.390
25026WAT     H175320   4.074   1.324   8.342
25026WAT     H275321   3.959   1.260   8.440
25027WAT      O75322   9.488   0.393   0.205
25027WAT     H175323   9.463   0.478   0.157
25027WAT     H275324   9.415   0.326   0.194
25028WAT      O75325   8.317   3.809   6.587
25028WAT     H175326   8.239   3.756   6.622
25028WAT     H275327   8.393   3.802   6.652
25029WAT      O75328   1.732   4.281   6.146
25029WAT     H175329   1.781   4.290   6.059
25029WAT     H275330   1.737   4.186   6.176
25030WAT      O75331   3.637   3.032   4.452
25030WAT     H175332   3.686   3.062   4.371
25030WAT     H275333   3.624   2.933   4.450
25031WAT      O75334   6.620   5.115   3.021
25031WAT     H175335   6.621   5.182   3.095
25031WAT     H275336   6.536   5.125   2.968
25032WAT      O75337   1.237   7.989   7.664
25032WAT     H175338   1.230   7.937   7.749
25032WAT     H275339   1.326   8.034   7.660
25033WAT      O75340   2.975   1.907   3.163
25033WAT     H175341   3.026   1.899   3.248
25033WAT     H275342   2.998   1.832   3.102
25034WAT      O75343   1.677   0.117   0.644
25034WAT     H175344   1.672   0.106   0.743
25034WAT     H275345   1.759   0.169   0.620
25035WAT      O75346   8.651   3.881   7.795
25035WAT     H175347   8.694   3.902   7.708
25035WAT     H275348   8.716   3.833   7.854
25036WAT      O75349   7.712   7.078   9.710
25036WAT     H175350   7.787   7.141   9.690
25036WAT     H275351   7.643   7.124   9.766
25037WAT      O75352   3.966   9.153   5.716
25037WAT     H175353   3.880   9.156   5.666
25037WAT     H275354   3.977   9.237   5.769
25038WAT      O75355   1.284   1.823   7.147
25038WAT     H175356   1.282   1.723   7.155
25038WAT     H275357   1.378   1.855   7.151
25039WAT      O75358   7.945   6.112   0.165
25039WAT     H175359   7.969   6.167   0.244
25039WAT     H275360   7.924   6.019   0.194
25040WAT      O75361   1.556   8.662   8.376
25040WAT     H175362   1.566   8.567   8.408
25040WAT     H275363   1.603   8.723   8.440
25041WAT      O75364   4.579   3.514   8.091
25041WAT     H175365   4.584   3.607   8.127
25041WAT     H275366   4.485   3.481   8.095
25042WAT      O75367   2.143   1.537   1.322
25042WAT     H175368   2.058   1.590   1.312
25042WAT     H275369   2.191   1.537   1.234
25043WAT      O75370   9.733   9.411   2.325
25043WAT     H175371   9.831   9.427   2.334
25043WAT     H275372   9.706   9.422   2.229
25044WAT      O75373   9.870   7.397   3.126
25044WAT     H175374   9.941   7.392   3.056
25044WAT     H275375   9.837   7.492   3.133
25045WAT      O75376   4.069   2.434   1.525
25045WAT     H175377   4.083   2.423   1.623
25045WAT     H275378   4.047   2.529   1.505
25046WAT      O75379   8.595   9.547   8.702
25046WAT     H175380   8.636   9.604   8.630
25046WAT     H275381   8.668   9.502   8.753
25047WAT      O75382   5.067   5.601   9.015
25047WAT     H175383   5.062   5.519   8.957
25047WAT     H275384   4.982   5.654   9.005
25048WAT      O75385   1.748   7.482   4.091
25048WAT     H175386   1.819   7.509   4.026
25048WAT     H275387   1.658   7.490   4.047
25049WAT      O75388   2.079   0.147   0.145
25049WAT     H175389   1.982   0.147   0.121
25049WAT     H275390   2.091   0.099   0.232
25050WAT      O75391   9.019   9.479   8.205
25050WAT     H175392   8.969   9.550   8.156
25050WAT     H275393   9.010   9.392   8.156
25051WAT      O75394   8.645   3.991   2.817
25051WAT     H175395   8.610   4.011   2.908
25051WAT     H275396   8.569   3.974   2.754
25052WAT      O75397   9.622   1.377   7.768
25052WAT     H175398   9.576   1.289   7.762
25052WAT     H275399   9.662   1.388   7.859
25053WAT      O75400   0.553   9.269   6.486
25053WAT     H175401   0.555   9.183   6.536
25053WAT     H275402   0.566   9.345   6.549
25054WAT      O75403   2.986   4.222   4.938
25054WAT     H175404   3.005   4.308   4.890
25054WAT     H275405   3.005   4.233   5.035
25055WAT      O75406   9.074   3.153   4.700
25055WAT     H175407   9.124   3.182   4.782
25055WAT     H275408   9.135   3.100   4.641
25056WAT      O75409   3.206   4.554   3.321
25056WAT     H175410   3.223   4.497   3.401
25056WAT     H275411   3.284   4.550   3.259
25057WAT      O75412   0.134   0.374   4.496
25057WAT     H175413   0.060   0.428   4.456
25057WAT     H275414   0.164   0.417   4.581
25058WAT      O75415   6.042   1.095   5.706
25058WAT     H175416   5.966   1.031   5.717
25058WAT     H275417   6.021   1.159   5.632
25059WAT      O75418   4.026   8.962   7.529
25059WAT     H175419   3.941   9.011   7.548
25059WAT     H275420   4.010   8.892   7.460
25060WAT      O75421   7.545   2.132   0.607
25060WAT     H175422   7.447   2.114   0.597
25060WAT     H275423   7.577   2.092   0.693
25061WAT      O75424   0.947   6.299   7.558
25061WAT     H175425   0.908   6.316   7.648
25061WAT     H275426   1.017   6.228   7.565
25062WAT      O75427   8.349   6.729   0.776
25062WAT     H175428   8.288   6.688   0.708
25062WAT     H275429   8.364   6.665   0.851
25063WAT      O75430   0.179   6.595   2.735
25063WAT     H175431   0.251   6.614   2.802
25063WAT     H275432   0.207   6.517   2.678
25064WAT      O75433   1.641   4.362   1.687
25064WAT     H175434   1.668   4.267   1.704
25064WAT     H275435   1.705   4.423   1.735
25065WAT      O75436   0.058   4.156   7.206
25065WAT     H175437   0.034   4.217   7.130
25065WAT     H275438  -0.020   4.096   7.225
25066WAT      O75439   7.384   0.757   6.913
25066WAT     H175440   7.454   0.701   6.869
25066WAT     H275441   7.296   0.710   6.908
25067WAT      O75442   3.874   8.486   7.095
25067WAT     H175443   3.928   8.445   7.169
25067WAT     H275444   3.783   8.445   7.093
25068WAT      O75445   2.863   2.775   2.669
25068WAT     H175446   2.817   2.699   2.623
25068WAT     H275447   2.909   2.741   2.751
25069WAT      O75448   9.787   1.536   1.705
25069WAT     H175449   9.708   1.498   1.656
25069WAT     H275450   9.773   1.529   1.803
25070WAT      O75451   7.222   3.220   8.399
25070WAT     H175452   7.194   3.132   8.361
25070WAT     H275453   7.186   3.230   8.492
25071WAT      O75454   7.550   6.769   1.116
25071WAT     H175455   7.529   6.829   1.193
25071WAT     H275456   7.470   6.764   1.055
25072WAT      O75457   6.756   4.287   9.694
25072WAT     H175458   6.668   4.332   9.708
25072WAT     H275459   6.794   4.259   9.782
25073WAT      O75460   2.400   0.261   3.322
25073WAT     H175461   2.309   0.227   3.301
25073WAT     H275462   2.449   0.279   3.236
25074WAT      O75463   6.416   2.421   3.981
25074WAT     H175464   6.501   2.370   3.963
25074WAT     H275465   6.438   2.518   3.991
25075WAT      O75466   5.347   8.168   7.716
25075WAT     H175467   5.248   8.159   7.703
25075WAT     H275468   5.367   8.251   7.767
25076WAT      O75469   0.040   9.016   4.681
25076WAT     H175470   0.138   9.028   4.695
25076WAT     H275471   0.022   8.994   4.585
25077WAT      O75472   1.651   8.767   8.596
25077WAT     H175473   1.690   8.858   8.578
25077WAT     H275474   1.702   8.725   8.671
25078WAT      O75475   0.085   3.541   2.802
25078WAT     H175476   0.029   3.520   2.881
25078WAT     H275477   0.110   3.456   2.755
25079WAT      O75478   8.544   4.039   3.058
25079WAT     H175479   8.552   4.041   3.157
25079WAT     H275480   8.461   3.990   3.032
25080WAT      O75481   8.474   6.519   7.454
25080WAT     H175482   8.375   6.523   7.470
25080WAT     H275483   8.510   6.432   7.488
25081WAT      O75484   7.920   5.178   9.645
25081WAT     H175485   7.929   5.145   9.739
25081WAT     H275486   7.828   5.159   9.611
25082WAT      O75487   3.494   3.129   2.651
25082WAT     H175488   3.412   3.179   2.623
25082WAT     H275489   3.484   3.033   2.627
25083WAT      O75490   7.913   4.310   0.621
25083WAT     H175491   7.924   4.280   0.527
25083WAT     H275492   7.816   4.323   0.641
25084WAT      O75493   0.124   0.121   1.487
25084WAT     H175494   0.069   0.197   1.521
25084WAT     H275495   0.196   0.099   1.553
25085WAT      O75496   3.259   4.817   7.077
25085WAT     H175497   3.209   4.855   7.154
25085WAT     H275498   3.246   4.875   6.997
25086WAT      O75499   2.592   5.524   1.361
25086WAT     H175500   2.575   5.601   1.423
25086WAT     H275501   2.687   5.495   1.371
25087WAT      O75502   4.689   8.376   6.719
25087WAT     H175503   4.642   8.464   6.727
25087WAT     H275504   4.785   8.392   6.697
25088WAT      O75505   0.478   4.726   9.726
25088WAT     H175506   0.448   4.743   9.632
25088WAT     H275507   0.399   4.702   9.783
25089WAT      O75508   5.755   6.037   7.257
25089WAT     H175509   5.776   6.069   7.164
25089WAT     H275510   5.758   5.937   7.259
25090WAT      O75511   8.445   1.858   6.673
25090WAT     H175512   8.517   1.791   6.655
25090WAT     H275513   8.358   1.825   6.636
25091WAT      O75514   2.152   8.542   6.593
25091WAT     H175515   2.219   8.498   6.653
25091WAT     H275516   2.135   8.635   6.625
25092WAT      O75517   6.276   3.235   9.463
25092WAT     H175518   6.265   3.291   9.381
25092WAT     H275519   6.234   3.281   9.541
25093WAT      O75520   4.028   6.777   5.189
25093WAT     H175521   3.989   6.860   5.228
25093WAT     H275522   4.061   6.795   5.097
25094WAT      O75523   2.019   1.857   3.844
25094WAT     H175524   1.950   1.814   3.903
25094WAT     H275525   2.108   1.854   3.889
25095WAT      O75526   5.227   8.791   5.755
25095WAT     H175527   5.139   8.834   5.773
25095WAT     H275528   5.288   8.805   5.832
25096WAT      O75529   9.202   9.448   2.392
25096WAT     H175530   9.178   9.398   2.475
25096WAT     H275531   9.247   9.534   2.417
25097WAT      O75532   5.933   9.471   3.367
25097WAT     H175533   6.012   9.510   3.320
25097WAT     H275534   5.939   9.491   3.465
25098WAT      O75535   3.053   9.028   2.313
25098WAT     H175536   3.149   9.036   2.287
25098WAT     H275537   3.015   8.943   2.277
25099WAT      O75538   8.471   0.283   4.830
25099WAT     H175539   8.502   0.290   4.735
25099WAT     H275540   8.546   0.305   4.891
25100WAT      O75541   1.087   7.677   1.760
25100WAT     H175542   1.119   7.632   1.677
25100WAT     H275543   1.001   7.634   1.789
25101WAT      O75544   2.508   5.778   8.928
25101WAT     H175545   2.549   5.867   8.947
25101WAT     H275546   2.496   5.767   8.829
25102WAT      O75547   0.322   7.430   5.421
25102WAT     H175548   0.228   7.464   5.412
25102WAT     H275549   0.368   7.437   5.332
25103WAT      O75550   8.171   1.920   4.582
25103WAT     H175551   8.226   1.980   4.640
25103WAT     H275552   8.091   1.887   4.633
25104WAT      O75553   7.536   8.750   7.181
25104WAT     H175554   7.490   8.814   7.120
25104WAT     H275555   7.626   8.785   7.206
25105WAT      O75556   2.912   6.812   4.290
25105WAT     H175557   2.862   6.889   4.328
25105WAT     H275558   2.859   6.772   4.215
25106WAT      O75559   7.384   9.085   4.902
25106WAT     H175560   7.427   9.175   4.896
25106WAT     H275561   7.348   9.071   4.994
25107WAT      O75562   4.743   7.300   0.080
25107WAT     H175563   4.701   7.210   0.072
25107WAT     H275564   4.842   7.292   0.070
25108WAT      O75565   4.640   0.337   2.859
25108WAT     H175566   4.623   0.310   2.764
25108WAT     H275567   4.562   0.388   2.894
25109WAT      O75568   9.293   8.114   1.478
25109WAT     H175569   9.334   8.204   1.497
25109WAT     H275570   9.194   8.121   1.479
25110WAT      O75571   4.328   2.504   1.065
25110WAT     H175572   4.310   2.449   1.147
25110WAT     H275573   4.340   2.443   0.986
25111WAT      O75574   6.972   4.386   3.111
25111WAT     H175575   6.994   4.484   3.104
25111WAT     H275576   6.888   4.367   3.059
25112WAT      O75577   4.969   2.776   9.836
25112WAT     H175578   4.879   2.801   9.800
25112WAT     H275579   5.007   2.855   9.885
25113WAT      O75580   4.542   0.683   8.028
25113WAT     H175581   4.469   0.679   7.959
25113WAT     H275582   4.554   0.777   8.058
25114WAT      O75583   5.534   7.105   7.276
25114WAT     H175584   5.618   7.084   7.324
25114WAT     H275585   5.506   7.199   7.296
25115WAT      O75586   0.592   0.098   1.995
25115WAT     H175587   0.519   0.038   1.964
25115WAT     H275588   0.594   0.181   1.939
25116WAT      O75589   9.855   6.952   8.023
25116WAT     H175590   9.849   6.862   7.980
25116WAT     H275591   9.770   7.002   8.008
25117WAT      O75592   1.024   6.567   0.603
25117WAT     H175593   1.054   6.484   0.650
25117WAT     H275594   0.953   6.545   0.537
25118WAT      O75595   3.696   7.727   5.500
25118WAT     H175596   3.779   7.673   5.486
25118WAT     H275597   3.616   7.672   5.476
25119WAT      O75598   4.404   6.540   2.632
25119WAT     H175599   4.445   6.629   2.614
25119WAT     H275600   4.392   6.491   2.545
25120WAT      O75601   9.295   9.524   7.643
25120WAT     H175602   9.310   9.428   7.668
25120WAT     H275603   9.274   9.530   7.545
25121WAT      O75604   2.712   0.085   0.727
25121WAT     H175605   2.769   0.130   0.796
25121WAT     H275606   2.690  -0.007   0.758
25122WAT      O75607   3.740   1.711   6.516
25122WAT     H175608   3.811   1.777   6.539
25122WAT     H275609   3.750   1.631   6.575
25123WAT      O75610   3.923   7.378   7.891
25123WAT     H175611   3.964   7.444   7.955
25123WAT     H275612   3.945   7.404   7.797
25124WAT      O75613   3.944   9.484   1.429
25124WAT     H175614   3.949   9.387   1.403
25124WAT     H275615   4.035   9.525   1.423
25125WAT      O75616   5.468   9.722   7.722
25125WAT     H175617   5.481   9.714   7.821
25125WAT     H275618   5.388   9.779   7.704
25126WAT      O75619   2.027   2.330   2.764
25126WAT     H175620   2.041   2.233   2.786
25126WAT     H275621   1.934   2.344   2.731
25127WAT      O75622   5.767   1.246   4.755
25127WAT     H175623   5.806   1.297   4.679
25127WAT     H275624   5.691   1.299   4.794
25128WAT      O75625   7.802   2.757   3.935
25128WAT     H175626   7.848   2.785   4.020
25128WAT     H275627   7.814   2.828   3.866
25129WAT      O75628   6.466   8.484   6.601
25129WAT     H175629   6.529   8.556   6.629
25129WAT     H275630   6.436   8.433   6.681
25130WAT      O75631   3.556   5.091   2.149
25130WAT     H175632   3.521   5.011   2.198
25130WAT     H275633   3.507   5.101   2.062
25131WAT      O75634   3.359   3.463   2.757
25131WAT     H175635   3.322   3.434   2.668
25131WAT     H275636   3.331   3.398   2.827
25132WAT      O75637   2.904   0.641   5.221
25132WAT     H175638   2.827   0.704   5.211
25132WAT     H275639   2.871   0.551   5.250
25133WAT      O75640   3.302   1.622   5.287
25133WAT     H175641   3.303   1.614   5.387
25133WAT     H275642   3.297   1.719   5.262
25134WAT      O75643   3.516  -0.002   8.309
25134WAT     H175644   3.422  -0.034   8.307
25134WAT     H275645   3.517   0.098   8.315
25135WAT      O75646   7.040   9.615   5.215
25135WAT     H175647   7.067   9.634   5.121
25135WAT     H275648   7.078   9.685   5.275
25136WAT      O75649   5.434   7.287   0.086
25136WAT     H175650   5.399   7.363   0.030
25136WAT     H275651   5.497   7.323   0.155
25137WAT      O75652   4.305   0.111   0.918
25137WAT     H175653   4.359   0.131   1.000
25137WAT     H275654   4.252   0.028   0.933
25138WAT      O75655   9.308   1.621   6.002
25138WAT     H175656   9.253   1.577   5.930
25138WAT     H275657   9.404   1.599   5.988
25139WAT      O75658   0.685   3.498   1.760
25139WAT     H175659   0.683   3.407   1.801
25139WAT     H275660   0.682   3.567   1.832
25140WAT      O75661   4.555   9.233   8.043
25140WAT     H175662   4.653   9.213   8.037
25140WAT     H275663   4.524   9.214   8.136
25141WAT      O75664   9.495   0.987   8.780
25141WAT     H175665   9.592   1.012   8.772
25141WAT     H275666   9.441   1.044   8.719
25142WAT      O75667   2.467   1.929   1.135
25142WAT     H175668   2.534   1.947   1.063
25142WAT     H275669   2.457   1.830   1.147
25143WAT      O75670   5.796   8.588   5.210
25143WAT     H175671   5.864   8.528   5.167
25143WAT     H275672   5.760   8.544   5.292
25144WAT      O75673   1.212   2.456   7.638
25144WAT     H175674   1.136   2.402   7.674
25144WAT     H275675   1.218   2.441   7.539
25145WAT      O75676   6.809   5.613   3.536
25145WAT     H175677   6.726   5.584   3.488
25145WAT     H275678   6.799   5.593   3.634
25146WAT      O75679   7.752   0.351   2.336
25146WAT     H175680   7.820   0.410   2.292
25146WAT     H275681   7.790   0.315   2.422
25147WAT      O75682   0.269   8.391   6.331
25147WAT     H175683   0.184   8.439   6.310
25147WAT     H275684   0.334   8.402   6.256
25148WAT      O75685   9.244   1.625   0.419
25148WAT     H175686   9.248   1.577   0.506
25148WAT     H275687   9.210   1.563   0.348
25149WAT      O75688   2.522   5.867   0.083
25149WAT     H175689   2.461   5.911   0.149
25149WAT     H275690   2.600   5.927   0.066
25150WAT      O75691   3.590   3.256   8.249
25150WAT     H175692   3.498   3.240   8.214
25150WAT     H275693   3.585   3.305   8.336
25151WAT      O75694   3.701   7.291   6.767
25151WAT     H175695   3.786   7.290   6.715
25151WAT     H275696   3.632   7.344   6.717
25152WAT      O75697   8.806   5.705   5.110
25152WAT     H175698   8.860   5.713   5.026
25152WAT     H275699   8.761   5.792   5.130
25153WAT      O75700   0.984   4.401   8.660
25153WAT     H175701   0.945   4.483   8.620
25153WAT     H275702   1.008   4.419   8.756
25154WAT      O75703   0.088   8.999   7.605
25154WAT     H175704   0.162   9.035   7.548
25154WAT     H275705   0.000   9.014   7.560
25155WAT      O75706   1.372   5.398   4.874
25155WAT     H175707   1.411   5.489   4.888
25155WAT     H275708   1.383   5.344   4.957
25156WAT      O75709   9.244   7.990   5.284
25156WAT     H175710   9.176   8.062   5.301
25156WAT     H275711   9.267   7.946   5.370
25157WAT      O75712   8.299   0.338   9.432
25157WAT     H175713   8.297   0.425   9.482
25157WAT     H275714   8.348   0.351   9.346
25158WAT      O75715   4.693   3.308   0.638
25158WAT     H175716   4.681   3.407   0.626
25158WAT     H275717   4.672   3.261   0.552
25159WAT      O75718   3.430   8.458   6.895
25159WAT     H175719   3.337   8.485   6.921
25159WAT     H275720   3.484   8.539   6.876
25160WAT      O75721   1.780   0.777   5.617
25160WAT     H175722   1.685   0.791   5.645
25160WAT     H275723   1.793   0.810   5.524
25161WAT      O75724   9.465   6.227   9.084
25161WAT     H175725   9.413   6.148   9.054
25161WAT     H275726   9.561   6.201   9.096
25162WAT      O75727   8.969   6.415   1.856
25162WAT     H175728   8.974   6.364   1.770
25162WAT     H275729   8.898   6.376   1.914
25163WAT      O75730   0.635   3.504   9.545
25163WAT     H175731   0.613   3.454   9.629
25163WAT     H275732   0.568   3.578   9.532
25164WAT      O75733   6.263   7.145   5.947
25164WAT     H175734   6.238   7.093   5.865
25164WAT     H275735   6.222   7.237   5.941
25165WAT      O75736   8.005   9.266   4.355
25165WAT     H175737   7.976   9.359   4.379
25165WAT     H275738   7.953   9.234   4.276
25166WAT      O75739   5.676   0.081   7.465
25166WAT     H175740   5.726   0.047   7.386
25166WAT     H275741   5.692   0.021   7.544
25167WAT      O75742   5.288   1.409   1.809
25167WAT     H175743   5.356   1.361   1.753
25167WAT     H275744   5.295   1.375   1.903
25168WAT      O75745   7.695   7.499   7.626
25168WAT     H175746   7.754   7.511   7.706
25168WAT     H275747   7.737   7.543   7.547
25169WAT      O75748   5.157   3.466   5.966
25169WAT     H175749   5.200   3.427   6.047
25169WAT     H275750   5.189   3.559   5.952
25170WAT      O75751   2.334   3.226   1.753
25170WAT     H175752   2.367   3.138   1.787
25170WAT     H275753   2.288   3.212   1.666
25171WAT      O75754   3.078   4.550   6.855
25171WAT     H175755   3.155   4.593   6.807
25171WAT     H275756   3.014   4.513   6.788
25172WAT      O75757   6.983   0.204   7.298
25172WAT     H175758   6.928   0.122   7.313
25172WAT     H275759   7.076   0.178   7.273
25173WAT      O75760   2.490   2.050   7.680
25173WAT     H175761   2.468   2.120   7.612
25173WAT     H275762   2.427   2.058   7.757
25174WAT      O75763   9.137   2.363   3.549
25174WAT     H175764   9.104   2.329   3.637
25174WAT     H275765   9.063   2.359   3.482
25175WAT      O75766   7.544   0.460   4.069
25175WAT     H175767   7.584   0.551   4.074
25175WAT     H275768   7.466   0.455   4.132
25176WAT      O75769   8.147   3.048   8.078
25176WAT     H175770   8.067   3.011   8.125
25176WAT     H275771   8.159   3.144   8.103
25177WAT      O75772   8.384   7.345   6.860
25177WAT     H175773   8.314   7.303   6.802
25177WAT     H275774   8.434   7.274   6.909
25178WAT      O75775   7.057   0.517   7.251
25178WAT     H175776   6.987   0.479   7.312
25178WAT     H275777   7.130   0.450   7.239
25179WAT      O75778   5.131   3.316   1.616
25179WAT     H175779   5.231   3.311   1.624
25179WAT     H275780   5.098   3.399   1.661
25180WAT      O75781   5.542   1.457   3.205
25180WAT     H175782   5.614   1.417   3.149
25180WAT     H275783   5.546   1.556   3.199
25181WAT      O75784   0.501   2.146   5.155
25181WAT     H175785   0.427   2.105   5.102
25181WAT     H275786   0.579   2.164   5.096
25182WAT      O75787   4.602   8.337   8.944
25182WAT     H175788   4.701   8.338   8.958
25182WAT     H275789   4.557   8.292   9.021
25183WAT      O75790   4.219   5.159   9.487
25183WAT     H175791   4.269   5.227   9.540
25183WAT     H275792   4.121   5.175   9.496
25184WAT      O75793   6.543   6.369   3.019
25184WAT     H175794   6.604   6.447   3.032
25184WAT     H275795   6.467   6.375   3.084
25185WAT      O75796   1.964   3.680   8.601
25185WAT     H175797   1.986   3.706   8.507
25185WAT     H275798   1.894   3.609   8.601
25186WAT      O75799   8.677   7.165   1.733
25186WAT     H175800   8.606   7.227   1.766
25186WAT     H275801   8.734   7.135   1.810
25187WAT      O75802   2.220   1.444   6.695
25187WAT     H175803   2.278   1.418   6.618
25187WAT     H275804   2.124   1.439   6.668
25188WAT      O75805   2.086   5.776   5.757
25188WAT     H175806   2.117   5.750   5.666
25188WAT     H275807   1.990   5.802   5.755
25189WAT      O75808   1.976   4.716   5.334
25189WAT     H175809   2.014   4.769   5.410
25189WAT     H275810   2.042   4.712   5.259
25190WAT      O75811   5.825   4.241   9.009
25190WAT     H175812   5.749   4.280   9.062
25190WAT     H275813   5.878   4.179   9.066
25191WAT      O75814   1.156   8.606   5.718
25191WAT     H175815   1.196   8.653   5.797
25191WAT     H275816   1.166   8.664   5.636
25192WAT      O75817   5.563   6.587   2.791
25192WAT     H175818   5.658   6.585   2.821
25192WAT     H275819   5.547   6.513   2.726
25193WAT      O75820   6.841   1.309   3.099
25193WAT     H175821   6.908   1.321   3.172
25193WAT     H275822   6.815   1.398   3.063
25194WAT      O75823   8.222   1.781   1.648
25194WAT     H175824   8.300   1.744   1.597
25194WAT     H275825   8.139   1.732   1.621
25195WAT      O75826   3.291   0.655   5.581
25195WAT     H175827   3.194   0.682   5.575
25195WAT     H275828   3.348   0.728   5.543
25196WAT      O75829   3.234   3.992   4.198
25196WAT     H175830   3.192   4.076   4.232
25196WAT     H275831   3.210   3.979   4.102
25197WAT      O75832   0.752   0.274   6.034
25197WAT     H175833   0.826   0.206   6.032
25197WAT     H275834   0.664   0.227   6.027
25198WAT      O75835   6.633   9.662   1.841
25198WAT     H175836   6.611   9.743   1.787
25198WAT     H275837   6.692   9.601   1.789
25199WAT      O75838   9.565   0.534   3.589
25199WAT     H175839   9.579   0.462   3.520
25199WAT     H275840   9.578   0.495   3.680
25200WAT      O75841   9.285   0.153   4.783
25200WAT     H175842   9.192   0.189   4.775
25200WAT     H275843   9.307   0.099   4.702
25201WAT      O75844   3.040   6.897   8.822
25201WAT     H175845   3.131   6.856   8.836
25201WAT     H275846   2.977   6.862   8.892
25202WAT      O75847   6.175   4.344   6.005
25202WAT     H175848   6.213   4.426   6.049
25202WAT     H275849   6.080   4.361   5.980
25203WAT      O75850   3.753   9.785   0.565
25203WAT     H175851   3.806   9.853   0.615
25203WAT     H275852   3.656   9.795   0.587
25204WAT      O75853   4.935   0.108   8.184
25204WAT     H175854   4.911   0.113   8.281
25204WAT     H275855   4.899   0.023   8.145
25205WAT      O75856   1.927   7.771   4.371
25205WAT     H175857   1.831   7.746   4.385
25205WAT     H275858   1.940   7.801   4.277
25206WAT      O75859   6.197   0.556   5.729
25206WAT     H175860   6.210   0.623   5.802
25206WAT     H275861   6.135   0.593   5.660
25207WAT      O75862   8.752   8.337   9.817
25207WAT     H175863   8.798   8.400   9.754
25207WAT     H275864   8.770   8.365   9.911
25208WAT      O75865   4.793   5.477   2.363
25208WAT     H175866   4.745   5.486   2.450
25208WAT     H275867   4.815   5.568   2.328
25209WAT      O75868   2.594   1.468   9.560
25209WAT     H175869   2.535   1.495   9.636
25209WAT     H275870   2.647   1.388   9.586
25210WAT      O75871   8.592   8.107   1.665
25210WAT     H175872   8.493   8.093   1.670
25210WAT     H275873   8.630   8.051   1.591
25211WAT      O75874   7.276   8.574   9.529
25211WAT     H175875   7.180   8.590   9.550
25211WAT     H275876   7.286   8.555   9.431
25212WAT      O75877   8.666   5.428   8.031
25212WAT     H175878   8.600   5.384   8.092
25212WAT     H275879   8.618   5.478   7.960
25213WAT      O75880   3.495   1.966   1.927
25213WAT     H175881   3.564   2.004   1.989
25213WAT     H275882   3.538   1.896   1.869
25214WAT      O75883   1.901   9.352   1.479
25214WAT     H175884   1.912   9.435   1.424
25214WAT     H275885   1.991   9.320   1.509
25215WAT      O75886   8.863   4.125   1.893
25215WAT     H175887   8.935   4.179   1.850
25215WAT     H275888   8.904   4.053   1.949
25216WAT      O75889   2.107   6.748   3.588
25216WAT     H175890   2.122   6.700   3.502
25216WAT     H275891   2.111   6.683   3.664
25217WAT      O75892   0.785   4.464   0.926
25217WAT     H175893   0.756   4.396   0.993
25217WAT     H275894   0.870   4.435   0.883
25218WAT      O75895   6.503   7.376   6.701
25218WAT     H175896   6.467   7.446   6.763
25218WAT     H275897   6.473   7.395   6.608
25219WAT      O75898   2.912   4.973   0.401
25219WAT     H175899   2.864   5.027   0.331
25219WAT     H275900   2.972   4.907   0.356
25220WAT      O75901   2.999   0.712   0.634
25220WAT     H175902   2.987   0.644   0.706
25220WAT     H275903   3.028   0.799   0.674
25221WAT      O75904   5.129   2.045   8.555
25221WAT     H175905   5.052   1.996   8.594
25221WAT     H275906   5.193   1.980   8.514
25222WAT      O75907   0.258   6.376   5.897
25222WAT     H175908   0.247   6.472   5.925
25222WAT     H275909   0.170   6.340   5.867
25223WAT      O75910   1.589   1.839   0.441
25223WAT     H175911   1.596   1.761   0.378
25223WAT     H275912   1.559   1.806   0.530
25224WAT      O75913   6.900   6.760   5.931
25224WAT     H175914   6.883   6.827   6.003
25224WAT     H275915   6.858   6.792   5.846
25225WAT      O75916   9.454   4.248   5.541
25225WAT     H175917   9.457   4.153   5.572
25225WAT     H275918   9.510   4.305   5.601
25226WAT      O75919   4.424   3.361   3.171
25226WAT     H175920   4.470   3.345   3.258
25226WAT     H275921   4.358   3.436   3.181
25227WAT      O75922   9.640   2.269   1.934
25227WAT     H175923   9.659   2.207   2.011
25227WAT     H275924   9.675   2.228   1.849
25228WAT      O75925   5.865   5.593   5.951
25228WAT     H175926   5.793   5.525   5.959
25228WAT     H275927   5.886   5.609   5.854
25229WAT      O75928   3.449   9.400   2.128
25229WAT     H175929   3.528   9.339   2.132
25229WAT     H275930   3.381   9.362   2.066
25230WAT      O75931   5.909   2.303   2.791
25230WAT     H175932   5.912   2.267   2.698
25230WAT     H275933   5.985   2.263   2.844
25231WAT      O75934   9.806   1.897   2.535
25231WAT     H175935   9.831   1.862   2.445
25231WAT     H275936   9.827   1.829   2.604
25232WAT      O75937   9.226   9.516   5.883
25232WAT     H175938   9.202   9.428   5.925
25232WAT     H275939   9.222   9.588   5.953
25233WAT      O75940   4.448   7.043   7.377
25233WAT     H175941   4.489   7.133   7.391
25233WAT     H275942   4.395   7.044   7.293
25234WAT      O75943   7.831   1.168   1.640
25234WAT     H175944   7.872   1.078   1.651
25234WAT     H275945   7.802   1.203   1.729
25235WAT      O75946   1.417   1.031   4.296
25235WAT     H175947   1.347   1.083   4.246
25235WAT     H275948   1.506   1.044   4.252
25236WAT      O75949   7.739   4.225   6.913
25236WAT     H175950   7.702   4.148   6.966
25236WAT     H275951   7.828   4.200   6.876
25237WAT      O75952   8.125   0.423   6.657
25237WAT     H175953   8.117   0.518   6.687
25237WAT     H275954   8.221   0.398   6.650
25238WAT      O75955   9.328   2.240   2.210
25238WAT     H175956   9.285   2.316   2.260
25238WAT     H275957   9.261   2.201   2.147
25239WAT      O75958   1.754   2.041   0.983
25239WAT     H175959   1.668   2.011   0.942
25239WAT     H275960   1.823   2.051   0.912
25240WAT      O75961   7.892   7.379   6.122
25240WAT     H175962   7.918   7.418   6.210
25240WAT     H275963   7.915   7.282   6.121
25241WAT      O75964   5.680   0.095   6.914
25241WAT     H175965   5.659   0.178   6.966
25241WAT     H275966   5.778   0.092   6.895
25242WAT      O75967   3.354   2.995   8.360
25242WAT     H175968   3.321   3.003   8.266
25242WAT     H275969   3.298   2.929   8.410
25243WAT      O75970   8.109   0.429   8.024
25243WAT     H175971   8.172   0.413   7.948
25243WAT     H275972   8.016   0.407   7.996
25244WAT      O75973   4.587   4.651   1.546
25244WAT     H175974   4.543   4.625   1.631
25244WAT     H275975   4.517   4.669   1.476
25245WAT      O75976   5.338   6.726   5.122
25245WAT     H175977   5.240   6.742   5.135
25245WAT     H275978   5.379   6.806   5.080
25246WAT      O75979   8.393   7.607   7.660
25246WAT     H175980   8.468   7.672   7.674
25246WAT     H275981   8.363   7.609   7.565
25247WAT      O75982   1.415   2.562   4.689
25247WAT     H175983   1.317   2.583   4.695
25247WAT     H275984   1.434   2.476   4.738
25248WAT      O75985   7.676   7.329   0.982
25248WAT     H175986   7.702   7.384   1.061
25248WAT     H275987   7.624   7.249   1.012
25249WAT      O75988   0.873   2.653   6.307
25249WAT     H175989   0.948   2.615   6.254
25249WAT     H275990   0.861   2.599   6.391
25250WAT      O75991   5.302   2.000   7.372
25250WAT     H175992   5.375   1.986   7.306
25250WAT     H275993   5.259   2.089   7.356
25251WAT      O75994   4.384   1.052   5.246
25251WAT     H175995   4.311   0.987   5.230
25251WAT     H275996   4.431   1.071   5.159
25252WAT      O75997   7.094   8.678   7.372
25252WAT     H175998   7.020   8.735   7.406
25252WAT     H275999   7.064   8.582   7.370
25253WAT      O76000   9.181   1.977   7.191
25253WAT     H176001   9.133   2.055   7.153
25253WAT     H276002   9.266   2.007   7.233
25254WAT      O76003   2.331   5.264   6.746
25254WAT     H176004   2.302   5.189   6.805
25254WAT     H276005   2.251   5.310   6.708
25255WAT      O76006   7.547   1.591   5.350
25255WAT     H176007   7.638   1.624   5.324
25255WAT     H276008   7.498   1.663   5.398
25256WAT      O76009   4.935   5.348   0.449
25256WAT     H176010   4.944   5.258   0.491
25256WAT     H276011   5.025   5.381   0.421
25257WAT      O76012   4.312   3.186   0.599
25257WAT     H176013   4.397   3.203   0.549
25257WAT     H276014   4.325   3.108   0.660
25258WAT      O76015   8.405   8.957   6.223
25258WAT     H176016   8.413   9.054   6.197
25258WAT     H276017   8.465   8.902   6.166
25259WAT      O76018   0.688   6.827   8.330
25259WAT     H176019   0.605   6.855   8.379
25259WAT     H276020   0.748   6.905   8.319
25260WAT      O76021   4.287   4.749   4.159
25260WAT     H176022   4.295   4.719   4.064
25260WAT     H276023   4.309   4.673   4.220
25261WAT      O76024   8.861   8.272   8.490
25261WAT     H176025   8.829   8.340   8.424
25261WAT     H276026   8.824   8.183   8.466
25262WAT      O76027   5.351   9.719   7.418
25262WAT     H176028   5.376   9.715   7.514
25262WAT     H276029   5.318   9.811   7.395
25263WAT      O76030   3.851   8.952   8.853
25263WAT     H176031   3.911   8.915   8.783
25263WAT     H276032   3.902   9.017   8.910
25264WAT      O76033   9.010   5.142   8.886
25264WAT     H176034   8.931   5.200   8.905
25264WAT     H276035   9.008   5.113   8.790
25265WAT      O76036   7.415   0.943   4.203
25265WAT     H176037   7.425   0.913   4.108
25265WAT     H276038   7.318   0.951   4.226
25266WAT      O76039   8.748   8.913   2.588
25266WAT     H176040   8.672   8.931   2.526
25266WAT     H276041   8.816   8.985   2.580
25267WAT      O76042   3.699   0.563   6.688
25267WAT     H176043   3.722   0.495   6.758
25267WAT     H276044   3.644   0.636   6.728
25268WAT      O76045   3.688   8.868   6.519
25268WAT     H176046   3.721   8.784   6.562
25268WAT     H276047   3.592   8.881   6.542
25269WAT      O76048   4.445   6.386   2.022
25269WAT     H176049   4.459   6.352   2.115
25269WAT     H276050   4.381   6.326   1.974
25270WAT      O76051   5.782   8.415   3.005
25270WAT     H176052   5.726   8.356   2.946
25270WAT     H276053   5.729   8.496   3.030
25271WAT      O76054   1.099   1.351   7.366
25271WAT     H176055   1.069   1.407   7.443
25271WAT     H276056   1.199   1.355   7.359
25272WAT      O76057   4.105   5.336   2.420
25272WAT     H176058   4.169   5.318   2.495
25272WAT     H276059   4.042   5.258   2.410
25273WAT      O76060   8.251   9.175   4.500
25273WAT     H176061   8.318   9.114   4.457
25273WAT     H276062   8.171   9.182   4.440
25274WAT      O76063   3.602   8.192   4.631
25274WAT     H176064   3.554   8.233   4.708
25274WAT     H276065   3.668   8.257   4.594
25275WAT      O76066   2.238   0.556   5.296
25275WAT     H176067   2.163   0.569   5.360
25275WAT     H276068   2.319   0.607   5.328
25276WAT      O76069   1.961   9.353   5.867
25276WAT     H176070   1.931   9.449   5.861
25276WAT     H276071   1.963   9.313   5.776
25277WAT      O76072   5.108   0.409   2.211
25277WAT     H176073   5.102   0.428   2.113
25277WAT     H276074   5.111   0.310   2.225
25278WAT      O76075   7.993   0.139   5.789
25278WAT     H176076   7.894   0.141   5.775
25278WAT     H276077   8.014   0.090   5.874
25279WAT      O76078   1.365   5.989   4.809
25279WAT     H176079   1.408   5.929   4.741
25279WAT     H276080   1.429   6.061   4.834
25280WAT      O76081   0.626   4.703   3.376
25280WAT     H176082   0.653   4.687   3.471
25280WAT     H276083   0.668   4.787   3.343
25281WAT      O76084   4.461   7.728   3.283
25281WAT     H176085   4.386   7.792   3.264
25281WAT     H276086   4.430   7.658   3.348
25282WAT      O76087   1.135   8.992   6.710
25282WAT     H176088   1.083   9.015   6.792
25282WAT     H276089   1.146   8.893   6.704
25283WAT      O76090   8.733   1.160   3.850
25283WAT     H176091   8.742   1.157   3.950
25283WAT     H276092   8.798   1.096   3.809
25284WAT      O76093   4.961   3.110   1.625
25284WAT     H176094   5.031   3.180   1.613
25284WAT     H276095   4.911   3.098   1.539
25285WAT      O76096   8.551   9.245   3.711
25285WAT     H176097   8.468   9.299   3.698
25285WAT     H276098   8.589   9.263   3.801
25286WAT      O76099   9.050   0.642   8.289
25286WAT     H176100   8.980   0.712   8.299
25286WAT     H276101   9.140   0.685   8.280
25287WAT      O76102   9.790   4.935   6.075
25287WAT     H176103   9.757   4.879   5.999
25287WAT     H276104   9.865   4.993   6.044
25288WAT      O76105   2.130   4.702   1.984
25288WAT     H176106   2.121   4.801   1.994
25288WAT     H276107   2.147   4.660   2.073
25289WAT      O76108   3.306   3.800   0.211
25289WAT     H176109   3.274   3.790   0.306
25289WAT     H276110   3.265   3.883   0.171
25290WAT      O76111   6.176   3.755   3.127
25290WAT     H176112   6.176   3.784   3.223
25290WAT     H276113   6.218   3.827   3.071
25291WAT      O76114   0.311   3.800   2.879
25291WAT     H176115   0.303   3.723   2.943
25291WAT     H276116   0.245   3.871   2.905
25292WAT      O76117   1.150   5.608   2.682
25292WAT     H176118   1.117   5.690   2.634
25292WAT     H276119   1.116   5.609   2.776
25293WAT      O76120   0.535   0.718   0.181
25293WAT     H176121   0.498   0.772   0.105
25293WAT     H276122   0.486   0.742   0.265
25294WAT      O76123   1.804   6.831   6.596
25294WAT     H176124   1.714   6.821   6.553
25294WAT     H276125   1.856   6.746   6.583
25295WAT      O76126   0.257   5.445   7.018
25295WAT     H176127   0.173   5.471   6.970
25295WAT     H276128   0.259   5.346   7.031
25296WAT      O76129   1.572   3.665   3.221
25296WAT     H176130   1.572   3.566   3.207
25296WAT     H276131   1.579   3.711   3.132
25297WAT      O76132   9.294   8.318   0.604
25297WAT     H176133   9.325   8.260   0.679
25297WAT     H276134   9.265   8.407   0.640
25298WAT      O76135   3.192   2.561   0.663
25298WAT     H176136   3.236   2.614   0.736
25298WAT     H276137   3.216   2.599   0.574
25299WAT      O76138   6.769   6.086   5.523
25299WAT     H176139   6.735   6.179   5.540
25299WAT     H276140   6.691   6.023   5.517
25300WAT      O76141   7.974   2.797   6.205
25300WAT     H176142   7.935   2.791   6.113
25300WAT     H276143   7.942   2.882   6.249
25301WAT      O76144   7.574   5.137   2.506
25301WAT     H176145   7.590   5.196   2.426
25301WAT     H276146   7.631   5.055   2.499
25302WAT      O76147   8.714   4.669   1.988
25302WAT     H176148   8.796   4.686   2.042
25302WAT     H276149   8.740   4.632   1.899
25303WAT      O76150   5.360   2.425   3.902
25303WAT     H176151   5.336   2.522   3.901
25303WAT     H276152   5.411   2.402   3.819
25304WAT      O76153   4.860   6.494   3.447
25304WAT     H176154   4.857   6.397   3.421
25304WAT     H276155   4.836   6.550   3.369
25305WAT      O76156   0.041   7.608   8.553
25305WAT     H176157  -0.030   7.645   8.493
25305WAT     H276158   0.131   7.638   8.521
25306WAT      O76159   5.302   9.719   5.820
25306WAT     H176160   5.316   9.642   5.758
25306WAT     H276161   5.238   9.783   5.779
25307WAT      O76162   3.026   9.183   8.948
25307WAT     H176163   3.004   9.215   9.040
25307WAT     H276164   3.071   9.257   8.897
25308WAT      O76165   5.919   1.272   1.601
25308WAT     H176166   5.914   1.186   1.652
25308WAT     H276167   5.971   1.258   1.517
25309WAT      O76168   2.391   6.571   8.798
25309WAT     H176169   2.356   6.481   8.772
25309WAT     H276170   2.490   6.571   8.791
25310WAT      O76171   1.478   1.371   2.721
25310WAT     H176172   1.488   1.272   2.721
25310WAT     H276173   1.520   1.409   2.804
25311WAT      O76174   0.939   3.066   0.395
25311WAT     H176175   0.983   3.156   0.387
25311WAT     H276176   0.994   2.998   0.348
25312WAT      O76177   2.574   9.807   3.706
25312WAT     H176178   2.553   9.871   3.780
25312WAT     H276179   2.503   9.813   3.636
25313WAT      O76180   2.902   8.167   7.615
25313WAT     H176181   2.916   8.244   7.678
25313WAT     H276182   2.991   8.128   7.590
25314WAT      O76183   5.715   1.700   5.852
25314WAT     H176184   5.625   1.656   5.850
25314WAT     H276185   5.778   1.650   5.792
25315WAT      O76186   2.979   1.035   1.532
25315WAT     H176187   2.908   1.105   1.546
25315WAT     H276188   3.068   1.079   1.529
25316WAT      O76189   0.675   0.087   1.156
25316WAT     H176190   0.757   0.137   1.130
25316WAT     H276191   0.700  -0.002   1.195
25317WAT      O76192   3.404   6.464   7.772
25317WAT     H176193   3.347   6.395   7.727
25317WAT     H276194   3.351   6.549   7.781
25318WAT      O76195   5.362   6.036   5.802
25318WAT     H176196   5.457   6.058   5.823
25318WAT     H276197   5.351   5.937   5.795
25319WAT      O76198   6.412   2.531   6.211
25319WAT     H176199   6.413   2.604   6.143
25319WAT     H276200   6.317   2.511   6.237
25320WAT      O76201   1.672   0.598   5.207
25320WAT     H176202   1.729   0.561   5.280
25320WAT     H276203   1.673   0.535   5.129
25321WAT      O76204   8.441   2.185   8.322
25321WAT     H176205   8.476   2.226   8.406
25321WAT     H276206   8.385   2.106   8.344
25322WAT      O76207   3.105   1.446   3.100
25322WAT     H176208   3.011   1.415   3.084
25322WAT     H276209   3.162   1.369   3.129
25323WAT      O76210   3.724   9.423   0.539
25323WAT     H176211   3.657   9.458   0.473
25323WAT     H276212   3.677   9.394   0.622
25324WAT      O76213   2.165   5.900   6.127
25324WAT     H176214   2.218   5.932   6.206
25324WAT     H276215   2.127   5.979   6.078
25325WAT      O76216   9.678   8.513   1.700
25325WAT     H176217   9.688   8.605   1.661
25325WAT     H276218   9.768   8.469   1.704
25326WAT      O76219   8.303   7.744   6.219
25326WAT     H176220   8.343   7.655   6.199
25326WAT     H276221   8.228   7.762   6.156
25327WAT      O76222   5.652   6.025   3.952
25327WAT     H176223   5.708   5.947   3.925
25327WAT     H276224   5.555   5.998   3.951
25328WAT      O76225   7.870   8.593   1.603
25328WAT     H176226   7.912   8.514   1.647
25328WAT     H276227   7.933   8.671   1.607
25329WAT      O76228   4.859   4.587   3.021
25329WAT     H176229   4.759   4.585   3.014
25329WAT     H276230   4.896   4.656   2.959
25330WAT      O76231   8.562   8.730   0.968
25330WAT     H176232   8.628   8.707   1.040
25330WAT     H276233   8.480   8.674   0.978
25331WAT      O76234   9.225   1.860   8.178
25331WAT     H176235   9.163   1.819   8.110
25331WAT     H276236   9.170   1.907   8.247
25332WAT      O76237   8.244   2.797   2.096
25332WAT     H176238   8.168   2.856   2.121
25332WAT     H276239   8.307   2.789   2.173
25333WAT      O76240   5.679   8.210   7.002
25333WAT     H176241   5.697   8.174   7.093
25333WAT     H276242   5.696   8.309   7.001
25334WAT      O76243   4.118   6.302   8.591
25334WAT     H176244   4.050   6.309   8.518
25334WAT     H276245   4.117   6.387   8.645
25335WAT      O76246   2.873   6.748   7.780
25335WAT     H176247   2.776   6.729   7.796
25335WAT     H276248   2.919   6.763   7.868
25336WAT      O76249   6.111   9.752   3.067
25336WAT     H176250   6.139   9.687   3.137
25336WAT     H276251   6.065   9.703   2.992
25337WAT      O76252   3.492   6.878   7.664
25337WAT     H176253   3.550   6.862   7.745
25337WAT     H276254   3.540   6.939   7.601
25338WAT      O76255   4.956   5.205   9.504
25338WAT     H176256   4.865   5.174   9.530
25338WAT     H276257   4.950   5.296   9.462
25339WAT      O76258   6.494   2.258   6.621
25339WAT     H176259   6.494   2.222   6.714
25339WAT     H276260   6.540   2.347   6.621
25340WAT      O76261   3.186   1.696   6.687
25340WAT     H176262   3.133   1.630   6.741
25340WAT     H276263   3.275   1.657   6.665
25341WAT      O76264   1.987   9.248   3.148
25341WAT     H176265   2.065   9.249   3.210
25341WAT     H276266   1.981   9.335   3.100
25342WAT      O76267   7.909   6.497   5.046
25342WAT     H176268   7.959   6.411   5.043
25342WAT     H276269   7.922   6.541   5.134
25343WAT      O76270   2.724   7.909   3.050
25343WAT     H176271   2.761   7.868   2.967
25343WAT     H276272   2.705   8.006   3.035
25344WAT      O76273   5.691   4.245   3.451
25344WAT     H176274   5.677   4.267   3.355
25344WAT     H276275   5.619   4.183   3.482
25345WAT      O76276   3.540   2.204   7.013
25345WAT     H176277   3.460   2.146   6.998
25345WAT     H276278   3.602   2.196   6.936
25346WAT      O76279   4.621   7.227   3.183
25346WAT     H176280   4.572   7.140   3.173
25346WAT     H276281   4.633   7.247   3.280
25347WAT      O76282   0.982   5.322   7.722
25347WAT     H176283   0.962   5.389   7.650
25347WAT     H276284   1.080   5.326   7.744
25348WAT      O76285   1.210   4.130   5.912
25348WAT     H176286   1.215   4.212   5.855
25348WAT     H276287   1.245   4.051   5.861
25349WAT      O76288   9.224   5.850   3.414
25349WAT     H176289   9.208   5.936   3.366
25349WAT     H276290   9.320   5.823   3.403
25350WAT      O76291   7.458   2.731   4.979
25350WAT     H176292   7.391   2.788   4.931
25350WAT     H276293   7.491   2.659   4.918
25351WAT      O76294   3.527   9.681   8.087
25351WAT     H176295   3.541   9.746   8.162
25351WAT     H276296   3.602   9.615   8.086
25352WAT      O76297   7.687   7.456   0.727
25352WAT     H176298   7.742   7.415   0.654
25352WAT     H276299   7.684   7.394   0.805
25353WAT      O76300   6.248   2.184   4.064
25353WAT     H176301   6.165   2.198   4.118
25353WAT     H276302   6.304   2.267   4.065
25354WAT      O76303   6.396   1.332   3.310
25354WAT     H176304   6.479   1.357   3.359
25354WAT     H276305   6.420   1.293   3.221
25355WAT      O76306   6.069   0.169   3.899
25355WAT     H176307   6.039   0.250   3.949
25355WAT     H276308   5.989   0.120   3.863
25356WAT      O76309   5.857   9.230   3.667
25356WAT     H176310   5.893   9.261   3.755
25356WAT     H276311   5.933   9.202   3.609
25357WAT      O76312   5.535   6.349   8.782
25357WAT     H176313   5.546   6.280   8.710
25357WAT     H276314   5.468   6.317   8.848
25358WAT      O76315   7.791   0.409   5.704
25358WAT     H176316   7.745   0.492   5.672
25358WAT     H276317   7.733   0.362   5.770
25359WAT      O76318   1.824   0.293   0.852
25359WAT     H176319   1.763   0.362   0.813
25359WAT     H276320   1.839   0.312   0.949
25360WAT      O76321   0.157   7.180   8.679
25360WAT     H176322   0.205   7.193   8.593
25360WAT     H276323   0.140   7.269   8.722
25361WAT      O76324   6.585   0.812   1.999
25361WAT     H176325   6.517   0.882   1.975
25361WAT     H276326   6.552   0.760   2.078
25362WAT      O76327   5.208   6.353   9.401
25362WAT     H176328   5.237   6.431   9.345
25362WAT     H276329   5.124   6.377   9.450
25363WAT      O76330   8.291   2.405   5.806
25363WAT     H176331   8.364   2.411   5.874
25363WAT     H276332   8.214   2.462   5.834
25364WAT      O76333   3.921   3.147   6.448
25364WAT     H176334   3.985   3.079   6.483
25364WAT     H276335   3.829   3.108   6.444
25365WAT      O76336   2.294   6.966   8.300
25365WAT     H176337   2.243   7.049   8.323
25365WAT     H276338   2.337   6.930   8.383
25366WAT      O76339   4.862   7.886   9.585
25366WAT     H176340   4.886   7.917   9.492
25366WAT     H276341   4.818   7.961   9.634
25367WAT      O76342   0.762   0.848   5.741
25367WAT     H176343   0.696   0.910   5.699
25367WAT     H276344   0.824   0.899   5.800
25368WAT      O76345   8.754   0.060   0.597
25368WAT     H176346   8.688   0.044   0.524
25368WAT     H276347   8.835   0.003   0.582
25369WAT      O76348   8.566   0.311   7.815
25369WAT     H176349   8.568   0.250   7.736
25369WAT     H276350   8.636   0.381   7.806
25370WAT      O76351   6.714   0.893   6.031
25370WAT     H176352   6.812   0.903   6.047
25370WAT     H276353   6.664   0.929   6.110
25371WAT      O76354   6.707   7.772   9.074
25371WAT     H176355   6.733   7.776   9.170
25371WAT     H276356   6.643   7.697   9.059
25372WAT      O76357   3.135   8.528   6.754
25372WAT     H176358   3.169   8.612   6.796
25372WAT     H276359   3.199   8.497   6.684
25373WAT      O76360   8.078   5.522   8.243
25373WAT     H176361   8.004   5.562   8.298
25373WAT     H276362   8.049   5.517   8.148
25374WAT      O76363   0.550   7.958   8.896
25374WAT     H176364   0.624   7.895   8.871
25374WAT     H276365   0.586   8.051   8.903
25375WAT      O76366   7.214   2.623   8.007
25375WAT     H176367   7.115   2.618   8.007
25375WAT     H276368   7.248   2.632   7.913
25376WAT      O76369   9.576   1.572   6.842
25376WAT     H176370   9.620   1.651   6.800
25376WAT     H276371   9.625   1.488   6.815
25377WAT      O76372   3.518   3.582   0.902
25377WAT     H176373   3.472   3.528   0.831
25377WAT     H276374   3.452   3.645   0.943
25378WAT      O76375   4.254   5.806   0.535
25378WAT     H176376   4.196   5.724   0.533
25378WAT     H276377   4.207   5.879   0.585
25379WAT      O76378   7.871   1.515   6.805
25379WAT     H176379   7.852   1.493   6.901
25379WAT     H276380   7.819   1.453   6.746
25380WAT      O76381   0.384   0.989   7.755
25380WAT     H176382   0.464   0.931   7.771
25380WAT     H276383   0.353   1.028   7.841
25381WAT      O76384   1.214   1.463   0.650
25381WAT     H176385   1.246   1.427   0.737
25381WAT     H276386   1.292   1.486   0.592
25382WAT      O76387   4.235   2.353   3.952
25382WAT     H176388   4.305   2.394   4.011
25382WAT     H276389   4.212   2.262   3.985
25383WAT      O76390   9.433   6.056   4.396
25383WAT     H176391   9.526   6.025   4.375
25383WAT     H276392   9.371   6.023   4.325
25384WAT      O76393   5.228   1.652   5.414
25384WAT     H176394   5.174   1.570   5.430
25384WAT     H276395   5.204   1.722   5.482
25385WAT      O76396   5.138   7.366   7.314
25385WAT     H176397   5.149   7.433   7.240
25385WAT     H276398   5.101   7.281   7.276
25386WAT      O76399   0.496   3.288   0.799
25386WAT     H176400   0.419   3.313   0.858
25386WAT     H276401   0.467   3.216   0.736
25387WAT      O76402   7.364   1.981   4.809
25387WAT     H176403   7.423   1.901   4.797
25387WAT     H276404   7.393   2.032   4.891
25388WAT      O76405   5.620   1.025   9.563
25388WAT     H176406   5.573   1.050   9.648
25388WAT     H276407   5.719   1.026   9.578
25389WAT      O76408   1.932   6.846   8.478
25389WAT     H176409   1.974   6.852   8.569
25389WAT     H276410   2.001   6.814   8.413
25390WAT      O76411   0.654   7.056   0.024
25390WAT     H176412   0.579   7.096   0.078
25390WAT     H276413   0.625   7.047  -0.071
25391WAT      O76414   7.294   4.689   6.679
25391WAT     H176415   7.236   4.621   6.724
25391WAT     H276416   7.349   4.737   6.747
25392WAT      O76417   7.763   9.820   9.268
25392WAT     H176418   7.852   9.865   9.275
25392WAT     H276419   7.715   9.828   9.355
25393WAT      O76420   7.724   4.565   0.907
25393WAT     H176421   7.654   4.533   0.971
25393WAT     H276422   7.801   4.603   0.959
25394WAT      O76423   7.163   2.185   1.845
25394WAT     H176424   7.178   2.139   1.932
25394WAT     H276425   7.221   2.143   1.775
25395WAT      O76426   0.595   9.343   3.843
25395WAT     H176427   0.624   9.428   3.887
25395WAT     H276428   0.671   9.306   3.788
25396WAT      O76429   2.013   0.485   3.742
25396WAT     H176430   1.933   0.456   3.794
25396WAT     H276431   1.993   0.570   3.693
25397WAT      O76432   6.404   4.399   8.374
25397WAT     H176433   6.367   4.480   8.328
25397WAT     H276434   6.483   4.365   8.322
25398WAT      O76435   0.069   5.217   4.334
25398WAT     H176436   0.044   5.289   4.399
25398WAT     H276437   0.039   5.243   4.242
25399WAT      O76438   0.642   2.058   8.861
25399WAT     H176439   0.725   2.080   8.809
25399WAT     H276440   0.611   1.966   8.838
25400WAT      O76441   8.336   3.528   6.266
25400WAT     H176442   8.366   3.505   6.358
25400WAT     H276443   8.264   3.465   6.238
25401WAT      O76444   8.073   3.820   3.855
25401WAT     H176445   8.094   3.917   3.843
25401WAT     H276446   8.083   3.796   3.952
25402WAT      O76447   6.259   5.033   2.155
25402WAT     H176448   6.243   5.015   2.058
25402WAT     H276449   6.175   5.014   2.207
25403WAT      O76450   1.468   6.784   2.383
25403WAT     H176451   1.384   6.809   2.335
25403WAT     H276452   1.490   6.854   2.451
25404WAT      O76453   4.983   4.421   7.603
25404WAT     H176454   4.998   4.411   7.701
25404WAT     H276455   4.955   4.515   7.583
25405WAT      O76456   1.449   9.635   8.178
25405WAT     H176457   1.384   9.675   8.113
25405WAT     H276458   1.404   9.625   8.267
25406WAT      O76459   6.623   4.201   2.180
25406WAT     H176460   6.700   4.255   2.147
25406WAT     H276461   6.656   4.115   2.218
25407WAT      O76462   1.008   6.964   5.758
25407WAT     H176463   0.933   7.011   5.806
25407WAT     H276464   1.057   6.906   5.823
25408WAT      O76465   7.604   0.790   9.744
25408WAT     H176466   7.614   0.846   9.661
25408WAT     H276467   7.677   0.811   9.808
25409WAT      O76468   0.294   5.160   3.239
25409WAT     H176469   0.266   5.193   3.149
25409WAT     H276470   0.308   5.239   3.300
25410WAT      O76471   6.867   6.943   1.646
25410WAT     H176472   6.843   6.972   1.738
25410WAT     H276473   6.915   7.017   1.599
25411WAT      O76474   0.146   6.027   6.455
25411WAT     H176475   0.071   6.018   6.519
25411WAT     H276476   0.116   5.998   6.364
25412WAT      O76477   3.223   0.430   2.186
25412WAT     H176478   3.320   0.457   2.182
25412WAT     H276479   3.190   0.410   2.094
25413WAT      O76480   8.358   5.261   8.469
25413WAT     H176481   8.378   5.171   8.429
25413WAT     H276482   8.362   5.255   8.568
25414WAT      O76483   2.458   3.241   8.405
25414WAT     H176484   2.414   3.151   8.412
25414WAT     H276485   2.407   3.298   8.340
25415WAT      O76486   9.071   2.611   8.526
25415WAT     H176487   9.110   2.702   8.543
25415WAT     H276488   9.063   2.562   8.612
25416WAT      O76489   8.630   7.706   9.603
25416WAT     H176490   8.606   7.623   9.654
25416WAT     H276491   8.563   7.778   9.621
25417WAT      O76492   8.398   4.048   0.168
25417WAT     H176493   8.361   4.083   0.254
25417WAT     H276494   8.391   4.119   0.098
25418WAT      O76495   2.650   3.924   2.744
25418WAT     H176496   2.631   4.014   2.784
25418WAT     H276497   2.748   3.914   2.731
25419WAT      O76498   2.386   6.834   5.122
25419WAT     H176499   2.429   6.867   5.038
25419WAT     H276500   2.379   6.735   5.120
25420WAT      O76501   6.947   3.755   3.339
25420WAT     H176502   6.895   3.676   3.307
25420WAT     H276503   6.887   3.818   3.388
25421WAT      O76504   5.251   7.128   5.450
25421WAT     H176505   5.283   7.190   5.522
25421WAT     H276506   5.316   7.129   5.374
25422WAT      O76507   7.249   4.548   2.799
25422WAT     H176508   7.318   4.585   2.737
25422WAT     H276509   7.160   4.588   2.777
25423WAT      O76510   1.901   3.677   9.659
25423WAT     H176511   1.978   3.625   9.623
25423WAT     H276512   1.832   3.690   9.587
25424WAT      O76513   2.094   0.615   4.820
25424WAT     H176514   2.139   0.526   4.826
25424WAT     H276515   2.106   0.653   4.728
25425WAT      O76516   7.588   1.329   4.037
25425WAT     H176517   7.661   1.397   4.032
25425WAT     H276518   7.618   1.244   3.994
25426WAT      O76519   6.264   9.665   9.053
25426WAT     H176520   6.270   9.711   8.964
25426WAT     H276521   6.347   9.613   9.069
25427WAT      O76522   4.112   3.595   2.966
25427WAT     H176523   4.013   3.586   2.952
25427WAT     H276524   4.159   3.518   2.921
25428WAT      O76525   5.949   0.986   2.512
25428WAT     H176526   5.954   0.886   2.512
25428WAT     H276527   6.041   1.024   2.515
25429WAT      O76528   1.208   4.976   0.766
25429WAT     H176529   1.238   4.885   0.793
25429WAT     H276530   1.125   5.000   0.817
25430WAT      O76531   6.143   4.360   1.022
25430WAT     H176532   6.144   4.262   1.003
25430WAT     H276533   6.072   4.380   1.090
25431WAT      O76534   3.544   7.503   3.054
25431WAT     H176535   3.482   7.537   3.125
25431WAT     H276536   3.510   7.416   3.019
25432WAT      O76537   0.461   0.716   4.394
25432WAT     H176538   0.553   0.683   4.372
25432WAT     H276539   0.449   0.807   4.354
25433WAT      O76540   6.795   6.243   0.964
25433WAT     H176541   6.760   6.209   1.052
25433WAT     H276542   6.895   6.235   0.962
25434WAT      O76543   6.531   1.794   6.854
25434WAT     H176544   6.518   1.699   6.881
25434WAT     H276545   6.473   1.853   6.909
25435WAT      O76546   9.301   8.920   2.951
25435WAT     H176547   9.331   8.977   3.028
25435WAT     H276548   9.368   8.928   2.877
25436WAT      O76549   8.932   9.583   0.740
25436WAT     H176550   8.994   9.532   0.679
25436WAT     H276551   8.916   9.529   0.823
25437WAT      O76552   9.827   6.417   6.117
25437WAT     H176553   9.769   6.357   6.172
25437WAT     H276554   9.877   6.362   6.050
25438WAT      O76555   8.230   7.146   9.117
25438WAT     H176556   8.150   7.096   9.149
25438WAT     H276557   8.273   7.096   9.042
25439WAT      O76558   7.726   1.071   0.434
25439WAT     H176559   7.648   1.028   0.480
25439WAT     H276560   7.790   1.106   0.502
25440WAT      O76561   7.979   1.917   8.099
25440WAT     H176562   8.057   1.858   8.077
25440WAT     H276563   7.960   1.977   8.021
25441WAT      O76564   0.946   8.675   3.681
25441WAT     H176565   0.974   8.646   3.773
25441WAT     H276566   0.867   8.621   3.652
25442WAT      O76567   1.250   7.681   3.541
25442WAT     H176568   1.300   7.641   3.464
25442WAT     H276569   1.234   7.778   3.522
25443WAT      O76570   4.451   8.663   2.021
25443WAT     H176571   4.545   8.692   2.003
25443WAT     H276572   4.394   8.681   1.940
25444WAT      O76573   8.761   5.336   7.592
25444WAT     H176574   8.682   5.345   7.532
25444WAT     H276575   8.771   5.419   7.647
25445WAT      O76576   7.877   4.464   7.515
25445WAT     H176577   7.962   4.429   7.477
25445WAT     H276578   7.800   4.411   7.480
25446WAT      O76579   5.938   9.181   8.740
25446WAT     H176580   5.884   9.191   8.824
25446WAT     H276581   6.026   9.225   8.752
25447WAT      O76582   7.918   4.967   2.725
25447WAT     H176583   7.944   4.958   2.821
25447WAT     H276584   7.878   5.058   2.710
25448WAT      O76585   6.766   8.283   5.004
25448WAT     H176586   6.691   8.242   5.056
25448WAT     H276587   6.837   8.314   5.067
25449WAT      O76588   2.040   5.358   7.851
25449WAT     H176589   1.954   5.368   7.901
25449WAT     H276590   2.026   5.380   7.755
25450WAT      O76591   7.800   7.498   1.566
25450WAT     H176592   7.823   7.404   1.589
25450WAT     H276593   7.875   7.559   1.593
25451WAT      O76594   6.154   4.290   7.631
25451WAT     H176595   6.146   4.307   7.729
25451WAT     H276596   6.080   4.338   7.583
25452WAT      O76597   1.971   9.612   6.774
25452WAT     H176598   2.065   9.591   6.803
25452WAT     H276599   1.974   9.667   6.691
25453WAT      O76600   4.912   3.204   9.016
25453WAT     H176601   4.987   3.257   9.054
25453WAT     H276602   4.898   3.120   9.070
25454WAT      O76603   1.315   7.744   5.075
25454WAT     H176604   1.250   7.669   5.089
25454WAT     H276605   1.392   7.712   5.019
25455WAT      O76606   8.646   4.730   3.870
25455WAT     H176607   8.666   4.637   3.901
25455WAT     H276608   8.697   4.795   3.926
25456WAT      O76609   5.335   1.584   2.858
25456WAT     H176610   5.336   1.665   2.917
25456WAT     H276611   5.409   1.592   2.791
25457WAT      O76612   5.426   1.823   1.611
25457WAT     H176613   5.337   1.829   1.657
25457WAT     H276614   5.461   1.915   1.595
25458WAT      O76615   7.215   7.579   1.161
25458WAT     H176616   7.248   7.485   1.146
25458WAT     H276617   7.125   7.590   1.119
25459WAT      O76618   7.868   4.739   7.545
25459WAT     H176619   7.872   4.763   7.642
25459WAT     H276620   7.857   4.640   7.536
25460WAT      O76621   6.357   8.637   1.720
25460WAT     H176622   6.406   8.564   1.672
25460WAT     H276623   6.386   8.726   1.684
25461WAT      O76624   9.195   2.788   1.404
25461WAT     H176625   9.216   2.690   1.411
25461WAT     H276626   9.192   2.814   1.307
25462WAT      O76627   3.160   1.853   6.464
25462WAT     H176628   3.190   1.807   6.548
25462WAT     H276629   3.218   1.824   6.388
25463WAT      O76630   8.581   9.115   4.553
25463WAT     H176631   8.545   9.025   4.529
25463WAT     H276632   8.619   9.112   4.646
25464WAT      O76633   4.865   6.867   6.478
25464WAT     H176634   4.933   6.795   6.491
25464WAT     H276635   4.907   6.956   6.493
25465WAT      O76636   1.786   1.098   8.456
25465WAT     H176637   1.821   1.133   8.543
25465WAT     H276638   1.780   0.998   8.460
25466WAT      O76639   0.019   6.030   4.483
25466WAT     H176640  -0.035   6.002   4.404
25466WAT     H276641   0.005   5.965   4.557
25467WAT      O76642   8.710   2.269   5.670
25467WAT     H176643   8.774   2.335   5.709
25467WAT     H276644   8.654   2.313   5.601
25468WAT      O76645   1.986   7.026   7.644
25468WAT     H176646   2.053   7.100   7.654
25468WAT     H276647   1.971   7.008   7.547
25469WAT      O76648   3.833   3.430   0.354
25469WAT     H176649   3.924   3.473   0.354
25469WAT     H276650   3.798   3.428   0.260
25470WAT      O76651   0.831   7.987   4.683
25470WAT     H176652   0.919   7.948   4.707
25470WAT     H276653   0.792   7.939   4.605
25471WAT      O76654   3.873   2.038   1.009
25471WAT     H176655   3.917   2.016   0.923
25471WAT     H276656   3.774   2.030   0.999
25472WAT      O76657   2.190   7.824   8.402
25472WAT     H176658   2.252   7.851   8.476
25472WAT     H276659   2.150   7.906   8.361
25473WAT      O76660   0.920   4.645   4.435
25473WAT     H176661   0.983   4.674   4.363
25473WAT     H276662   0.827   4.638   4.398
25474WAT      O76663   7.601   5.259   5.212
25474WAT     H176664   7.696   5.231   5.229
25474WAT     H276665   7.575   5.330   5.277
25475WAT      O76666   3.501   3.335   9.236
25475WAT     H176667   3.471   3.413   9.179
25475WAT     H276668   3.454   3.252   9.205
25476WAT      O76669   4.515   8.206   7.088
25476WAT     H176670   4.489   8.197   7.184
25476WAT     H276671   4.482   8.126   7.038
25477WAT      O76672   2.001   8.357   2.265
25477WAT     H176673   2.044   8.267   2.273
25477WAT     H276674   2.035   8.402   2.182
25478WAT      O76675   0.565   7.406   4.800
25478WAT     H176676   0.587   7.499   4.831
25478WAT     H276677   0.523   7.355   4.875
25479WAT      O76678   3.111   0.825   7.891
25479WAT     H176679   3.059   0.783   7.965
25479WAT     H276680   3.053   0.837   7.811
25480WAT      O76681   3.819   5.149   2.123
25480WAT     H176682   3.721   5.139   2.142
25480WAT     H276683   3.841   5.246   2.111
25481WAT      O76684   2.946   1.348   5.241
25481WAT     H176685   2.896   1.434   5.230
25481WAT     H276686   3.042   1.361   5.214
25482WAT      O76687   1.976   2.989   3.171
25482WAT     H176688   1.881   3.021   3.179
25482WAT     H276689   1.989   2.910   3.231
25483WAT      O76690   5.991   8.465   2.713
25483WAT     H176691   5.993   8.480   2.614
25483WAT     H276692   5.955   8.546   2.759
25484WAT      O76693   2.874   2.236   6.541
25484WAT     H176694   2.967   2.218   6.572
25484WAT     H276695   2.876   2.268   6.446
25485WAT      O76696   9.268   1.487   0.652
25485WAT     H176697   9.353   1.470   0.701
25485WAT     H276698   9.194   1.434   0.694
25486WAT      O76699   8.621   8.186   7.465
25486WAT     H176700   8.596   8.220   7.374
25486WAT     H276701   8.708   8.226   7.494
25487WAT      O76702   6.514   3.567   6.313
25487WAT     H176703   6.449   3.499   6.280
25487WAT     H276704   6.522   3.642   6.247
25488WAT      O76705   1.927   1.793   2.449
25488WAT     H176706   1.924   1.693   2.455
25488WAT     H276707   1.856   1.824   2.385
25489WAT      O76708   4.201   6.761   1.020
25489WAT     H176709   4.161   6.846   0.986
25489WAT     H276710   4.246   6.713   0.944
25490WAT      O76711   2.502   1.216   0.911
25490WAT     H176712   2.572   1.146   0.890
25490WAT     H276713   2.480   1.213   1.008
25491WAT      O76714   0.473   2.431   1.943
25491WAT     H176715   0.570   2.412   1.956
25491WAT     H276716   0.462   2.500   1.872
25492WAT      O76717   2.309   7.201   2.377
25492WAT     H176718   2.371   7.151   2.318
25492WAT     H276719   2.312   7.163   2.469
25493WAT      O76720   0.719   8.627   4.315
25493WAT     H176721   0.719   8.592   4.221
25493WAT     H276722   0.714   8.727   4.313
25494WAT      O76723   7.473   5.062   3.181
25494WAT     H176724   7.560   5.110   3.164
25494WAT     H276725   7.458   4.994   3.109
25495WAT      O76726   0.983   1.031   8.705
25495WAT     H176727   1.067   1.058   8.753
25495WAT     H276728   0.973   1.087   8.623
25496WAT      O76729   3.907   2.176   2.616
25496WAT     H176730   3.997   2.185   2.660
25496WAT     H276731   3.881   2.080   2.614
25497WAT      O76732   7.281   1.348   7.406
25497WAT     H176733   7.314   1.386   7.319
25497WAT     H276734   7.292   1.417   7.478
25498WAT      O76735   8.065   2.176   0.343
25498WAT     H176736   8.077   2.209   0.249
25498WAT     H276737   7.975   2.134   0.353
25499WAT      O76738   2.277   4.869   9.113
25499WAT     H176739   2.322   4.958   9.104
25499WAT     H276740   2.254   4.853   9.209
25500WAT      O76741   0.984   6.823   8.343
25500WAT     H176742   1.081   6.816   8.321
25500WAT     H276743   0.938   6.737   8.320
25501WAT      O76744   6.864   3.967   9.043
25501WAT     H176745   6.800   3.912   9.097
25501WAT     H276746   6.941   3.994   9.099
25502WAT      O76747   2.152   5.241   9.275
25502WAT     H176748   2.189   5.181   9.205
25502WAT     H276749   2.227   5.285   9.325
25503WAT      O76750   1.425   7.717   8.261
25503WAT     H176751   1.397   7.742   8.169
25503WAT     H276752   1.525   7.707   8.264
25504WAT      O76753   5.389   0.346   2.358
25504WAT     H176754   5.401   0.250   2.381
25504WAT     H276755   5.294   0.363   2.332
25505WAT      O76756   1.391   4.704   2.834
25505WAT     H176757   1.305   4.713   2.884
25505WAT     H276758   1.432   4.615   2.855
25506WAT      O76759   0.577   1.020   0.580
25506WAT     H176760   0.656   0.986   0.631
25506WAT     H276761   0.607   1.086   0.512
25507WAT      O76762   9.041   3.329   2.701
25507WAT     H176763   9.004   3.343   2.793
25507WAT     H276764   9.081   3.414   2.668
25508WAT      O76765   6.389   5.133   0.996
25508WAT     H176766   6.341   5.198   0.938
25508WAT     H276767   6.323   5.070   1.037
25509WAT      O76768   4.644   9.057   9.604
25509WAT     H176769   4.569   8.992   9.594
25509WAT     H276770   4.627   9.115   9.684
25510WAT      O76771   4.835   3.584   8.807
25510WAT     H176772   4.897   3.593   8.729
25510WAT     H276773   4.743   3.564   8.775
25511WAT      O76774   5.726   1.012   7.045
25511WAT     H176775   5.809   1.067   7.056
25511WAT     H276776   5.741   0.942   6.976
25512WAT      O76777   3.644   6.714   0.111
25512WAT     H176778   3.600   6.752   0.192
25512WAT     H276779   3.732   6.674   0.137
25513WAT      O76780   2.928   9.138   4.787
25513WAT     H176781   3.023   9.113   4.803
25513WAT     H276782   2.887   9.171   4.872
25514WAT      O76783   0.483   1.128   2.119
25514WAT     H176784   0.574   1.101   2.089
25514WAT     H276785   0.426   1.047   2.132
25515WAT      O76786   7.598   0.207   2.150
25515WAT     H176787   7.654   0.270   2.205
25515WAT     H276788   7.557   0.138   2.210
25516WAT      O76789   1.976   9.079   1.697
25516WAT     H176790   1.983   9.016   1.620
25516WAT     H276791   1.879   9.091   1.721
25517WAT      O76792   9.792   1.523   2.363
25517WAT     H176793   9.859   1.516   2.437
25517WAT     H276794   9.699   1.518   2.400
25518WAT      O76795   0.310   0.751   4.630
25518WAT     H176796   0.310   0.655   4.659
25518WAT     H276797   0.333   0.757   4.533
25519WAT      O76798   7.337   8.209   5.681
25519WAT     H176799   7.411   8.227   5.616
25519WAT     H276800   7.313   8.293   5.728
25520WAT      O76801   4.929   8.824   7.484
25520WAT     H176802   4.959   8.891   7.553
25520WAT     H276803   4.842   8.854   7.445
25521WAT      O76804   1.570   1.607   4.351
25521WAT     H176805   1.654   1.573   4.308
25521WAT     H276806   1.556   1.560   4.438
25522WAT      O76807   3.837   9.419   9.875
25522WAT     H176808   3.836   9.340   9.814
25522WAT     H276809   3.930   9.456   9.880
25523WAT      O76810   2.605   5.610   8.576
25523WAT     H176811   2.571   5.516   8.569
25523WAT     H276812   2.693   5.618   8.530
25524WAT      O76813   5.193   7.606   1.886
25524WAT     H176814   5.228   7.563   1.803
25524WAT     H276815   5.261   7.600   1.959
25525WAT      O76816   0.721   8.958   8.009
25525WAT     H176817   0.635   8.907   7.998
25525WAT     H276818   0.762   8.975   7.919
25526WAT      O76819   4.180   3.592   7.809
25526WAT     H176820   4.093   3.543   7.807
25526WAT     H276821   4.254   3.528   7.790
25527WAT      O76822   9.583   9.798   4.668
25527WAT     H176823   9.612   9.739   4.744
25527WAT     H276824   9.594   9.894   4.694
25528WAT      O76825   0.127   4.815   6.356
25528WAT     H176826   0.051   4.881   6.351
25528WAT     H276827   0.213   4.864   6.370
25529WAT      O76828   9.480   9.017   7.699
25529WAT     H176829   9.443   8.930   7.665
25529WAT     H276830   9.570   9.033   7.658
25530WAT      O76831   5.872   0.830   2.860
25530WAT     H176832   5.910   0.741   2.835
25530WAT     H276833   5.947   0.895   2.877
25531WAT      O76834   6.596   7.671   8.129
25531WAT     H176835   6.554   7.665   8.038
25531WAT     H276836   6.592   7.766   8.161
25532WAT      O76837   3.968   8.155   0.789
25532WAT     H176838   3.960   8.059   0.817
25532WAT     H276839   4.026   8.204   0.855
25533WAT      O76840   8.699   6.229   0.980
25533WAT     H176841   8.665   6.228   0.886
25533WAT     H276842   8.654   6.303   1.031
25534WAT      O76843   0.932   7.388   1.854
25534WAT     H176844   0.909   7.480   1.886
25534WAT     H276845   0.866   7.360   1.784
25535WAT      O76846   5.033   3.595   9.409
25535WAT     H176847   5.051   3.508   9.456
25535WAT     H276848   4.964   3.580   9.338
25536WAT      O76849   6.116   0.119   8.187
25536WAT     H176850   6.074   0.029   8.175
25536WAT     H276851   6.091   0.156   8.277
25537WAT      O76852   9.215   8.539   3.328
25537WAT     H176853   9.243   8.485   3.249
25537WAT     H276854   9.138   8.597   3.303
25538WAT      O76855   0.447   0.712   2.601
25538WAT     H176856   0.428   0.614   2.607
25538WAT     H276857   0.464   0.737   2.506
25539WAT      O76858   7.244   1.376   1.345
25539WAT     H176859   7.206   1.443   1.281
25539WAT     H276860   7.284   1.300   1.294
25540WAT      O76861   3.175   4.964   8.807
25540WAT     H176862   3.241   5.037   8.824
25540WAT     H276863   3.099   5.000   8.753
25541WAT      O76864   6.451   8.930   1.660
25541WAT     H176865   6.378   8.985   1.620
25541WAT     H276866   6.502   8.985   1.726
25542WAT      O76867   8.236   7.416   3.540
25542WAT     H176868   8.172   7.340   3.529
25542WAT     H276869   8.316   7.386   3.592
25543WAT      O76870   0.565   3.405   2.764
25543WAT     H176871   0.634   3.460   2.718
25543WAT     H276872   0.479   3.456   2.769
25544WAT      O76873   8.323   9.543   1.795
25544WAT     H176874   8.227   9.515   1.790
25544WAT     H276875   8.342   9.586   1.883
25545WAT      O76876   5.266   6.679   2.724
25545WAT     H176877   5.282   6.650   2.630
25545WAT     H276878   5.354   6.696   2.769
25546WAT      O76879   4.959   1.257   7.580
25546WAT     H176880   4.892   1.222   7.514
25546WAT     H276881   4.918   1.259   7.671
25547WAT      O76882   9.353   8.878   1.468
25547WAT     H176883   9.443   8.922   1.458
25547WAT     H276884   9.365   8.780   1.479
25548WAT      O76885   2.481   9.235   4.935
25548WAT     H176886   2.529   9.224   4.848
25548WAT     H276887   2.387   9.204   4.926
25549WAT      O76888   1.766   8.972   0.738
25549WAT     H176889   1.711   9.002   0.660
25549WAT     H276890   1.856   9.015   0.734
25550WAT      O76891   1.288   1.497   3.146
25550WAT     H176892   1.296   1.597   3.150
25550WAT     H276893   1.301   1.459   3.238
25551WAT      O76894   2.340   2.720   2.641
25551WAT     H176895   2.327   2.620   2.637
25551WAT     H276896   2.256   2.766   2.612
25552WAT      O76897   9.514   7.227   9.813
25552WAT     H176898   9.444   7.165   9.848
25552WAT     H276899   9.509   7.314   9.863
25553WAT      O76900   5.224   8.034   0.907
25553WAT     H176901   5.297   8.053   0.972
25553WAT     H276902   5.166   8.115   0.898
25554WAT      O76903   1.719   2.274   5.471
25554WAT     H176904   1.665   2.191   5.483
25554WAT     H276905   1.817   2.253   5.480
25555WAT      O76906   3.420   7.700   1.767
25555WAT     H176907   3.417   7.770   1.696
25555WAT     H276908   3.443   7.742   1.855
25556WAT      O76909   4.979   5.611   4.119
25556WAT     H176910   4.919   5.691   4.109
25556WAT     H276911   4.952   5.541   4.053
25557WAT      O76912   7.641   5.398   7.580
25557WAT     H176913   7.556   5.448   7.565
25557WAT     H276914   7.697   5.402   7.497
25558WAT      O76915   4.956   7.079   2.294
25558WAT     H176916   4.878   7.028   2.257
25558WAT     H276917   4.985   7.148   2.227
25559WAT      O76918   1.818   7.646   2.555
25559WAT     H176919   1.796   7.743   2.544
25559WAT     H276920   1.753   7.591   2.503
25560WAT      O76921   1.908   0.766   4.035
25560WAT     H176922   1.945   0.773   4.128
25560WAT     H276923   1.818   0.723   4.040
25561WAT      O76924   2.392   1.644   6.427
25561WAT     H176925   2.434   1.575   6.486
25561WAT     H276926   2.347   1.714   6.484
25562WAT      O76927   3.850   6.941   4.722
25562WAT     H176928   3.921   6.917   4.655
25562WAT     H276929   3.796   7.018   4.687
25563WAT      O76930   4.154   5.581   2.107
25563WAT     H176931   4.190   5.488   2.104
25563WAT     H276932   4.123   5.602   2.200
25564WAT      O76933   7.739   3.989   4.028
25564WAT     H176934   7.784   4.032   4.106
25564WAT     H276935   7.673   3.922   4.060
25565WAT      O76936   1.237   9.166   2.045
25565WAT     H176937   1.237   9.066   2.048
25565WAT     H276938   1.177   9.202   2.117
25566WAT      O76939   2.047   1.370   4.198
25566WAT     H176940   2.094   1.444   4.150
25566WAT     H276941   2.073   1.283   4.156
25567WAT      O76942   2.998   6.845   8.070
25567WAT     H176943   3.091   6.811   8.057
25567WAT     H276944   2.963   6.813   8.158
25568WAT      O76945   3.866   0.855   6.467
25568WAT     H176946   3.954   0.815   6.442
25568WAT     H276947   3.862   0.866   6.566
25569WAT      O76948   8.223   5.281   7.367
25569WAT     H176949   8.139   5.226   7.361
25569WAT     H276950   8.296   5.236   7.316
25570WAT      O76951   7.242   2.405   8.169
25570WAT     H176952   7.230   2.486   8.111
25570WAT     H276953   7.275   2.433   8.259
25571WAT      O76954   8.130   7.681   0.637
25571WAT     H176955   8.206   7.667   0.701
25571WAT     H276956   8.139   7.772   0.595
25572WAT      O76957   9.774   8.085   0.033
25572WAT     H176958   9.689   8.033   0.029
25572WAT     H276959   9.828   8.067  -0.049
25573WAT      O76960   5.560   4.192   7.684
25573WAT     H176961   5.584   4.100   7.715
25573WAT     H276962   5.507   4.239   7.755
25574WAT      O76963   4.336   3.324   7.141
25574WAT     H176964   4.393   3.385   7.195
25574WAT     H276965   4.298   3.252   7.199
25575WAT      O76966   5.551   0.935   5.035
25575WAT     H176967   5.511   0.855   4.990
25575WAT     H276968   5.644   0.912   5.067
25576WAT      O76969   7.875   0.549   3.133
25576WAT     H176970   7.906   0.597   3.215
25576WAT     H276971   7.818   0.611   3.079
25577WAT      O76972   7.732   0.094   5.810
25577WAT     H176973   7.652   0.150   5.833
25577WAT     H276974   7.718   0.051   5.721
25578WAT      O76975   3.164   0.966   5.605
25578WAT     H176976   3.184   0.896   5.674
25578WAT     H276977   3.213   1.050   5.628
25579WAT      O76978   4.832   5.096   6.257
25579WAT     H176979   4.792   5.179   6.218
25579WAT     H276980   4.772   5.061   6.329
25580WAT      O76981   9.518   0.444   8.310
25580WAT     H176982   9.612   0.478   8.309
25580WAT     H276983   9.515   0.355   8.356
25581WAT      O76984   9.457   8.125   6.640
25581WAT     H176985   9.425   8.061   6.710
25581WAT     H276986   9.442   8.085   6.549
25582WAT      O76987   2.807   1.922   6.915
25582WAT     H176988   2.778   1.930   7.010
25582WAT     H276989   2.840   1.830   6.897
25583WAT      O76990   6.283   5.072   7.942
25583WAT     H176991   6.292   5.142   7.872
25583WAT     H276992   6.373   5.053   7.982
25584WAT      O76993   6.269   1.603   8.173
25584WAT     H176994   6.363   1.633   8.158
25584WAT     H276995   6.260   1.506   8.148
25585WAT      O76996   3.438   4.214   7.491
25585WAT     H176997   3.384   4.130   7.491
25585WAT     H276998   3.508   4.209   7.420
25586WAT      O76999   2.350   2.014   4.206
25586WAT     H177000   2.251   2.010   4.222
25586WAT     H277001   2.381   2.108   4.218
25587WAT      O77002   7.945   7.498   3.005
25587WAT     H177003   7.984   7.460   2.921
25587WAT     H277004   8.005   7.571   3.038
25588WAT      O77005   7.397   6.921   6.016
25588WAT     H177006   7.337   6.964   5.949
25588WAT     H277007   7.349   6.843   6.058
25589WAT      O77008   2.280   2.121   0.152
25589WAT     H177009   2.305   2.183   0.227
25589WAT     H277010   2.212   2.055   0.185
25590WAT      O77011   2.534   3.390   5.936
25590WAT     H177012   2.542   3.485   5.905
25590WAT     H277013   2.493   3.387   6.027
25591WAT      O77014   0.487   2.362   3.678
25591WAT     H177015   0.498   2.270   3.641
25591WAT     H277016   0.521   2.429   3.612
25592WAT      O77017   8.200   8.707   7.424
25592WAT     H177018   8.195   8.644   7.501
25592WAT     H277019   8.129   8.776   7.432
25593WAT      O77020   8.077   2.702   0.856
25593WAT     H177021   7.982   2.688   0.886
25593WAT     H277022   8.095   2.800   0.848
25594WAT      O77023   6.184   5.735   9.450
25594WAT     H177024   6.157   5.713   9.357
25594WAT     H277025   6.227   5.825   9.453
25595WAT      O77026   6.932   1.649   3.759
25595WAT     H177027   7.011   1.588   3.766
25595WAT     H277028   6.928   1.688   3.667
25596WAT      O77029   9.707   6.228   0.742
25596WAT     H177030   9.621   6.279   0.735
25596WAT     H277031   9.710   6.158   0.671
25597WAT      O77032   8.251   8.767   1.107
25597WAT     H177033   8.168   8.715   1.129
25597WAT     H277034   8.242   8.805   1.015
25598WAT      O77035   0.663   0.585   5.280
25598WAT     H177036   0.698   0.589   5.374
25598WAT     H277037   0.731   0.622   5.217
25599WAT      O77038   5.468   1.228   5.408
25599WAT     H177039   5.428   1.177   5.333
25599WAT     H277040   5.423   1.317   5.417
25600WAT      O77041   7.461   4.427   8.317
25600WAT     H177042   7.473   4.337   8.275
25600WAT     H277043   7.550   4.472   8.326
25601WAT      O77044   7.900   6.446   5.892
25601WAT     H177045   7.967   6.491   5.951
25601WAT     H277046   7.887   6.501   5.810
25602WAT      O77047   9.658   5.945   9.680
25602WAT     H177048   9.569   5.986   9.658
25602WAT     H277049   9.683   5.968   9.774
25603WAT      O77050   5.800   9.173   1.256
25603WAT     H177051   5.772   9.087   1.297
25603WAT     H277052   5.729   9.242   1.271
25604WAT      O77053   3.569   2.239   7.845
25604WAT     H177054   3.611   2.150   7.828
25604WAT     H277055   3.554   2.285   7.757
25605WAT      O77056   0.031   1.306   5.083
25605WAT     H177057   0.105   1.240   5.089
25605WAT     H277058   0.038   1.371   5.159
25606WAT      O77059   4.986   9.838   7.287
25606WAT     H177060   4.947   9.930   7.294
25606WAT     H277061   4.956   9.783   7.365
25607WAT      O77062   0.637   5.048   6.247
25607WAT     H177063   0.640   5.091   6.156
25607WAT     H277064   0.650   4.949   6.237
25608WAT      O77065   2.795   6.626   5.161
25608WAT     H177066   2.790   6.588   5.253
25608WAT     H277067   2.740   6.571   5.099
25609WAT      O77068   6.558   1.443   8.013
25609WAT     H177069   6.473   1.392   7.996
25609WAT     H277070   6.536   1.532   8.053
25610WAT      O77071   7.101   9.540   9.453
25610WAT     H177072   7.159   9.621   9.450
25610WAT     H277073   7.007   9.567   9.473
25611WAT      O77074   2.090   3.110   6.683
25611WAT     H177075   2.167   3.069   6.634
25611WAT     H277076   2.009   3.052   6.673
25612WAT      O77077   3.758   1.683   7.547
25612WAT     H177078   3.696   1.641   7.614
25612WAT     H277079   3.821   1.615   7.512
25613WAT      O77080   3.753   9.793   5.486
25613WAT     H177081   3.826   9.726   5.475
25613WAT     H277082   3.764   9.840   5.574
25614WAT      O77083   8.264   2.498   3.595
25614WAT     H177084   8.280   2.567   3.524
25614WAT     H277085   8.256   2.408   3.552
25615WAT      O77086   6.304   0.864   1.689
25615WAT     H177087   6.234   0.903   1.629
25615WAT     H277088   6.310   0.766   1.674
25616WAT      O77089   1.947   1.471   1.603
25616WAT     H177090   2.013   1.445   1.532
25616WAT     H277091   1.996   1.509   1.681
25617WAT      O77092   6.660   1.292   1.411
25617WAT     H177093   6.625   1.295   1.318
25617WAT     H277094   6.620   1.365   1.465
25618WAT      O77095   4.366   1.548   1.625
25618WAT     H177096   4.454   1.503   1.607
25618WAT     H277097   4.298   1.516   1.558
25619WAT      O77098   9.070   2.471   7.210
25619WAT     H177099   9.100   2.519   7.292
25619WAT     H277100   9.022   2.535   7.150
25620WAT      O77101   5.195   7.376   9.282
25620WAT     H177102   5.199   7.474   9.303
25620WAT     H277103   5.118   7.335   9.330
25621WAT      O77104   4.692   7.891   9.044
25621WAT     H177105   4.646   7.900   9.132
25621WAT     H277106   4.790   7.884   9.058
25622WAT      O77107   6.206   9.516   2.058
25622WAT     H177108   6.299   9.546   2.081
25622WAT     H277109   6.201   9.416   2.063
25623WAT      O77110   0.708   6.567   4.863
25623WAT     H177111   0.789   6.563   4.806
25623WAT     H277112   0.687   6.475   4.897
25624WAT      O77113   3.449   5.911   6.335
25624WAT     H177114   3.514   5.984   6.312
25624WAT     H277115   3.432   5.911   6.434
25625WAT      O77116   7.069   1.186   6.841
25625WAT     H177117   7.065   1.270   6.786
25625WAT     H277118   7.052   1.107   6.783
25626WAT      O77119   2.519   3.673   0.022
25626WAT     H177120   2.613   3.670  -0.012
25626WAT     H277121   2.464   3.732  -0.037
25627WAT      O77122   0.753   0.624   2.760
25627WAT     H177123   0.794   0.703   2.715
25627WAT     H277124   0.787   0.618   2.854
25628WAT      O77125   6.862   5.319   1.432
25628WAT     H177126   6.880   5.277   1.343
25628WAT     H277127   6.948   5.324   1.484
25629WAT      O77128   7.887   4.885   3.526
25629WAT     H177129   7.890   4.851   3.620
25629WAT     H277130   7.927   4.977   3.522
25630WAT      O77131   3.420   6.671   0.524
25630WAT     H177132   3.361   6.752   0.533
25630WAT     H277133   3.504   6.687   0.575
25631WAT      O77134   2.300   0.727   2.317
25631WAT     H177135   2.206   0.752   2.294
25631WAT     H277136   2.328   0.775   2.400
25632WAT      O77137   3.225   6.806   8.232
25632WAT     H177138   3.180   6.858   8.305
25632WAT     H277139   3.310   6.851   8.206
25633WAT      O77140   8.513   2.583   3.633
25633WAT     H177141   8.426   2.533   3.630
25633WAT     H277142   8.517   2.636   3.717
25634WAT      O77143   6.574   2.032   4.052
25634WAT     H177144   6.659   2.021   4.105
25634WAT     H277145   6.589   2.101   3.980
25635WAT      O77146   5.145   0.725   8.539
25635WAT     H177147   5.222   0.776   8.501
25635WAT     H277148   5.175   0.635   8.570
25636WAT      O77149   9.801   2.953   6.866
25636WAT     H177150   9.852   2.868   6.881
25636WAT     H277151   9.740   2.968   6.944
25637WAT      O77152   6.440   8.819   1.383
25637WAT     H177153   6.402   8.890   1.324
25637WAT     H277154   6.421   8.841   1.479
25638WAT      O77155   1.490   7.679   0.714
25638WAT     H177156   1.542   7.596   0.737
25638WAT     H277157   1.434   7.706   0.793
25639WAT      O77158   9.787   5.363   3.415
25639WAT     H177159   9.718   5.396   3.480
25639WAT     H277160   9.777   5.410   3.328
25640WAT      O77161   1.957   1.899   6.483
25640WAT     H177162   1.914   1.890   6.573
25640WAT     H277163   1.887   1.895   6.412
25641WAT      O77164   4.796   5.662   9.362
25641WAT     H177165   4.775   5.687   9.457
25641WAT     H277166   4.820   5.745   9.311
25642WAT      O77167   7.117   8.439   9.886
25642WAT     H177168   7.035   8.464   9.835
25642WAT     H277169   7.108   8.469   9.981
25643WAT      O77170   1.320   9.129   6.146
25643WAT     H177171   1.296   9.128   6.243
25643WAT     H277172   1.385   9.055   6.127
25644WAT      O77173   8.066   3.285   8.186
25644WAT     H177174   8.050   3.384   8.182
25644WAT     H277175   8.075   3.257   8.282
25645WAT      O77176   3.355   9.009   1.684
25645WAT     H177177   3.324   9.099   1.714
25645WAT     H277178   3.304   8.938   1.733
25646WAT      O77179   1.192   4.179   9.130
25646WAT     H177180   1.213   4.125   9.212
25646WAT     H277181   1.110   4.234   9.146
25647WAT      O77182   1.163   4.392   3.999
25647WAT     H177183   1.072   4.371   4.035
25647WAT     H277184   1.154   4.435   3.909
25648WAT      O77185   5.417   5.733   8.107
25648WAT     H177186   5.359   5.661   8.146
25648WAT     H277187   5.370   5.775   8.030
25649WAT      O77188   7.292   3.178   0.220
25649WAT     H177189   7.201   3.144   0.247
25649WAT     H277190   7.361   3.137   0.280
25650WAT      O77191   4.165   6.904   2.524
25650WAT     H177192   4.205   6.830   2.470
25650WAT     H277193   4.220   6.919   2.606
25651WAT      O77194   5.325   3.075   9.558
25651WAT     H177195   5.329   3.113   9.650
25651WAT     H277196   5.235   3.033   9.543
25652WAT      O77197   6.730   8.011   4.416
25652WAT     H177198   6.807   7.963   4.374
25652WAT     H277199   6.665   8.038   4.345
25653WAT      O77200   9.060   1.736   7.749
25653WAT     H177201   9.028   1.830   7.738
25653WAT     H277202   9.052   1.709   7.845
25654WAT      O77203   9.378   7.106   8.268
25654WAT     H177204   9.362   7.072   8.176
25654WAT     H277205   9.454   7.171   8.267
25655WAT      O77206   8.245   8.288   1.238
25655WAT     H177207   8.198   8.250   1.159
25655WAT     H277208   8.294   8.215   1.287
25656WAT      O77209   0.312   9.209   0.664
25656WAT     H177210   0.338   9.175   0.574
25656WAT     H277211   0.371   9.285   0.689
25657WAT      O77212   7.059   0.719   2.587
25657WAT     H177213   6.962   0.737   2.597
25657WAT     H277214   7.108   0.753   2.667
25658WAT      O77215   0.699   1.027   3.790
25658WAT     H177216   0.753   0.990   3.866
25658WAT     H277217   0.660   1.115   3.817
25659WAT      O77218   9.363   8.941   0.573
25659WAT     H177219   9.307   8.914   0.495
25659WAT     H277220   9.330   8.894   0.655
25660WAT      O77221   5.278   9.648   6.316
25660WAT     H177222   5.247   9.658   6.411
25660WAT     H277223   5.211   9.596   6.264
25661WAT      O77224   2.589   8.716   6.869
25661WAT     H177225   2.587   8.699   6.770
25661WAT     H277226   2.516   8.664   6.913
25662WAT      O77227   6.880   1.956   0.468
25662WAT     H177228   6.886   2.051   0.500
25662WAT     H277229   6.970   1.913   0.477
25663WAT      O77230   4.437   3.141   6.998
25663WAT     H177231   4.377   3.200   7.053
25663WAT     H277232   4.484   3.197   6.929
25664WAT      O77233   4.752   9.826   6.790
25664WAT     H177234   4.773   9.779   6.876
25664WAT     H277235   4.767   9.764   6.713
25665WAT      O77236   1.983   9.646   4.035
25665WAT     H177237   1.996   9.663   3.938
25665WAT     H277238   2.072   9.635   4.079
25666WAT      O77239   7.374   9.401   0.639
25666WAT     H177240   7.431   9.435   0.714
25666WAT     H277241   7.432   9.375   0.562
25667WAT      O77242   7.387   4.031   3.937
25667WAT     H177243   7.439   4.104   3.891
25667WAT     H277244   7.409   3.943   3.894
25668WAT      O77245   6.324   0.402   8.183
25668WAT     H177246   6.394   0.428   8.116
25668WAT     H277247   6.339   0.308   8.212
25669WAT      O77248   2.919   7.907   9.502
25669WAT     H177249   2.874   7.832   9.549
25669WAT     H277250   2.999   7.872   9.453
25670WAT      O77251   5.048   0.110   4.754
25670WAT     H177252   4.980   0.069   4.692
25670WAT     H277253   5.095   0.184   4.706
25671WAT      O77254   7.739   6.376   6.321
25671WAT     H177255   7.762   6.430   6.402
25671WAT     H277256   7.689   6.294   6.349
25672WAT      O77257   2.744   5.365   2.243
25672WAT     H177258   2.777   5.288   2.299
25672WAT     H277259   2.644   5.367   2.247
25673WAT      O77260   7.924   4.590   9.685
25673WAT     H177261   7.871   4.672   9.666
25673WAT     H277262   7.944   4.585   9.783
25674WAT      O77263   0.468   9.813   5.247
25674WAT     H177264   0.529   9.890   5.227
25674WAT     H277265   0.374   9.839   5.227
25675WAT      O77266   8.100   1.746   2.758
25675WAT     H177267   8.189   1.764   2.716
25675WAT     H277268   8.043   1.829   2.752
25676WAT      O77269   4.212   5.584   3.547
25676WAT     H177270   4.270   5.504   3.563
25676WAT     H277271   4.253   5.664   3.590
25677WAT      O77272   7.066   6.169   4.180
25677WAT     H177273   7.043   6.111   4.258
25677WAT     H277274   7.052   6.118   4.095
25678WAT      O77275   6.493   2.567   1.409
25678WAT     H177276   6.516   2.472   1.388
25678WAT     H277277   6.398   2.572   1.441
25679WAT      O77278   3.919   3.019   7.739
25679WAT     H177279   3.850   3.035   7.668
25679WAT     H277280   3.922   3.098   7.801
25680WAT      O77281   8.016   8.554   6.563
25680WAT     H177282   8.020   8.579   6.466
25680WAT     H277283   8.105   8.520   6.592
25681WAT      O77284   6.866   8.537   6.110
25681WAT     H177285   6.894   8.544   6.014
25681WAT     H277286   6.841   8.628   6.143
25682WAT      O77287   5.515   1.927   6.821
25682WAT     H177288   5.522   1.899   6.725
25682WAT     H277289   5.491   2.024   6.826
25683WAT      O77290   1.457   4.884   2.668
25683WAT     H177291   1.556   4.898   2.671
25683WAT     H277292   1.428   4.830   2.748
25684WAT      O77293   4.224   4.401   0.018
25684WAT     H177294   4.244   4.497  -0.003
25684WAT     H277295   4.169   4.361  -0.055
25685WAT      O77296   9.797   3.564   3.560
25685WAT     H177297   9.807   3.660   3.588
25685WAT     H277298   9.704   3.548   3.529
25686WAT      O77299   8.673   8.595   1.613
25686WAT     H177300   8.657   8.669   1.547
25686WAT     H277301   8.608   8.521   1.596
25687WAT      O77302   4.621   0.937   6.911
25687WAT     H177303   4.632   0.879   6.991
25687WAT     H277304   4.668   0.895   6.833
25688WAT      O77305   6.458   8.014   3.656
25688WAT     H177306   6.511   7.953   3.597
25688WAT     H277307   6.480   7.996   3.752
25689WAT      O77308   1.169   7.327   7.545
25689WAT     H177309   1.154   7.259   7.616
25689WAT     H277310   1.217   7.284   7.468
25690WAT      O77311   1.181   6.190   9.078
25690WAT     H177312   1.276   6.178   9.050
25690WAT     H277313   1.151   6.283   9.055
25691WAT      O77314   1.907   6.196   3.751
25691WAT     H177315   1.995   6.150   3.736
25691WAT     H277316   1.869   6.166   3.839
25692WAT      O77317   7.049   2.889   9.631
25692WAT     H177318   7.132   2.837   9.648
25692WAT     H277319   7.067   2.986   9.649
25693WAT      O77320   1.793   4.344   5.873
25693WAT     H177321   1.734   4.424   5.885
25693WAT     H277322   1.884   4.374   5.846
25694WAT      O77323   2.980   0.518   6.278
25694WAT     H177324   3.010   0.429   6.314
25694WAT     H277325   2.964   0.581   6.354
25695WAT      O77326   8.095   3.778   5.152
25695WAT     H177327   8.118   3.869   5.185
25695WAT     H277328   8.055   3.785   5.060
25696WAT      O77329   4.818   2.366   5.584
25696WAT     H177330   4.778   2.311   5.511
25696WAT     H277331   4.800   2.322   5.672
25697WAT      O77332   2.375   1.930   8.386
25697WAT     H177333   2.329   2.017   8.367
25697WAT     H277334   2.338   1.890   8.469
25698WAT      O77335   9.032   0.173   0.319
25698WAT     H177336   9.027   0.250   0.383
25698WAT     H277337   9.080   0.097   0.362
25699WAT      O77338   0.989   5.057   0.566
25699WAT     H177339   1.089   5.057   0.571
25699WAT     H277340   0.959   5.001   0.489
25700WAT      O77341   7.010   4.177   8.291
25700WAT     H177342   7.047   4.234   8.364
25700WAT     H277343   7.070   4.183   8.211
25701WAT      O77344   4.859   6.559   1.342
25701WAT     H177345   4.947   6.598   1.314
25701WAT     H277346   4.795   6.562   1.265
25702WAT      O77347   8.801   7.444   2.831
25702WAT     H177348   8.860   7.443   2.912
25702WAT     H277349   8.857   7.454   2.749
25703WAT      O77350   1.951   2.433   5.820
25703WAT     H177351   1.891   2.505   5.856
25703WAT     H277352   1.946   2.353   5.880
25704WAT      O77353   7.637   5.206   8.489
25704WAT     H177354   7.677   5.140   8.425
25704WAT     H277355   7.624   5.293   8.442
25705WAT      O77356   9.806   0.713   2.392
25705WAT     H177357   9.843   0.677   2.307
25705WAT     H277358   9.804   0.813   2.388
25706WAT      O77359   2.260   5.990   5.751
25706WAT     H177360   2.245   6.017   5.656
25706WAT     H277361   2.199   5.914   5.774
25707WAT      O77362   2.384   2.288   7.915
25707WAT     H177363   2.441   2.369   7.905
25707WAT     H277364   2.428   2.223   7.976
25708WAT      O77365   1.624   6.388   5.643
25708WAT     H177366   1.587   6.385   5.736
25708WAT     H277367   1.564   6.337   5.582
25709WAT      O77368   9.458   5.704   3.557
25709WAT     H177369   9.391   5.692   3.630
25709WAT     H277370   9.519   5.625   3.554
25710WAT      O77371   1.371   7.668   6.445
25710WAT     H177372   1.306   7.636   6.376
25710WAT     H277373   1.323   7.724   6.513
25711WAT      O77374   6.061   7.156   9.141
25711WAT     H177375   6.021   7.080   9.089
25711WAT     H277376   6.018   7.161   9.231
25712WAT      O77377   5.629   3.256   2.428
25712WAT     H177378   5.689   3.323   2.385
25712WAT     H277379   5.544   3.249   2.376
25713WAT      O77380   0.140   3.286   2.727
25713WAT     H177381   0.099   3.197   2.745
25713WAT     H277382   0.166   3.292   2.631
25714WAT      O77383   1.841   5.181   8.739
25714WAT     H177384   1.919   5.133   8.780
25714WAT     H277385   1.866   5.216   8.649
25715WAT      O77386   4.381   3.379   7.793
25715WAT     H177387   4.475   3.351   7.812
25715WAT     H277388   4.318   3.312   7.832
25716WAT      O77389   1.626   0.350   3.496
25716WAT     H177390   1.552   0.284   3.482
25716WAT     H277391   1.638   0.367   3.594
25717WAT      O77392   4.491   2.314   9.816
25717WAT     H177393   4.414   2.331   9.878
25717WAT     H277394   4.576   2.341   9.861
25718WAT      O77395   4.327   4.606   3.885
25718WAT     H177396   4.375   4.518   3.885
25718WAT     H277397   4.386   4.676   3.843
25719WAT      O77398   8.921   3.662   6.388
25719WAT     H177399   8.887   3.753   6.362
25719WAT     H277400   9.013   3.649   6.351
25720WAT      O77401   8.740   0.567   8.518
25720WAT     H177402   8.833   0.589   8.547
25720WAT     H277403   8.715   0.476   8.551
25721WAT      O77404   7.347   3.648   1.532
25721WAT     H177405   7.323   3.590   1.610
25721WAT     H277406   7.446   3.660   1.528
25722WAT      O77407   2.087   5.687   7.935
25722WAT     H177408   2.020   5.761   7.924
25722WAT     H277409   2.040   5.601   7.953
25723WAT      O77410   8.116   9.734   0.443
25723WAT     H177411   8.114   9.648   0.393
25723WAT     H277412   8.206   9.777   0.432
25724WAT      O77413   7.217   3.929   6.580
25724WAT     H177414   7.136   3.921   6.522
25724WAT     H277415   7.214   3.860   6.652
25725WAT      O77416   3.998   2.685   1.468
25725WAT     H177417   3.919   2.691   1.530
25725WAT     H277418   3.966   2.685   1.373
25726WAT      O77419   1.230   6.700   4.271
25726WAT     H177420   1.206   6.665   4.362
25726WAT     H277421   1.163   6.768   4.243
25727WAT      O77422   8.496   1.120   4.943
25727WAT     H177423   8.538   1.062   5.013
25727WAT     H277424   8.567   1.157   4.883
25728WAT      O77425   2.200   3.935   6.050
25728WAT     H177426   2.197   3.835   6.054
25728WAT     H277427   2.161   3.966   5.963
25729WAT      O77428   2.652   5.983   8.316
25729WAT     H177429   2.661   6.080   8.293
25729WAT     H277430   2.593   5.938   8.249
25730WAT      O77431   4.884   4.278   7.390
25730WAT     H177432   4.908   4.328   7.473
25730WAT     H277433   4.933   4.191   7.389
25731WAT      O77434   2.640   7.448   0.127
25731WAT     H177435   2.712   7.446   0.057
25731WAT     H277436   2.643   7.536   0.175
25732WAT      O77437   3.621   5.033   9.477
25732WAT     H177438   3.554   5.096   9.516
25732WAT     H277439   3.664   4.980   9.550
25733WAT      O77440   4.414   2.594   4.607
25733WAT     H177441   4.344   2.542   4.656
25733WAT     H277442   4.502   2.547   4.616
25734WAT      O77443   6.860   5.889   0.293
25734WAT     H177444   6.769   5.931   0.297
25734WAT     H277445   6.926   5.954   0.255
25735WAT      O77446   3.120   5.522   1.663
25735WAT     H177447   3.058   5.588   1.705
25735WAT     H277448   3.068   5.443   1.631
25736WAT      O77449   7.521   6.656   4.307
25736WAT     H177450   7.619   6.669   4.292
25736WAT     H277451   7.471   6.737   4.276
25737WAT      O77452   1.933   2.096   1.458
25737WAT     H177453   1.974   2.188   1.460
25737WAT     H277454   1.856   2.096   1.394
25738WAT      O77455   0.362   1.648   0.258
25738WAT     H177456   0.362   1.577   0.328
25738WAT     H277457   0.441   1.708   0.273
25739WAT      O77458   6.631   4.678   7.621
25739WAT     H177459   6.623   4.599   7.560
25739WAT     H277460   6.547   4.687   7.674
25740WAT      O77461   1.133   4.162   8.069
25740WAT     H177462   1.137   4.175   8.168
25740WAT     H277463   1.162   4.069   8.046
25741WAT      O77464   0.915   4.626   8.524
25741WAT     H177465   0.825   4.647   8.563
25741WAT     H277466   0.976   4.703   8.537
25742WAT      O77467   8.407   1.524   9.480
25742WAT     H177468   8.393   1.554   9.385
25742WAT     H277469   8.473   1.449   9.481
25743WAT      O77470   1.202   1.775   3.121
25743WAT     H177471   1.132   1.707   3.098
25743WAT     H277472   1.168   1.834   3.195
25744WAT      O77473   3.358   6.733   2.636
25744WAT     H177474   3.346   6.819   2.685
25744WAT     H277475   3.455   6.713   2.628
25745WAT      O77476   1.791   4.862   6.839
25745WAT     H177477   1.775   4.948   6.886
25745WAT     H277478   1.851   4.877   6.761
25746WAT      O77479   7.656   9.728   6.126
25746WAT     H177480   7.724   9.722   6.054
25746WAT     H277481   7.667   9.814   6.175
25747WAT      O77482   7.652   9.277   5.804
25747WAT     H177483   7.629   9.260   5.708
25747WAT     H277484   7.580   9.332   5.847
25748WAT      O77485   5.211   1.861   1.803
25748WAT     H177486   5.186   1.770   1.837
25748WAT     H277487   5.169   1.931   1.861
25749WAT      O77488   0.015   2.847   5.869
25749WAT     H177489  -0.056   2.821   5.804
25749WAT     H277490   0.053   2.765   5.911
25750WAT      O77491   2.276   2.714   2.301
25750WAT     H177492   2.190   2.706   2.350
25750WAT     H277493   2.260   2.706   2.203
25751WAT      O77494   2.176   9.095   2.497
25751WAT     H177495   2.165   9.018   2.435
25751WAT     H277496   2.157   9.066   2.591
25752WAT      O77497   4.989   8.541   4.335
25752WAT     H177498   4.932   8.495   4.404
25752WAT     H277499   4.997   8.638   4.358
25753WAT      O77500   7.173   6.760   9.428
25753WAT     H177501   7.088   6.794   9.387
25753WAT     H277502   7.161   6.664   9.454
25754WAT      O77503   3.120   4.851   4.488
25754WAT     H177504   3.140   4.905   4.406
25754WAT     H277505   3.162   4.896   4.567
25755WAT      O77506   0.059   5.880   8.462
25755WAT     H177507   0.049   5.796   8.514
25755WAT     H277508   0.064   5.958   8.525
25756WAT      O77509   0.511   8.163   4.056
25756WAT     H177510   0.500   8.157   3.957
25756WAT     H277511   0.569   8.241   4.079
25757WAT      O77512   7.578   0.892   5.509
25757WAT     H177513   7.635   0.931   5.581
25757WAT     H277514   7.529   0.965   5.461
25758WAT      O77515   1.638   2.042   4.100
25758WAT     H177516   1.731   2.068   4.127
25758WAT     H277517   1.601   1.977   4.167
25759WAT      O77518   8.149   1.118   8.547
25759WAT     H177519   8.140   1.072   8.636
25759WAT     H277520   8.103   1.064   8.477
25760WAT      O77521   2.386   3.014   0.648
25760WAT     H177522   2.344   3.057   0.727
25760WAT     H277523   2.367   3.068   0.566
25761WAT      O77524   4.382   3.727   2.374
25761WAT     H177525   4.313   3.665   2.337
25761WAT     H277526   4.465   3.722   2.319
25762WAT      O77527   6.375   9.667   2.803
25762WAT     H177528   6.415   9.688   2.892
25762WAT     H277529   6.433   9.602   2.754
25763WAT      O77530   7.331   9.330   1.631
25763WAT     H177531   7.236   9.345   1.656
25763WAT     H277532   7.339   9.326   1.531
25764WAT      O77533   5.126   6.885   2.428
25764WAT     H177534   5.169   6.838   2.352
25764WAT     H277535   5.069   6.961   2.394
25765WAT      O77536   2.037   1.378   6.054
25765WAT     H177537   2.075   1.408   6.142
25765WAT     H277538   2.112   1.364   5.989
25766WAT      O77539   4.892   0.783   2.430
25766WAT     H177540   4.951   0.830   2.496
25766WAT     H277541   4.926   0.690   2.416
25767WAT      O77542   6.565   0.129   7.414
25767WAT     H177543   6.566   0.211   7.358
25767WAT     H277544   6.547   0.154   7.509
25768WAT      O77545   5.084   5.222   6.449
25768WAT     H177546   5.088   5.229   6.549
25768WAT     H277547   4.995   5.258   6.418
25769WAT      O77548   4.958   4.363   1.250
25769WAT     H177549   5.034   4.427   1.247
25769WAT     H277550   4.988   4.278   1.293
25770WAT      O77551   1.434   0.497   0.589
25770WAT     H177552   1.443   0.404   0.554
25770WAT     H277553   1.430   0.561   0.512
25771WAT      O77554   5.851   9.754   7.623
25771WAT     H177555   5.806   9.670   7.655
25771WAT     H277556   5.857   9.819   7.698
25772WAT      O77557   3.871   2.952   0.426
25772WAT     H177558   3.800   3.017   0.456
25772WAT     H277559   3.834   2.859   0.428
25773WAT      O77560   1.321   1.102   7.170
25773WAT     H177561   1.350   1.058   7.085
25773WAT     H277562   1.285   1.034   7.233
25774WAT      O77563   9.562   7.623   9.269
25774WAT     H177564   9.482   7.583   9.314
25774WAT     H277565   9.595   7.700   9.323
25775WAT      O77566   3.062   5.240   5.747
25775WAT     H177567   3.109   5.171   5.693
25775WAT     H277568   3.041   5.204   5.838
25776WAT      O77569   7.898   0.784   3.758
25776WAT     H177570   7.943   0.762   3.671
25776WAT     H277571   7.965   0.779   3.832
25777WAT      O77572   9.102   9.716   3.496
25777WAT     H177573   9.064   9.625   3.479
25777WAT     H277574   9.172   9.736   3.426
25778WAT      O77575   0.957   6.872   8.775
25778WAT     H177576   1.021   6.934   8.820
25778WAT     H277577   1.000   6.829   8.697
25779WAT      O77578   4.366   4.143   0.746
25779WAT     H177579   4.414   4.221   0.784
25779WAT     H277580   4.291   4.116   0.807
25780WAT      O77581   5.527   4.258   2.426
25780WAT     H177582   5.587   4.317   2.481
25780WAT     H277583   5.549   4.162   2.444
25781WAT      O77584   1.201   5.831   8.810
25781WAT     H177585   1.201   5.743   8.858
25781WAT     H277586   1.107   5.862   8.796
25782WAT      O77587   7.485   7.986   3.671
25782WAT     H177588   7.465   8.083   3.690
25782WAT     H277589   7.506   7.974   3.574
25783WAT      O77590   5.209   2.697   6.331
25783WAT     H177591   5.261   2.716   6.248
25783WAT     H277592   5.127   2.755   6.333
25784WAT      O77593   2.852   4.026   3.951
25784WAT     H177594   2.797   3.964   4.007
25784WAT     H277595   2.811   4.034   3.860
25785WAT      O77596   3.491   2.695   6.931
25785WAT     H177597   3.560   2.766   6.945
25785WAT     H277598   3.527   2.608   6.965
25786WAT      O77599   3.991   9.303   4.342
25786WAT     H177600   4.084   9.337   4.350
25786WAT     H277601   3.993   9.204   4.330
25787WAT      O77602   0.864   9.064   5.476
25787WAT     H177603   0.962   9.078   5.492
25787WAT     H277604   0.815   9.149   5.492
25788WAT      O77605   9.557   7.660   3.515
25788WAT     H177606   9.638   7.604   3.529
25788WAT     H277607   9.520   7.643   3.424
25789WAT      O77608   5.552   3.052   5.413
25789WAT     H177609   5.491   3.105   5.472
25789WAT     H277610   5.543   2.955   5.435
25790WAT      O77611   1.497   3.765   5.191
25790WAT     H177612   1.537   3.800   5.276
25790WAT     H277613   1.401   3.743   5.206
25791WAT      O77614   8.332   7.776   4.438
25791WAT     H177615   8.283   7.756   4.523
25791WAT     H277616   8.404   7.842   4.456
25792WAT      O77617   3.607   2.518   9.117
25792WAT     H177618   3.551   2.515   9.035
25792WAT     H277619   3.560   2.471   9.192
25793WAT      O77620   2.593   0.528   4.924
25793WAT     H177621   2.639   0.595   4.865
25793WAT     H277622   2.594   0.561   5.018
25794WAT      O77623   7.760   7.655   7.988
25794WAT     H177624   7.808   7.593   7.926
25794WAT     H277625   7.662   7.637   7.983
25795WAT      O77626   6.371   6.096   8.655
25795WAT     H177627   6.470   6.088   8.644
25795WAT     H277628   6.327   6.104   8.565
25796WAT      O77629   5.266   0.000   1.156
25796WAT     H177630   5.247  -0.071   1.224
25796WAT     H277631   5.209   0.080   1.175
25797WAT      O77632   2.340   5.560   9.741
25797WAT     H177633   2.250   5.587   9.776
25797WAT     H277634   2.358   5.609   9.656
25798WAT      O77635   3.280   5.644   6.621
25798WAT     H177636   3.349   5.636   6.694
25798WAT     H277637   3.193   5.606   6.653
25799WAT      O77638   8.198   6.734   7.264
25799WAT     H177639   8.131   6.689   7.205
25799WAT     H277640   8.241   6.810   7.215
25800WAT      O77641   0.037   3.273   6.487
25800WAT     H177642   0.122   3.261   6.435
25800WAT     H277643   0.025   3.369   6.510
25801WAT      O77644   2.783   9.634   5.245
25801WAT     H177645   2.694   9.597   5.270
25801WAT     H277646   2.847   9.623   5.321
25802WAT      O77647   2.722   2.239   3.001
25802WAT     H177648   2.661   2.305   2.957
25802WAT     H277649   2.721   2.153   2.949
25803WAT      O77650   8.128   0.370   1.449
25803WAT     H177651   8.154   0.334   1.539
25803WAT     H277652   8.142   0.469   1.448
25804WAT      O77653   0.465   8.967   4.042
25804WAT     H177654   0.414   8.882   4.026
25804WAT     H277655   0.400   9.042   4.057
25805WAT      O77656   0.571   4.405   0.765
25805WAT     H177657   0.538   4.316   0.799
25805WAT     H277658   0.664   4.420   0.798
25806WAT      O77659   0.256   9.605   6.692
25806WAT     H177660   0.202   9.534   6.737
25806WAT     H277661   0.220   9.695   6.716
25807WAT      O77662   7.520   4.279   6.183
25807WAT     H177663   7.509   4.316   6.091
25807WAT     H277664   7.448   4.315   6.242
25808WAT      O77665   9.061   1.068   6.176
25808WAT     H177666   8.994   1.042   6.245
25808WAT     H277667   9.060   1.001   6.101
25809WAT      O77668   5.355   2.858   1.828
25809WAT     H177669   5.354   2.759   1.843
25809WAT     H277670   5.267   2.886   1.791
25810WAT      O77671   8.053   2.425   7.621
25810WAT     H177672   8.002   2.450   7.703
25810WAT     H277673   8.143   2.390   7.646
25811WAT      O77674   1.809   4.801   2.505
25811WAT     H177675   1.802   4.857   2.423
25811WAT     H277676   1.892   4.747   2.503
25812WAT      O77677   9.428   3.836   7.112
25812WAT     H177678   9.449   3.849   7.208
25812WAT     H277679   9.433   3.924   7.064
25813WAT      O77680   3.917   5.156   1.858
25813WAT     H177681   3.958   5.076   1.815
25813WAT     H277682   3.905   5.139   1.956
25814WAT      O77683   4.590   9.719   3.215
25814WAT     H177684   4.591   9.773   3.299
25814WAT     H277685   4.685   9.702   3.186
25815WAT      O77686   3.961   2.633   7.380
25815WAT     H177687   4.000   2.541   7.379
25815WAT     H277688   3.868   2.631   7.344
25816WAT      O77689   6.945   4.930   7.865
25816WAT     H177690   6.917   4.853   7.807
25816WAT     H277691   7.002   4.992   7.811
25817WAT      O77692   3.292   6.178   8.052
25817WAT     H177693   3.229   6.193   8.129
25817WAT     H277694   3.275   6.247   7.981
25818WAT      O77695   6.194   6.700   1.833
25818WAT     H177696   6.169   6.744   1.748
25818WAT     H277697   6.204   6.601   1.818
25819WAT      O77698   1.336   8.651   2.694
25819WAT     H177699   1.246   8.685   2.668
25819WAT     H277700   1.389   8.725   2.735
25820WAT      O77701   5.210   1.075   0.901
25820WAT     H177702   5.129   1.128   0.926
25820WAT     H277703   5.286   1.137   0.882
25821WAT      O77704   4.661   5.315   5.149
25821WAT     H177705   4.674   5.229   5.099
25821WAT     H277706   4.739   5.375   5.131
25822WAT      O77707   7.986   3.409   2.476
25822WAT     H177708   8.025   3.338   2.418
25822WAT     H277709   7.970   3.372   2.567
25823WAT      O77710   0.849   7.616   4.415
25823WAT     H177711   0.919   7.615   4.343
25823WAT     H277712   0.766   7.572   4.381
25824WAT      O77713   9.447   6.065   7.020
25824WAT     H177714   9.384   6.142   7.018
25824WAT     H277715   9.447   6.020   6.930
25825WAT      O77716   9.538   9.182   3.051
25825WAT     H177717   9.530   9.085   3.075
25825WAT     H277718   9.614   9.193   2.986
25826WAT      O77719   6.679   6.957   4.123
25826WAT     H177720   6.713   6.961   4.217
25826WAT     H277721   6.605   6.890   4.116
25827WAT      O77722   6.609   3.919   1.958
25827WAT     H177723   6.618   3.839   1.899
25827WAT     H277724   6.668   3.908   2.039
25828WAT      O77725   6.737   7.722   3.288
25828WAT     H177726   6.796   7.747   3.211
25828WAT     H277727   6.677   7.648   3.262
25829WAT      O77728   9.642   8.541   1.112
25829WAT     H177729   9.683   8.457   1.146
25829WAT     H277730   9.542   8.532   1.111
25830WAT      O77731   1.514   8.069   8.845
25830WAT     H177732   1.486   8.035   8.934
25830WAT     H277733   1.433   8.094   8.792
25831WAT      O77734   2.603   0.101   1.208
25831WAT     H177735   2.573   0.146   1.292
25831WAT     H277736   2.576   0.004   1.211
25832WAT      O77737   9.569   5.444   4.883
25832WAT     H177738   9.525   5.387   4.952
25832WAT     H277739   9.614   5.386   4.816
25833WAT      O77740   4.321   1.942   8.433
25833WAT     H177741   4.255   1.965   8.504
25833WAT     H277742   4.277   1.949   8.343
25834WAT      O77743   6.769   2.826   2.513
25834WAT     H177744   6.669   2.833   2.516
25834WAT     H277745   6.803   2.858   2.425
25835WAT      O77746   2.028   6.131   6.684
25835WAT     H177747   2.065   6.222   6.700
25835WAT     H277748   1.929   6.131   6.701
25836WAT      O77749   3.268   5.537   7.255
25836WAT     H177750   3.265   5.543   7.355
25836WAT     H277751   3.197   5.475   7.223
25837WAT      O77752   2.313   5.136   9.009
25837WAT     H177753   2.405   5.102   8.989
25837WAT     H277754   2.302   5.226   8.968
25838WAT      O77755   2.290   7.472   5.399
25838WAT     H177756   2.354   7.397   5.414
25838WAT     H277757   2.210   7.461   5.459
25839WAT      O77758   9.619   4.219   9.394
25839WAT     H177759   9.556   4.143   9.379
25839WAT     H277760   9.573   4.290   9.448
25840WAT      O77761   8.054   9.735   5.443
25840WAT     H177762   8.089   9.823   5.477
25840WAT     H277763   7.957   9.726   5.466
25841WAT      O77764   4.855   8.425   6.979
25841WAT     H177765   4.858   8.332   7.018
25841WAT     H277766   4.760   8.451   6.963
25842WAT      O77767   8.305   2.521   6.653
25842WAT     H177768   8.295   2.592   6.584
25842WAT     H277769   8.247   2.542   6.732
25843WAT      O77770   5.563   6.544   1.879
25843WAT     H177771   5.562   6.640   1.849
25843WAT     H277772   5.657   6.515   1.894
25844WAT      O77773   0.621   5.441   9.441
25844WAT     H177774   0.687   5.504   9.483
25844WAT     H277775   0.662   5.399   9.360
25845WAT      O77776   1.446   2.424   3.289
25845WAT     H177777   1.507   2.499   3.318
25845WAT     H277778   1.411   2.377   3.369
25846WAT      O77779   7.662   9.194   3.306
25846WAT     H177780   7.741   9.248   3.335
25846WAT     H277781   7.584   9.254   3.292
25847WAT      O77782   0.675   8.846   9.254
25847WAT     H177783   0.576   8.831   9.251
25847WAT     H277784   0.718   8.800   9.176
25848WAT      O77785   7.939   3.822   1.021
25848WAT     H177786   7.929   3.857   1.114
25848WAT     H277787   8.023   3.859   0.981
25849WAT      O77788   1.504   8.056   8.075
25849WAT     H177789   1.571   8.129   8.061
25849WAT     H277790   1.533   7.973   8.027
25850WAT      O77791   2.069   5.618   0.092
25850WAT     H177792   2.054   5.709   0.054
25850WAT     H277793   2.017   5.551   0.040
25851WAT      O77794   5.392   2.943   2.093
25851WAT     H177795   5.388   2.920   1.996
25851WAT     H277796   5.409   3.041   2.104
25852WAT      O77797   6.717   9.144   8.412
25852WAT     H177798   6.636   9.202   8.422
25852WAT     H277799   6.732   9.093   8.497
25853WAT      O77800   9.458   2.418   2.047
25853WAT     H177801   9.527   2.372   1.991
25853WAT     H277802   9.414   2.351   2.106
25854WAT      O77803   3.063   8.309   4.291
25854WAT     H177804   3.162   8.296   4.301
25854WAT     H277805   3.018   8.285   4.376
25855WAT      O77806   6.077   9.349   8.459
25855WAT     H177807   6.172   9.317   8.451
25855WAT     H277808   6.058   9.372   8.555
25856WAT      O77809   5.070   4.820   9.159
25856WAT     H177810   5.019   4.852   9.079
25856WAT     H277811   5.043   4.874   9.239
25857WAT      O77812   0.745   7.000   8.935
25857WAT     H177813   0.664   6.943   8.945
25857WAT     H277814   0.813   6.953   8.879
25858WAT      O77815   7.142   1.315   3.551
25858WAT     H177816   7.222   1.257   3.537
25858WAT     H277817   7.159   1.379   3.625
25859WAT      O77818   0.856   0.355   1.452
25859WAT     H177819   0.934   0.402   1.412
25859WAT     H277820   0.857   0.259   1.425
25860WAT      O77821   4.043   7.880   2.521
25860WAT     H177822   4.095   7.813   2.576
25860WAT     H277823   4.003   7.833   2.443
25861WAT      O77824   0.349   4.478   4.946
25861WAT     H177825   0.321   4.417   5.020
25861WAT     H277826   0.431   4.442   4.903
25862WAT      O77827   2.336   0.951   3.806
25862WAT     H177828   2.393   0.957   3.724
25862WAT     H277829   2.283   0.866   3.805
25863WAT      O77830   6.660   5.373   5.434
25863WAT     H177831   6.751   5.414   5.435
25863WAT     H277832   6.605   5.413   5.508
25864WAT      O77833   6.268   1.188   1.623
25864WAT     H177834   6.225   1.273   1.592
25864WAT     H277835   6.207   1.111   1.606
25865WAT      O77836   4.453   7.587   2.449
25865WAT     H177837   4.497   7.587   2.359
25865WAT     H277838   4.485   7.666   2.502
25866WAT      O77839   7.997   0.648   5.437
25866WAT     H177840   7.898   0.645   5.452
25866WAT     H277841   8.029   0.560   5.402
25867WAT      O77842   5.492   7.619   1.492
25867WAT     H177843   5.483   7.532   1.444
25867WAT     H277844   5.584   7.657   1.475
25868WAT      O77845   5.301   4.843   7.329
25868WAT     H177846   5.265   4.931   7.299
25868WAT     H277847   5.244   4.769   7.292
25869WAT      O77848   6.732   6.422   6.908
25869WAT     H177849   6.766   6.494   6.968
25869WAT     H277850   6.637   6.401   6.931
25870WAT      O77851   3.328   3.826   5.962
25870WAT     H177852   3.333   3.920   5.996
25870WAT     H277853   3.333   3.827   5.862
25871WAT      O77854   1.338   1.152   2.426
25871WAT     H177855   1.345   1.238   2.376
25871WAT     H277856   1.271   1.092   2.381
25872WAT      O77857   7.216   1.999   7.965
25872WAT     H177858   7.163   2.084   7.959
25872WAT     H277859   7.294   2.012   8.025
25873WAT      O77860   9.393   5.198   2.356
25873WAT     H177861   9.424   5.285   2.394
25873WAT     H277862   9.467   5.131   2.360
25874WAT      O77863   5.233   1.376   3.744
25874WAT     H177864   5.203   1.461   3.787
25874WAT     H277865   5.226   1.385   3.644
25875WAT      O77866   1.421   0.598   0.054
25875WAT     H177867   1.432   0.658  -0.025
25875WAT     H277868   1.350   0.530   0.035
25876WAT      O77869   1.435   4.303   0.956
25876WAT     H177870   1.405   4.237   0.887
25876WAT     H277871   1.493   4.372   0.913
25877WAT      O77872   4.958   5.787   6.981
25877WAT     H177873   4.917   5.820   6.896
25877WAT     H277874   4.898   5.807   7.057
25878WAT      O77875   9.694   8.241   4.811
25878WAT     H177876   9.724   8.275   4.722
25878WAT     H277877   9.691   8.317   4.876
25879WAT      O77878   1.226   7.869   0.432
25879WAT     H177879   1.320   7.863   0.398
25879WAT     H277880   1.164   7.886   0.356
25880WAT      O77881   9.145   3.834   1.878
25880WAT     H177882   9.096   3.859   1.795
25880WAT     H277883   9.178   3.740   1.870
25881WAT      O77884   2.367   2.794   9.871
25881WAT     H177885   2.296   2.725   9.855
25881WAT     H277886   2.442   2.779   9.806
25882WAT      O77887   3.546   2.673   5.673
25882WAT     H177888   3.613   2.610   5.714
25882WAT     H277889   3.455   2.634   5.681
25883WAT      O77890   6.183   8.022   6.455
25883WAT     H177891   6.274   7.980   6.459
25883WAT     H277892   6.121   7.973   6.515
25884WAT      O77893   2.521   4.606   2.478
25884WAT     H177894   2.533   4.641   2.385
25884WAT     H277895   2.557   4.513   2.484
25885WAT      O77896   5.909   4.495   7.918
25885WAT     H177897   5.922   4.506   7.819
25885WAT     H277898   5.825   4.445   7.935
25886WAT      O77899   8.262   5.311   6.908
25886WAT     H177900   8.359   5.317   6.932
25886WAT     H277901   8.247   5.233   6.847
25887WAT      O77902   9.352   3.610   9.169
25887WAT     H177903   9.378   3.606   9.265
25887WAT     H277904   9.417   3.668   9.119
25888WAT      O77905   2.941   9.430   8.275
25888WAT     H177906   2.943   9.383   8.187
25888WAT     H277907   2.883   9.380   8.339
25889WAT      O77908   3.022   1.379   9.567
25889WAT     H177909   3.092   1.426   9.514
25889WAT     H277910   3.057   1.357   9.658
25890WAT      O77911   2.730   1.105   7.840
25890WAT     H177912   2.734   1.059   7.751
25890WAT     H277913   2.818   1.096   7.887
25891WAT      O77914   8.853   4.258   9.851
25891WAT     H177915   8.823   4.240   9.945
25891WAT     H277916   8.911   4.339   9.849
25892WAT      O77917   1.045   0.343   2.352
25892WAT     H177918   0.982   0.265   2.343
25892WAT     H277919   0.993   0.426   2.372
25893WAT      O77920   7.595   5.401   6.116
25893WAT     H177921   7.568   5.497   6.118
25893WAT     H277922   7.514   5.343   6.105
25894WAT      O77923   3.475   8.356   7.821
25894WAT     H177924   3.415   8.382   7.897
25894WAT     H277925   3.568   8.343   7.856
25895WAT      O77926   2.922   9.200   6.521
25895WAT     H177927   3.018   9.202   6.547
25895WAT     H277928   2.914   9.197   6.421
25896WAT      O77929   2.534   6.140   2.049
25896WAT     H177930   2.564   6.117   1.956
25896WAT     H277931   2.522   6.240   2.056
25897WAT      O77932   3.231   7.660   6.556
25897WAT     H177933   3.226   7.675   6.655
25897WAT     H277934   3.139   7.644   6.520
25898WAT      O77935   3.717   0.121   7.778
25898WAT     H177936   3.633   0.072   7.802
25898WAT     H277937   3.717   0.139   7.679
25899WAT      O77938   2.778   8.824   9.641
25899WAT     H177939   2.836   8.773   9.577
25899WAT     H277940   2.705   8.869   9.590
25900WAT      O77941   0.639   7.957   7.642
25900WAT     H177942   0.619   8.034   7.582
25900WAT     H277943   0.639   7.989   7.737
25901WAT      O77944   9.698   5.160   7.992
25901WAT     H177945   9.729   5.083   8.048
25901WAT     H277946   9.696   5.132   7.896
25902WAT      O77947   8.605   1.050   6.753
25902WAT     H177948   8.542   1.127   6.764
25902WAT     H277949   8.696   1.077   6.786
25903WAT      O77950   2.031   6.351   7.240
25903WAT     H177951   2.037   6.257   7.276
25903WAT     H277952   1.972   6.352   7.160
25904WAT      O77953   4.501   6.859   3.792
25904WAT     H177954   4.489   6.808   3.877
25904WAT     H277955   4.591   6.838   3.753
25905WAT      O77956   8.312   2.587   0.465
25905WAT     H177957   8.259   2.615   0.384
25905WAT     H277958   8.406   2.566   0.438
25906WAT      O77959   2.464   1.187   7.821
25906WAT     H177960   2.563   1.172   7.829
25906WAT     H277961   2.448   1.284   7.799
25907WAT      O77962   7.739   6.463   6.894
25907WAT     H177963   7.694   6.415   6.969
25907WAT     H277964   7.723   6.561   6.903
25908WAT      O77965   2.327   6.062   3.919
25908WAT     H177966   2.262   6.043   3.846
25908WAT     H277967   2.312   6.155   3.954
25909WAT      O77968   5.457   7.080   7.896
25909WAT     H177969   5.530   7.095   7.962
25909WAT     H277970   5.457   7.154   7.828
25910WAT      O77971   5.829   3.740   6.802
25910WAT     H177972   5.921   3.701   6.791
25910WAT     H277973   5.837   3.839   6.815
25911WAT      O77974   3.200   5.840   1.242
25911WAT     H177975   3.127   5.808   1.301
25911WAT     H277976   3.168   5.843   1.147
25912WAT      O77977   3.429   2.420   9.299
25912WAT     H177978   3.432   2.491   9.369
25912WAT     H277979   3.381   2.340   9.335
25913WAT      O77980   5.956   1.606   0.061
25913WAT     H177981   6.044   1.640   0.094
25913WAT     H277982   5.969   1.561  -0.028
25914WAT      O77983   1.892   1.369   7.381
25914WAT     H177984   1.911   1.426   7.302
25914WAT     H277985   1.910   1.273   7.358
25915WAT      O77986   1.786   0.484   5.424
25915WAT     H177987   1.711   0.505   5.486
25915WAT     H277988   1.788   0.385   5.407
25916WAT      O77989   8.442   6.479   0.513
25916WAT     H177990   8.515   6.501   0.577
25916WAT     H277991   8.353   6.486   0.559
25917WAT      O77992   4.867   6.556   4.173
25917WAT     H177993   4.822   6.632   4.219
25917WAT     H277994   4.939   6.592   4.113
25918WAT      O77995   4.583   8.873   8.229
25918WAT     H177996   4.521   8.915   8.296
25918WAT     H277997   4.592   8.776   8.249
25919WAT      O77998   4.001   8.647   2.357
25919WAT     H177999   3.999   8.548   2.369
25919WAT     H278000   4.083   8.684   2.401
25920WAT      O78001   6.481   0.615   2.697
25920WAT     H178002   6.481   0.661   2.786
25920WAT     H278003   6.574   0.585   2.675
25921WAT      O78004   6.045   2.439   0.496
25921WAT     H178005   6.078   2.494   0.572
25921WAT     H278006   6.081   2.476   0.410
25922WAT      O78007   5.299   4.856   1.485
25922WAT     H178008   5.226   4.793   1.458
25922WAT     H278009   5.321   4.842   1.582
25923WAT      O78010   2.814   5.761   5.875
25923WAT     H178011   2.783   5.747   5.969
25923WAT     H278012   2.780   5.688   5.816
25924WAT      O78013   8.977   9.006   1.371
25924WAT     H178014   8.894   9.060   1.353
25924WAT     H278015   8.970   8.963   1.461
25925WAT      O78016   3.171   9.165   3.352
25925WAT     H178017   3.238   9.095   3.375
25925WAT     H278018   3.203   9.219   3.275
25926WAT      O78019   7.693   3.012   5.148
25926WAT     H178020   7.600   3.042   5.169
25926WAT     H278021   7.759   3.068   5.199
25927WAT      O78022   1.217   6.095   8.495
25927WAT     H178023   1.199   6.106   8.593
25927WAT     H278024   1.285   6.163   8.466
25928WAT      O78025   0.348   2.045   3.093
25928WAT     H178026   0.301   2.129   3.065
25928WAT     H278027   0.282   1.984   3.138
25929WAT      O78028   9.809   0.206   3.379
25929WAT     H178029   9.715   0.239   3.368
25929WAT     H278030   9.854   0.256   3.453
25930WAT      O78031   5.514   7.759   7.252
25930WAT     H178032   5.440   7.825   7.238
25930WAT     H278033   5.542   7.760   7.348
25931WAT      O78034   8.237   4.037   4.399
25931WAT     H178035   8.304   3.966   4.377
25931WAT     H278036   8.286   4.121   4.424
25932WAT      O78037   0.995   4.158   4.174
25932WAT     H178038   0.936   4.153   4.255
25932WAT     H278039   1.079   4.106   4.191
25933WAT      O78040   3.344   1.161   0.372
25933WAT     H178041   3.306   1.069   0.369
25933WAT     H278042   3.347   1.193   0.467
25934WAT      O78043   7.254   8.547   0.893
25934WAT     H178044   7.213   8.614   0.831
25934WAT     H278045   7.319   8.592   0.954
25935WAT      O78046   8.439   5.256   2.976
25935WAT     H178047   8.431   5.355   2.960
25935WAT     H278048   8.441   5.239   3.075
25936WAT      O78049   1.140   1.311   9.125
25936WAT     H178050   1.112   1.386   9.066
25936WAT     H278051   1.207   1.344   9.191
25937WAT      O78052   5.575   7.043   0.655
25937WAT     H178053   5.593   6.967   0.593
25937WAT     H278054   5.582   7.011   0.750
25938WAT      O78055   8.845   5.058   7.616
25938WAT     H178056   8.802   5.142   7.582
25938WAT     H278057   8.920   5.081   7.678
25939WAT      O78058   1.110   2.151   6.046
25939WAT     H178059   1.109   2.138   6.145
25939WAT     H278060   1.138   2.066   6.002
25940WAT      O78061   3.012   4.797   8.570
25940WAT     H178062   3.106   4.826   8.556
25940WAT     H278063   2.949   4.865   8.533
25941WAT      O78064   5.263   2.784   9.322
25941WAT     H178065   5.255   2.847   9.399
25941WAT     H278066   5.215   2.822   9.243
25942WAT      O78067   0.908   2.086   2.144
25942WAT     H178068   0.975   2.122   2.209
25942WAT     H278069   0.955   2.027   2.078
25943WAT      O78070   6.156   7.660   6.332
25943WAT     H178071   6.137   7.597   6.257
25943WAT     H278072   6.144   7.613   6.419
25944WAT      O78073   5.542   9.181   9.380
25944WAT     H178074   5.517   9.256   9.319
25944WAT     H278075   5.471   9.111   9.377
25945WAT      O78076   4.667   0.297   9.022
25945WAT     H178077   4.570   0.316   9.005
25945WAT     H278078   4.716   0.297   8.935
25946WAT      O78079   5.430   6.624   3.034
25946WAT     H178080   5.407   6.718   3.059
25946WAT     H278081   5.487   6.625   2.951
25947WAT      O78082   8.766   8.037   8.413
25947WAT     H178083   8.736   8.039   8.317
25947WAT     H278084   8.685   8.036   8.472
25948WAT      O78085   4.530   8.565   1.638
25948WAT     H178086   4.481   8.647   1.670
25948WAT     H278087   4.618   8.559   1.685
25949WAT      O78088   6.823   1.642   0.256
25949WAT     H178089   6.820   1.732   0.211
25949WAT     H278090   6.811   1.571   0.187
25950WAT      O78091   5.932   4.617   4.049
25950WAT     H178092   5.956   4.700   3.999
25950WAT     H278093   5.926   4.636   4.147
25951WAT      O78094   4.927   4.165   5.415
25951WAT     H178095   4.948   4.253   5.372
25951WAT     H278096   4.973   4.159   5.504
25952WAT      O78097   7.481   1.873   1.288
25952WAT     H178098   7.565   1.926   1.278
25952WAT     H278099   7.503   1.782   1.325
25953WAT      O78100   7.984   1.153   0.126
25953WAT     H178101   8.043   1.207   0.185
25953WAT     H278102   7.936   1.083   0.180
25954WAT      O78103   9.749   0.833   5.659
25954WAT     H178104   9.676   0.865   5.598
25954WAT     H278105   9.723   0.744   5.697
25955WAT      O78106   6.543   0.797   2.314
25955WAT     H178107   6.566   0.890   2.285
25955WAT     H278108   6.499   0.800   2.403
25956WAT      O78109   5.370   5.392   8.665
25956WAT     H178110   5.433   5.450   8.717
25956WAT     H278111   5.418   5.356   8.584
25957WAT      O78112   9.401   9.521   8.474
25957WAT     H178113   9.389   9.537   8.376
25957WAT     H278114   9.312   9.527   8.520
25958WAT      O78115   4.374   1.019   6.979
25958WAT     H178116   4.353   1.113   6.951
25958WAT     H278117   4.455   0.987   6.929
25959WAT      O78118   6.703   3.827   9.214
25959WAT     H178119   6.631   3.881   9.256
25959WAT     H278120   6.729   3.752   9.275
25960WAT      O78121   1.223   6.073   3.040
25960WAT     H178122   1.268   6.152   3.081
25960WAT     H278123   1.125   6.091   3.031
25961WAT      O78124   2.733   1.990   5.467
25961WAT     H178125   2.638   1.999   5.497
25961WAT     H278126   2.793   2.032   5.534
25962WAT      O78127   7.786   2.973   0.929
25962WAT     H178128   7.778   2.894   0.869
25962WAT     H278129   7.745   3.053   0.885
25963WAT      O78130   5.465   3.908   2.059
25963WAT     H178131   5.390   3.961   2.019
25963WAT     H278132   5.429   3.822   2.094
25964WAT      O78133   6.493   8.882   3.513
25964WAT     H178134   6.467   8.955   3.576
25964WAT     H278135   6.430   8.805   3.523
25965WAT      O78136   3.464   5.533   5.105
25965WAT     H178137   3.474   5.600   5.178
25965WAT     H278138   3.504   5.446   5.134
25966WAT      O78139   1.010   1.354   3.762
25966WAT     H178140   0.963   1.382   3.678
25966WAT     H278141   1.089   1.412   3.778
25967WAT      O78142   8.187   0.345   0.521
25967WAT     H178143   8.237   0.269   0.562
25967WAT     H278144   8.250   0.400   0.466
25968WAT      O78145   9.447   3.955   5.515
25968WAT     H178146   9.376   3.895   5.479
25968WAT     H278147   9.516   3.901   5.563
25969WAT      O78148   6.417   6.995   0.009
25969WAT     H178149   6.383   7.049   0.087
25969WAT     H278150   6.497   7.042  -0.030
25970WAT      O78151   8.222   6.974   8.163
25970WAT     H178152   8.182   6.886   8.188
25970WAT     H278153   8.306   6.988   8.215
25971WAT      O78154   1.334   4.196   1.293
25971WAT     H178155   1.422   4.242   1.277
25971WAT     H278156   1.350   4.101   1.319
25972WAT      O78157   3.710   5.635   1.403
25972WAT     H178158   3.690   5.543   1.438
25972WAT     H278159   3.635   5.697   1.428
25973WAT      O78160   4.339   8.555   5.826
25973WAT     H178161   4.411   8.492   5.796
25973WAT     H278162   4.293   8.593   5.745
25974WAT      O78163   8.874   4.771   4.315
25974WAT     H178164   8.849   4.821   4.398
25974WAT     H278165   8.942   4.701   4.338
25975WAT      O78166   9.887   0.032   7.584
25975WAT     H178167   9.880  -0.032   7.508
25975WAT     H278168   9.929  -0.014   7.662
25976WAT      O78169   7.303   1.368   7.110
25976WAT     H178170   7.363   1.313   7.052
25976WAT     H278171   7.209   1.365   7.074
25977WAT      O78172   8.217   2.508   1.025
25977WAT     H178173   8.175   2.572   0.961
25977WAT     H278174   8.185   2.415   1.005
25978WAT      O78175   2.840   7.104   6.294
25978WAT     H178176   2.865   7.064   6.206
25978WAT     H278177   2.789   7.038   6.348
25979WAT      O78178   0.925   6.930   2.150
25979WAT     H178179   0.957   7.006   2.206
25979WAT     H278180   0.880   6.862   2.208
25980WAT      O78181   2.483   9.802   4.096
25980WAT     H178182   2.402   9.843   4.137
25980WAT     H278183   2.528   9.868   4.036
25981WAT      O78184   2.214   1.886   0.801
25981WAT     H178185   2.240   1.950   0.874
25981WAT     H278186   2.143   1.825   0.835
25982WAT      O78187   8.449   0.414   1.283
25982WAT     H178188   8.533   0.371   1.250
25982WAT     H278189   8.405   0.355   1.350
25983WAT      O78190   6.033   2.023   6.547
25983WAT     H178191   6.027   2.106   6.491
25983WAT     H278192   5.942   1.999   6.582
25984WAT      O78193   1.420   1.586   0.483
25984WAT     H178194   1.355   1.633   0.424
25984WAT     H278195   1.490   1.542   0.427
25985WAT      O78196   3.834   1.738   1.094
25985WAT     H178197   3.924   1.782   1.091
25985WAT     H278198   3.788   1.751   1.006
25986WAT      O78199   9.699   2.717   1.994
25986WAT     H178200   9.676   2.800   2.045
25986WAT     H278201   9.669   2.637   2.046
25987WAT      O78202   2.416   5.891   4.683
25987WAT     H178203   2.362   5.903   4.767
25987WAT     H278204   2.429   5.793   4.666
25988WAT      O78205   0.888   2.720   4.705
25988WAT     H178206   0.893   2.691   4.609
25988WAT     H278207   0.805   2.774   4.719
25989WAT      O78208   6.997   8.353   9.313
25989WAT     H178209   7.000   8.369   9.215
25989WAT     H278210   6.912   8.391   9.350
25990WAT      O78211   4.893   9.835   3.467
25990WAT     H178212   4.992   9.843   3.481
25990WAT     H278213   4.849   9.923   3.487
25991WAT      O78214   6.948   1.478   8.721
25991WAT     H178215   6.882   1.498   8.794
25991WAT     H278216   6.928   1.535   8.642
25992WAT      O78217   6.384   1.741   9.135
25992WAT     H178218   6.394   1.832   9.176
25992WAT     H278219   6.297   1.701   9.164
25993WAT      O78220   5.684   0.138   9.040
25993WAT     H178221   5.587   0.136   9.019
25993WAT     H278222   5.698   0.161   9.137
25994WAT      O78223   7.440   6.426   0.610
25994WAT     H178224   7.511   6.497   0.613
25994WAT     H278225   7.408   6.408   0.703
25995WAT      O78226   8.360   3.765   4.720
25995WAT     H178227   8.370   3.847   4.776
25995WAT     H278228   8.450   3.721   4.709
25996WAT      O78229   9.637   5.503   6.246
25996WAT     H178230   9.704   5.484   6.318
25996WAT     H278231   9.619   5.420   6.194
25997WAT      O78232   5.697   9.827   2.554
25997WAT     H178233   5.661   9.735   2.540
25997WAT     H278234   5.738   9.860   2.469
25998WAT      O78235   8.879   2.935   8.611
25998WAT     H178236   8.810   2.954   8.681
25998WAT     H278237   8.834   2.901   8.528
25999WAT      O78238   2.023   7.189   0.678
25999WAT     H178239   1.973   7.235   0.604
25999WAT     H278240   2.118   7.220   0.678
26000WAT      O78241   2.900   6.258   7.975
26000WAT     H178242   2.974   6.322   7.992
26000WAT     H278243   2.825   6.274   8.039
26001WAT      O78244   5.979   6.432   1.344
26001WAT     H178245   5.932   6.493   1.280
26001WAT     H278246   5.997   6.345   1.298
26002WAT      O78247   0.329   1.284   3.220
26002WAT     H178248   0.248   1.267   3.163
26002WAT     H278249   0.339   1.382   3.234
26003WAT      O78250   6.876   7.468   8.699
26003WAT     H178251   6.951   7.408   8.724
26003WAT     H278252   6.790   7.431   8.735
26004WAT      O78253   0.170   6.690   8.705
26004WAT     H178254   0.188   6.662   8.610
26004WAT     H278255   0.075   6.719   8.714
26005WAT      O78256   3.831   3.755   4.687
26005WAT     H178257   3.864   3.702   4.766
26005WAT     H278258   3.833   3.853   4.710
26006WAT      O78259   9.697   5.866   8.065
26006WAT     H178260   9.701   5.849   8.164
26006WAT     H278261   9.626   5.809   8.024
26007WAT      O78262   8.089   3.213   2.312
26007WAT     H178263   8.113   3.230   2.217
26007WAT     H278264   8.159   3.155   2.354
26008WAT      O78265   2.224   1.952   3.053
26008WAT     H178266   2.213   1.861   3.012
26008WAT     H278267   2.321   1.975   3.054
26009WAT      O78268   0.765   8.307   3.028
26009WAT     H178269   0.854   8.279   2.992
26009WAT     H278270   0.775   8.393   3.078
26010WAT      O78271   2.508   5.412   1.631
26010WAT     H178272   2.502   5.458   1.543
26010WAT     H278273   2.422   5.364   1.649
26011WAT      O78274   2.718   4.844   0.531
26011WAT     H178275   2.701   4.879   0.623
26011WAT     H278276   2.787   4.900   0.486
26012WAT      O78277   4.394   2.697   5.558
26012WAT     H178278   4.377   2.794   5.542
26012WAT     H278279   4.490   2.684   5.586
26013WAT      O78280   8.509   4.700   9.370
26013WAT     H178281   8.526   4.763   9.446
26013WAT     H278282   8.571   4.622   9.376
26014WAT      O78283   7.563   2.490   4.876
26014WAT     H178284   7.631   2.492   4.802
26014WAT     H278285   7.609   2.468   4.962
26015WAT      O78286   0.886   4.933   0.337
26015WAT     H178287   0.881   4.834   0.347
26015WAT     H278288   0.835   4.961   0.256
26016WAT      O78289   0.287   1.799   7.409
26016WAT     H178290   0.243   1.829   7.325
26016WAT     H278291   0.375   1.756   7.387
26017WAT      O78292   7.060   5.815   2.488
26017WAT     H178293   7.154   5.781   2.479
26017WAT     H278294   7.038   5.825   2.586
26018WAT      O78295   0.642   9.794   7.569
26018WAT     H178296   0.553   9.796   7.524
26018WAT     H278297   0.683   9.704   7.559
26019WAT      O78298   3.156   4.112   6.493
26019WAT     H178299   3.189   4.019   6.476
26019WAT     H278300   3.189   4.144   6.581
26020WAT      O78301   1.361   8.404   0.655
26020WAT     H178302   1.374   8.311   0.621
26020WAT     H278303   1.295   8.403   0.730
26021WAT      O78304   5.520   7.726   6.270
26021WAT     H178305   5.491   7.741   6.175
26021WAT     H278306   5.463   7.656   6.312
26022WAT      O78307   0.788   4.108   8.699
26022WAT     H178308   0.749   4.195   8.666
26022WAT     H278309   0.822   4.121   8.792
26023WAT      O78310   2.565   4.980   5.197
26023WAT     H178311   2.498   5.013   5.264
26023WAT     H278312   2.657   4.989   5.236
26024WAT      O78313   0.130   1.267   1.920
26024WAT     H178314   0.044   1.225   1.893
26024WAT     H278315   0.117   1.318   2.006
26025WAT      O78316   1.612   8.277   8.977
26025WAT     H178317   1.573   8.222   8.904
26025WAT     H278318   1.660   8.218   9.042
26026WAT      O78319   8.584   9.822   9.528
26026WAT     H178320   8.527   9.837   9.610
26026WAT     H278321   8.598   9.909   9.481
26027WAT      O78322   2.488   3.439   0.831
26027WAT     H178323   2.443   3.479   0.751
26027WAT     H278324   2.424   3.438   0.907
26028WAT      O78325   7.236   7.170   6.742
26028WAT     H178326   7.175   7.091   6.732
26028WAT     H278327   7.307   7.150   6.809
26029WAT      O78328   1.937   9.126   4.005
26029WAT     H178329   1.918   9.091   3.913
26029WAT     H278330   1.916   9.056   4.073
26030WAT      O78331   2.564   5.033   8.962
26030WAT     H178332   2.571   5.029   8.862
26030WAT     H278333   2.558   4.940   8.998
26031WAT      O78334   1.090   8.661   0.746
26031WAT     H178335   1.150   8.601   0.799
26031WAT     H278336   0.996   8.650   0.777
26032WAT      O78337   9.315   4.617   1.641
26032WAT     H178338   9.381   4.624   1.567
26032WAT     H278339   9.246   4.689   1.631
26033WAT      O78340   6.246   4.088   0.193
26033WAT     H178341   6.294   4.174   0.173
26033WAT     H278342   6.271   4.057   0.284
26034WAT      O78343   4.675   4.310   3.032
26034WAT     H178344   4.723   4.356   3.106
26034WAT     H278345   4.719   4.331   2.944
26035WAT      O78346   6.177   9.422   8.089
26035WAT     H178347   6.257   9.480   8.107
26035WAT     H278348   6.099   9.456   8.141
26036WAT      O78349   7.246   9.504   5.639
26036WAT     H178350   7.258   9.603   5.635
26036WAT     H278351   7.177   9.475   5.572
26037WAT      O78352   8.779   0.642   1.879
26037WAT     H178353   8.723   0.699   1.940
26037WAT     H278354   8.782   0.549   1.914
26038WAT      O78355   9.053   7.747   9.306
26038WAT     H178356   9.060   7.698   9.394
26038WAT     H278357   8.966   7.796   9.302
26039WAT      O78358   8.252   7.589   9.169
26039WAT     H178359   8.215   7.519   9.109
26039WAT     H278360   8.351   7.594   9.158
26040WAT      O78361   3.118   0.742   2.328
26040WAT     H178362   3.201   0.740   2.271
26040WAT     H278363   3.074   0.831   2.319
26041WAT      O78364   8.981   4.490   3.425
26041WAT     H178365   8.944   4.412   3.475
26041WAT     H278366   8.916   4.566   3.429
26042WAT      O78367   6.008   9.461   7.267
26042WAT     H178368   6.010   9.425   7.360
26042WAT     H278369   5.950   9.543   7.263
26043WAT      O78370   8.678   4.870   9.816
26043WAT     H178371   8.667   4.875   9.915
26043WAT     H278372   8.611   4.805   9.778
26044WAT      O78373   3.055   8.235   0.941
26044WAT     H178374   3.152   8.249   0.963
26044WAT     H278375   3.036   8.268   0.849
26045WAT      O78376   0.359   2.941   4.898
26045WAT     H178377   0.359   3.030   4.943
26045WAT     H278378   0.375   2.869   4.965
26046WAT      O78379   2.969   7.177   4.204
26046WAT     H178380   2.987   7.169   4.302
26046WAT     H278381   3.003   7.096   4.157
26047WAT      O78382   3.003   3.378   1.975
26047WAT     H178383   3.086   3.430   1.996
26047WAT     H278384   2.980   3.319   2.052
26048WAT      O78385   8.721   2.864   5.557
26048WAT     H178386   8.797   2.917   5.519
26048WAT     H278387   8.686   2.911   5.639
26049WAT      O78388   2.702   3.057   7.260
26049WAT     H178389   2.761   3.108   7.197
26049WAT     H278390   2.739   2.965   7.273
26050WAT      O78391   2.922   6.897   5.291
26050WAT     H178392   2.926   6.933   5.385
26050WAT     H278393   2.843   6.837   5.282
26051WAT      O78394   4.577   0.949   9.149
26051WAT     H178395   4.548   1.044   9.136
26051WAT     H278396   4.546   0.894   9.072
26052WAT      O78397   6.941   3.545   0.331
26052WAT     H178398   6.987   3.634   0.336
26052WAT     H278399   6.944   3.511   0.237
26053WAT      O78400   3.578   2.341   3.933
26053WAT     H178401   3.542   2.433   3.951
26053WAT     H278402   3.510   2.273   3.961
26054WAT      O78403   3.356   3.097   5.231
26054WAT     H178404   3.359   3.008   5.277
26054WAT     H278405   3.371   3.169   5.298
26055WAT      O78406   1.283   5.656   3.293
26055WAT     H178407   1.289   5.699   3.383
26055WAT     H278408   1.188   5.632   3.273
26056WAT      O78409   9.357   1.274   5.721
26056WAT     H178410   9.405   1.227   5.795
26056WAT     H278411   9.280   1.219   5.691
26057WAT      O78412   8.872   9.052   8.574
26057WAT     H178413   8.777   9.069   8.601
26057WAT     H278414   8.933   9.066   8.652
26058WAT      O78415   9.801   8.061   0.333
26058WAT     H178416   9.791   8.078   0.235
26058WAT     H278417   9.816   7.963   0.348
26059WAT      O78418   4.739   2.822   8.132
26059WAT     H178419   4.658   2.875   8.158
26059WAT     H278420   4.801   2.817   8.210
26060WAT      O78421   7.470   2.208   2.114
26060WAT     H178422   7.428   2.135   2.061
26060WAT     H278423   7.463   2.187   2.212
26061WAT      O78424   4.735   5.365   9.526
26061WAT     H178425   4.742   5.421   9.608
26061WAT     H278426   4.783   5.410   9.450
26062WAT      O78427   7.330   3.348   0.640
26062WAT     H178428   7.355   3.416   0.710
26062WAT     H278429   7.352   3.384   0.549
26063WAT      O78430   5.234   6.761   5.984
26063WAT     H178431   5.291   6.686   5.949
26063WAT     H278432   5.229   6.833   5.916
26064WAT      O78433   7.499   8.601   6.859
26064WAT     H178434   7.468   8.667   6.928
26064WAT     H278435   7.479   8.508   6.891
26065WAT      O78436   8.949   4.175   2.529
26065WAT     H178437   8.920   4.137   2.441
26065WAT     H278438   9.029   4.233   2.516
26066WAT      O78439   5.875   7.304   2.466
26066WAT     H178440   5.945   7.233   2.467
26066WAT     H278441   5.858   7.336   2.559
26067WAT      O78442   3.894   0.575   7.633
26067WAT     H178443   3.926   0.495   7.684
26067WAT     H278444   3.913   0.563   7.536
26068WAT      O78445   8.789   4.980   6.316
26068WAT     H178446   8.789   5.073   6.282
26068WAT     H278447   8.866   4.930   6.278
26069WAT      O78448   4.123   7.133   4.404
26069WAT     H178449   4.077   7.218   4.427
26069WAT     H278450   4.143   7.131   4.306
26070WAT      O78451   8.117   3.266   2.043
26070WAT     H178452   8.077   3.201   1.977
26070WAT     H278453   8.206   3.295   2.010
26071WAT      O78454   9.485   0.949   2.254
26071WAT     H178455   9.547   0.918   2.181
26071WAT     H278456   9.469   0.874   2.317
26072WAT      O78457   5.881   3.885   8.918
26072WAT     H178458   5.932   3.948   8.977
26072WAT     H278459   5.874   3.924   8.826
26073WAT      O78460   2.347   7.322   3.016
26073WAT     H178461   2.298   7.238   3.041
26073WAT     H278462   2.313   7.398   3.072
26074WAT      O78463   1.532   1.930   2.392
26074WAT     H178464   1.561   1.874   2.469
26074WAT     H278465   1.500   1.871   2.318
26075WAT      O78466   8.518   6.768   6.800
26075WAT     H178467   8.446   6.821   6.756
26075WAT     H278468   8.515   6.782   6.899
26076WAT      O78469   0.959   3.075   8.670
26076WAT     H178470   0.944   3.061   8.572
26076WAT     H278471   1.005   2.995   8.708
26077WAT      O78472   7.234   2.665   6.944
26077WAT     H178473   7.250   2.632   6.851
26077WAT     H278474   7.232   2.765   6.944
26078WAT      O78475   5.853   7.971   7.788
26078WAT     H178476   5.782   7.992   7.721
26078WAT     H278477   5.942   8.000   7.752
26079WAT      O78478   7.651   9.132   9.289
26079WAT     H178479   7.632   9.083   9.374
26079WAT     H278480   7.612   9.081   9.212
26080WAT      O78481   8.850   8.457   5.754
26080WAT     H178482   8.772   8.489   5.699
26080WAT     H278483   8.819   8.437   5.847
26081WAT      O78484   4.664   5.965   6.650
26081WAT     H178485   4.707   6.053   6.669
26081WAT     H278486   4.571   5.963   6.686
26082WAT      O78487   5.741   3.433   4.289
26082WAT     H178488   5.818   3.387   4.334
26082WAT     H278489   5.756   3.434   4.190
26083WAT      O78490   0.193   9.562   3.325
26083WAT     H178491   0.265   9.495   3.307
26083WAT     H278492   0.103   9.522   3.304
26084WAT      O78493   1.330   3.087   8.855
26084WAT     H178494   1.381   3.080   8.941
26084WAT     H278495   1.365   3.165   8.802
26085WAT      O78496   3.939   0.171   1.029
26085WAT     H178497   3.951   0.105   0.955
26085WAT     H278498   3.919   0.122   1.114
26086WAT      O78499   5.284   8.630   4.010
26086WAT     H178500   5.350   8.591   3.947
26086WAT     H278501   5.276   8.572   4.091
26087WAT      O78502   2.890   5.293   7.938
26087WAT     H178503   2.987   5.269   7.942
26087WAT     H278504   2.879   5.385   7.901
26088WAT      O78505   1.020   1.900   8.628
26088WAT     H178506   1.096   1.886   8.564
26088WAT     H278507   1.052   1.885   8.721
26089WAT      O78508   8.931   4.203   5.267
26089WAT     H178509   8.964   4.229   5.177
26089WAT     H278510   8.910   4.286   5.320
26090WAT      O78511   5.299   3.102   6.431
26090WAT     H178512   5.225   3.112   6.365
26090WAT     H278513   5.262   3.076   6.520
26091WAT      O78514   3.786   0.178   2.695
26091WAT     H178515   3.856   0.206   2.630
26091WAT     H278516   3.768   0.253   2.759
26092WAT      O78517   8.203   7.899   9.645
26092WAT     H178518   8.150   7.979   9.619
26092WAT     H278519   8.205   7.891   9.745
26093WAT      O78520   6.637   7.824   7.767
26093WAT     H178521   6.651   7.923   7.774
26093WAT     H278522   6.630   7.798   7.671
26094WAT      O78523   5.725   5.534   9.133
26094WAT     H178524   5.685   5.614   9.089
26094WAT     H278525   5.747   5.465   9.063
26095WAT      O78526   3.625   0.679   1.367
26095WAT     H178527   3.667   0.589   1.368
26095WAT     H278528   3.526   0.670   1.362
26096WAT      O78529   9.150   9.210   7.286
26096WAT     H178530   9.242   9.173   7.268
26096WAT     H278531   9.109   9.239   7.200
26097WAT      O78532   2.986   6.597   2.659
26097WAT     H178533   2.981   6.640   2.569
26097WAT     H278534   2.895   6.566   2.686
26098WAT      O78535   2.619   0.086   0.112
26098WAT     H178536   2.585   0.010   0.057
26098WAT     H278537   2.617   0.061   0.209
26099WAT      O78538   0.650   5.178   3.289
26099WAT     H178539   0.577   5.118   3.319
26099WAT     H278540   0.613   5.270   3.272
26100WAT      O78541   1.011   7.608   3.854
26100WAT     H178542   1.057   7.537   3.906
26100WAT     H278543   0.957   7.665   3.916
26101WAT      O78544   2.921   4.299   4.047
26101WAT     H178545   2.887   4.208   4.023
26101WAT     H278546   3.009   4.314   4.003
26102WAT      O78547   3.451   0.375   9.219
26102WAT     H178548   3.400   0.326   9.290
26102WAT     H278549   3.516   0.437   9.263
26103WAT      O78550   6.063   6.177   9.280
26103WAT     H178551   6.019   6.087   9.288
26103WAT     H278552   6.075   6.216   9.371
26104WAT      O78553   2.989   1.558   4.157
26104WAT     H178554   3.056   1.510   4.213
26104WAT     H278555   3.034   1.594   4.075
26105WAT      O78556   2.662   5.326   8.868
26105WAT     H178557   2.627   5.301   8.778
26105WAT     H278558   2.736   5.392   8.857
26106WAT      O78559   0.657   0.042   6.966
26106WAT     H178560   0.690   0.082   7.051
26106WAT     H278561   0.722   0.060   6.893
26107WAT      O78562   3.935   8.864   1.816
26107WAT     H178563   3.859   8.871   1.751
26107WAT     H278564   3.900   8.831   1.904
26108WAT      O78565   4.786   3.786   6.281
26108WAT     H178566   4.785   3.785   6.181
26108WAT     H278567   4.826   3.873   6.313
26109WAT      O78568   6.565   6.682   5.217
26109WAT     H178569   6.591   6.651   5.126
26109WAT     H278570   6.471   6.717   5.216
26110WAT      O78571   5.518   7.942   0.992
26110WAT     H178572   5.513   7.869   0.925
26110WAT     H278573   5.555   8.025   0.949
26111WAT      O78574   2.913   2.556   0.782
26111WAT     H178575   2.907   2.649   0.816
26111WAT     H278576   3.006   2.539   0.747
26112WAT      O78577   9.116   1.786   1.550
26112WAT     H178578   9.083   1.829   1.466
26112WAT     H278579   9.048   1.723   1.585
26113WAT      O78580   2.651   7.612   6.575
26113WAT     H178581   2.738   7.626   6.625
26113WAT     H278582   2.593   7.692   6.589
26114WAT      O78583   9.645   6.707   4.183
26114WAT     H178584   9.740   6.687   4.162
26114WAT     H278585   9.605   6.631   4.233
26115WAT      O78586   8.329   4.810   5.005
26115WAT     H178587   8.403   4.864   5.045
26115WAT     H278588   8.366   4.729   4.961
26116WAT      O78589   7.217   0.990   4.494
26116WAT     H178590   7.270   1.074   4.484
26116WAT     H278591   7.153   0.981   4.418
26117WAT      O78592   3.349   8.118   1.417
26117WAT     H178593   3.258   8.155   1.398
26117WAT     H278594   3.410   8.192   1.446
26118WAT      O78595   4.821   6.221   3.424
26118WAT     H178596   4.757   6.191   3.495
26118WAT     H278597   4.911   6.182   3.444
26119WAT      O78598   9.538   2.674   4.385
26119WAT     H178599   9.632   2.700   4.408
26119WAT     H278600   9.509   2.598   4.444
26120WAT      O78601   8.315   2.744   4.314
26120WAT     H178602   8.404   2.718   4.353
26120WAT     H278603   8.245   2.680   4.348
26121WAT      O78604   8.002   6.830   1.365
26121WAT     H178605   8.094   6.831   1.404
26121WAT     H278606   7.999   6.765   1.289
26122WAT      O78607   4.549   5.124   0.425
26122WAT     H178608   4.504   5.052   0.478
26122WAT     H278609   4.562   5.204   0.483
26123WAT      O78610   0.416   7.017   5.823
26123WAT     H178611   0.450   7.106   5.855
26123WAT     H278612   0.319   7.009   5.846
26124WAT      O78613   0.611   7.580   2.618
26124WAT     H178614   0.623   7.549   2.712
26124WAT     H278615   0.668   7.659   2.601
26125WAT      O78616   6.456   7.211   6.138
26125WAT     H178617   6.404   7.243   6.216
26125WAT     H278618   6.394   7.177   6.067
26126WAT      O78619   1.588   7.343   6.177
26126WAT     H178620   1.556   7.305   6.090
26126WAT     H278621   1.609   7.269   6.241
26127WAT      O78622   3.700   5.275   6.587
26127WAT     H178623   3.632   5.331   6.634
26127WAT     H278624   3.778   5.332   6.563
26128WAT      O78625   7.499   6.352   2.345
26128WAT     H178626   7.476   6.257   2.327
26128WAT     H278627   7.530   6.395   2.260
26129WAT      O78628   8.219   3.236   4.217
26129WAT     H178629   8.218   3.145   4.258
26129WAT     H278630   8.127   3.259   4.185
26130WAT      O78631   4.965   0.551   7.555
26130WAT     H178632   4.923   0.491   7.623
26130WAT     H278633   5.062   0.527   7.545
26131WAT      O78634   9.379   1.023   7.227
26131WAT     H178635   9.410   0.929   7.214
26131WAT     H278636   9.446   1.074   7.281
26132WAT      O78637   9.390   5.131   5.305
26132WAT     H178638   9.347   5.065   5.366
26132WAT     H278639   9.396   5.220   5.351
26133WAT      O78640   1.741   5.364   1.008
26133WAT     H178641   1.667   5.386   0.944
26133WAT     H278642   1.783   5.277   0.982
26134WAT      O78643   4.432   3.321   5.084
26134WAT     H178644   4.343   3.285   5.110
26134WAT     H278645   4.504   3.267   5.128
26135WAT      O78646   2.374   4.215   2.329
26135WAT     H178647   2.340   4.162   2.252
26135WAT     H278648   2.436   4.158   2.384
26136WAT      O78649   5.784   6.274   5.266
26136WAT     H178650   5.750   6.295   5.358
26136WAT     H278651   5.827   6.183   5.267
26137WAT      O78652   6.550   5.409   2.782
26137WAT     H178653   6.480   5.444   2.845
26137WAT     H278654   6.515   5.328   2.735
26138WAT      O78655   0.102   0.182   3.180
26138WAT     H178656   0.047   0.224   3.252
26138WAT     H278657   0.052   0.183   3.093
26139WAT      O78658   4.793   6.873   2.093
26139WAT     H178659   4.704   6.918   2.097
26139WAT     H278660   4.792   6.792   2.151
26140WAT      O78661   0.394   7.646   0.190
26140WAT     H178662   0.477   7.663   0.243
26140WAT     H278663   0.314   7.670   0.246
26141WAT      O78664   0.893   1.950   9.869
26141WAT     H178665   0.810   1.968   9.921
26141WAT     H278666   0.924   2.035   9.826
26142WAT      O78667   2.288   4.188   1.295
26142WAT     H178668   2.189   4.199   1.284
26142WAT     H278669   2.323   4.132   1.220
26143WAT      O78670   0.218   8.156   3.380
26143WAT     H178671   0.317   8.155   3.375
26143WAT     H278672   0.188   8.112   3.465
26144WAT      O78673   5.984   7.723   7.432
26144WAT     H178674   5.927   7.673   7.498
26144WAT     H278675   6.080   7.713   7.456
26145WAT      O78676   0.864   8.495   7.983
26145WAT     H178677   0.884   8.546   8.066
26145WAT     H278678   0.765   8.485   7.973
26146WAT      O78679   3.983   3.023   7.302
26146WAT     H178680   3.908   2.957   7.307
26146WAT     H278681   4.040   3.015   7.383
26147WAT      O78682   0.131   4.379   1.770
26147WAT     H178683   0.215   4.418   1.808
26147WAT     H278684   0.153   4.302   1.710
26148WAT      O78685   1.041   1.303   0.016
26148WAT     H178686   1.044   1.402   0.027
26148WAT     H278687   1.106   1.275  -0.055
26149WAT      O78688   1.424   8.102   4.643
26149WAT     H178689   1.503   8.138   4.594
26149WAT     H278690   1.342   8.153   4.615
26150WAT      O78691   4.431   3.973   2.698
26150WAT     H178692   4.459   4.022   2.780
26150WAT     H278693   4.511   3.955   2.641
26151WAT      O78694   2.132   0.251   1.907
26151WAT     H178695   2.131   0.344   1.870
26151WAT     H278696   2.223   0.211   1.893
26152WAT      O78697   3.466   7.303   1.510
26152WAT     H178698   3.421   7.229   1.459
26152WAT     H278699   3.522   7.357   1.447
26153WAT      O78700   6.247   4.104   2.393
26153WAT     H178701   6.294   4.152   2.467
26153WAT     H278702   6.220   4.013   2.425
26154WAT      O78703   9.244   7.628   1.463
26154WAT     H178704   9.168   7.570   1.434
26154WAT     H278705   9.214   7.689   1.537
26155WAT      O78706   3.162   7.023   8.389
26155WAT     H178707   3.260   7.039   8.397
26155WAT     H278708   3.121   7.094   8.332
26156WAT      O78709   1.088   5.892   5.129
26156WAT     H178710   1.158   5.962   5.132
26156WAT     H278711   1.107   5.828   5.054
26157WAT      O78712   2.244   1.093   4.539
26157WAT     H178713   2.273   1.174   4.489
26157WAT     H278714   2.296   1.086   4.625
26158WAT      O78715   6.000   4.194   2.430
26158WAT     H178716   6.090   4.151   2.419
26158WAT     H278717   6.007   4.292   2.411
26159WAT      O78718   8.610   1.511   2.147
26159WAT     H178719   8.553   1.592   2.160
26159WAT     H278720   8.582   1.464   2.063
26160WAT      O78721   1.819   7.610   7.233
26160WAT     H178722   1.890   7.647   7.293
26160WAT     H278723   1.739   7.586   7.287
26161WAT      O78724   6.670   8.748   2.852
26161WAT     H178725   6.624   8.797   2.778
26161WAT     H278726   6.769   8.748   2.836
26162WAT      O78727   2.025   3.860   2.604
26162WAT     H178728   2.108   3.888   2.652
26162WAT     H278729   1.969   3.804   2.664
26163WAT      O78730   8.464   0.485   3.799
26163WAT     H178731   8.448   0.410   3.863
26163WAT     H278732   8.561   0.511   3.800
26164WAT      O78733   5.275   7.253   6.982
26164WAT     H178734   5.248   7.235   7.076
26164WAT     H278735   5.223   7.194   6.920
26165WAT      O78736   1.716   0.131   5.935
26165WAT     H178737   1.750   0.201   5.997
26165WAT     H278738   1.617   0.123   5.945
26166WAT      O78739   1.660   2.261   7.627
26166WAT     H178740   1.567   2.251   7.663
26166WAT     H278741   1.720   2.297   7.698
26167WAT      O78742   7.772   8.647   0.284
26167WAT     H178743   7.695   8.670   0.344
26167WAT     H278744   7.839   8.593   0.335
26168WAT      O78745   4.200   5.618   6.998
26168WAT     H178746   4.275   5.559   6.968
26168WAT     H278747   4.140   5.567   7.060
26169WAT      O78748   0.035   7.836   0.923
26169WAT     H178749   0.071   7.826   0.830
26169WAT     H278750   0.071   7.763   0.980
26170WAT      O78751   1.586   9.238   8.934
26170WAT     H178752   1.629   9.163   8.985
26170WAT     H278753   1.628   9.325   8.962
26171WAT      O78754   6.154   4.097   2.161
26171WAT     H178755   6.178   4.120   2.255
26171WAT     H278756   6.231   4.049   2.118
26172WAT      O78757   8.499   8.137   7.917
26172WAT     H178758   8.458   8.145   7.827
26172WAT     H278759   8.442   8.077   7.974
26173WAT      O78760   7.245   8.731   5.630
26173WAT     H178761   7.312   8.738   5.556
26173WAT     H278762   7.291   8.702   5.714
26174WAT      O78763   8.220   4.113   3.009
26174WAT     H178764   8.219   4.122   3.108
26174WAT     H278765   8.233   4.203   2.967
26175WAT      O78766   8.190   1.552   4.730
26175WAT     H178767   8.253   1.628   4.748
26175WAT     H278768   8.157   1.558   4.636
26176WAT      O78769   2.887   2.799   6.571
26176WAT     H178770   2.905   2.707   6.534
26176WAT     H278771   2.973   2.851   6.572
26177WAT      O78772   1.257   7.919   1.080
26177WAT     H178773   1.327   7.967   1.028
26177WAT     H278774   1.190   7.984   1.115
26178WAT      O78775   0.222   8.824   4.215
26178WAT     H178776   0.188   8.767   4.289
26178WAT     H278777   0.280   8.896   4.253
26179WAT      O78778   7.439   7.645   9.639
26179WAT     H178779   7.410   7.582   9.567
26179WAT     H278780   7.389   7.731   9.630
26180WAT      O78781   4.844   8.103   5.814
26180WAT     H178782   4.785   8.087   5.893
26180WAT     H278783   4.792   8.087   5.730
26181WAT      O78784   6.712   3.985   7.636
26181WAT     H178785   6.666   3.957   7.552
26181WAT     H278786   6.662   4.060   7.679
26182WAT      O78787   0.942   2.450   2.288
26182WAT     H178788   0.994   2.487   2.365
26182WAT     H278789   0.975   2.358   2.267
26183WAT      O78790   4.518   6.138   3.947
26183WAT     H178791   4.592   6.193   3.909
26183WAT     H278792   4.547   6.042   3.953
26184WAT      O78793   4.430   5.495   9.151
26184WAT     H178794   4.338   5.491   9.112
26184WAT     H278795   4.492   5.540   9.087
26185WAT      O78796   4.545   6.462   3.685
26185WAT     H178797   4.509   6.433   3.774
26185WAT     H278798   4.610   6.537   3.699
26186WAT      O78799   8.741   8.316   2.245
26186WAT     H178800   8.720   8.349   2.153
26186WAT     H278801   8.757   8.394   2.306
26187WAT      O78802   4.120   4.012   7.289
26187WAT     H178803   4.065   4.050   7.215
26187WAT     H278804   4.149   3.919   7.264
26188WAT      O78805   3.153   4.189   6.755
26188WAT     H178806   3.083   4.260   6.748
26188WAT     H278807   3.204   4.200   6.840
26189WAT      O78808   7.693   3.573   2.213
26189WAT     H178809   7.596   3.552   2.227
26189WAT     H278810   7.729   3.617   2.295
26190WAT      O78811   0.729   6.623   9.550
26190WAT     H178812   0.751   6.558   9.478
26190WAT     H278813   0.678   6.576   9.622
26191WAT      O78814   2.808   7.002   2.929
26191WAT     H178815   2.792   7.099   2.947
26191WAT     H278816   2.906   6.983   2.930
26192WAT      O78817   0.331   6.618   0.903
26192WAT     H178818   0.262   6.563   0.949
26192WAT     H278819   0.393   6.658   0.970
26193WAT      O78820   1.918   4.290   4.714
26193WAT     H178821   1.924   4.191   4.706
26193WAT     H278822   1.962   4.332   4.635
26194WAT      O78823   2.028   6.579   0.317
26194WAT     H178824   1.970   6.653   0.351
26194WAT     H278825   2.065   6.527   0.395
26195WAT      O78826   7.949   7.719   5.839
26195WAT     H178827   7.987   7.751   5.752
26195WAT     H278828   8.004   7.644   5.875
26196WAT      O78829   9.793   6.620   6.829
26196WAT     H178830   9.848   6.541   6.858
26196WAT     H278831   9.834   6.661   6.748
26197WAT      O78832   6.384   5.649   5.176
26197WAT     H178833   6.470   5.697   5.159
26197WAT     H278834   6.375   5.572   5.112
26198WAT      O78835   6.800   0.431   6.719
26198WAT     H178836   6.794   0.376   6.636
26198WAT     H278837   6.720   0.414   6.777
26199WAT      O78838   0.519   8.136   6.541
26199WAT     H178839   0.529   8.038   6.557
26199WAT     H278840   0.428   8.154   6.502
26200WAT      O78841   6.353   3.078   2.599
26200WAT     H178842   6.418   3.154   2.603
26200WAT     H278843   6.277   3.103   2.540
26201WAT      O78844   0.707   3.546   5.982
26201WAT     H178845   0.690   3.589   5.893
26201WAT     H278846   0.723   3.448   5.970
26202WAT      O78847   1.939   8.401   6.792
26202WAT     H178848   1.902   8.490   6.767
26202WAT     H278849   1.988   8.407   6.878
26203WAT      O78850   2.207   2.997   4.905
26203WAT     H178851   2.237   2.954   4.820
26203WAT     H278852   2.242   3.091   4.909
26204WAT      O78853   5.762   6.184   1.662
26204WAT     H178854   5.782   6.282   1.655
26204WAT     H278855   5.813   6.145   1.738
26205WAT      O78856   7.184   1.482   3.746
26205WAT     H178857   7.205   1.484   3.844
26205WAT     H278858   7.245   1.546   3.698
26206WAT      O78859   0.706   1.930   5.845
26206WAT     H178860   0.761   1.964   5.769
26206WAT     H278861   0.760   1.931   5.929
26207WAT      O78862   1.621   7.466   0.749
26207WAT     H178863   1.699   7.504   0.798
26207WAT     H278864   1.651   7.432   0.660
26208WAT      O78865   5.885   7.906   4.936
26208WAT     H178866   5.944   7.842   4.986
26208WAT     H278867   5.816   7.944   4.999
26209WAT      O78868   5.289   8.818   6.443
26209WAT     H178869   5.226   8.881   6.397
26209WAT     H278870   5.246   8.782   6.525
26210WAT      O78871   3.625   8.341   7.056
26210WAT     H178872   3.632   8.243   7.072
26210WAT     H278873   3.578   8.358   6.969
26211WAT      O78874   0.338   8.784   1.522
26211WAT     H178875   0.304   8.764   1.430
26211WAT     H278876   0.434   8.813   1.516
26212WAT      O78877   9.583   7.103   0.447
26212WAT     H178878   9.580   7.082   0.545
26212WAT     H278879   9.560   7.020   0.395
26213WAT      O78880   7.778   6.877   2.263
26213WAT     H178881   7.753   6.974   2.259
26213WAT     H278882   7.712   6.824   2.210
26214WAT      O78883   9.179   6.043   6.353
26214WAT     H178884   9.243   5.967   6.362
26214WAT     H278885   9.086   6.011   6.371
26215WAT      O78886   2.645   9.534   2.877
26215WAT     H178887   2.695   9.450   2.895
26215WAT     H278888   2.647   9.593   2.958
26216WAT      O78889   7.733   2.035   4.322
26216WAT     H178890   7.731   2.116   4.380
26216WAT     H278891   7.654   2.036   4.261
26217WAT      O78892   3.228   8.827   1.880
26217WAT     H178893   3.284   8.786   1.952
26217WAT     H278894   3.194   8.915   1.910
26218WAT      O78895   8.060   4.950   5.850
26218WAT     H178896   8.004   5.025   5.815
26218WAT     H278897   8.054   4.948   5.950
26219WAT      O78898   8.830   3.607   7.072
26219WAT     H178899   8.831   3.510   7.096
26219WAT     H278900   8.889   3.658   7.135
26220WAT      O78901   4.155   0.305   9.357
26220WAT     H178902   4.059   0.330   9.346
26220WAT     H278903   4.212   0.388   9.356
26221WAT      O78904   3.240   6.238   8.652
26221WAT     H178905   3.256   6.337   8.648
26221WAT     H278906   3.323   6.190   8.622
26222WAT      O78907   9.039   9.227   9.013
26222WAT     H178908   9.061   9.171   8.933
26222WAT     H278909   8.988   9.308   8.985
26223WAT      O78910   4.586   1.390   1.613
26223WAT     H178911   4.652   1.368   1.542
26223WAT     H278912   4.567   1.308   1.668
26224WAT      O78913   2.502   3.217   9.512
26224WAT     H178914   2.490   3.170   9.425
26224WAT     H278915   2.600   3.226   9.532
26225WAT      O78916   0.798   9.805   5.741
26225WAT     H178917   0.761   9.869   5.673
26225WAT     H278918   0.738   9.725   5.747
26226WAT      O78919   5.296   0.276   3.001
26226WAT     H178920   5.254   0.357   2.960
26226WAT     H278921   5.248   0.254   3.086
26227WAT      O78922   1.650   2.561   9.503
26227WAT     H178923   1.704   2.644   9.516
26227WAT     H278924   1.553   2.585   9.498
26228WAT      O78925   7.885   2.763   4.576
26228WAT     H178926   7.901   2.734   4.482
26228WAT     H278927   7.786   2.765   4.594
26229WAT      O78928   1.588   2.131   3.375
26229WAT     H178929   1.527   2.062   3.335
26229WAT     H278930   1.536   2.190   3.436
26230WAT      O78931   2.723   8.537   8.994
26230WAT     H178932   2.666   8.600   8.943
26230WAT     H278933   2.712   8.555   9.092
26231WAT      O78934   1.690   5.997   4.344
26231WAT     H178935   1.626   6.068   4.375
26231WAT     H278936   1.768   6.041   4.298
26232WAT      O78937   3.296   1.181   8.891
26232WAT     H178938   3.320   1.277   8.898
26232WAT     H278939   3.362   1.126   8.941
26233WAT      O78940   6.760   7.106   6.852
26233WAT     H178941   6.745   7.106   6.754
26233WAT     H278942   6.694   7.046   6.897
26234WAT      O78943   6.488   1.587   3.676
26234WAT     H178944   6.552   1.514   3.649
26234WAT     H278945   6.483   1.655   3.603
26235WAT      O78946   2.542   0.125   7.041
26235WAT     H178947   2.520   0.028   7.032
26235WAT     H278948   2.630   0.144   6.997
26236WAT      O78949   5.647   3.265   5.002
26236WAT     H178950   5.607   3.234   4.916
26236WAT     H278951   5.583   3.248   5.076
26237WAT      O78952   2.313   4.758   8.803
26237WAT     H178953   2.284   4.727   8.894
26237WAT     H278954   2.398   4.712   8.778
26238WAT      O78955   0.349   1.325   0.188
26238WAT     H178956   0.391   1.237   0.166
26238WAT     H278957   0.410   1.399   0.160
26239WAT      O78958   2.667   7.558   3.264
26239WAT     H178959   2.602   7.522   3.331
26239WAT     H278960   2.756   7.570   3.307
26240WAT      O78961   4.754   2.887   6.365
26240WAT     H178962   4.748   2.825   6.443
26240WAT     H278963   4.771   2.980   6.397
26241WAT      O78964   8.195   3.212   1.587
26241WAT     H178965   8.292   3.213   1.611
26241WAT     H278966   8.170   3.297   1.542
26242WAT      O78967   5.375   3.432   3.498
26242WAT     H178968   5.417   3.342   3.512
26242WAT     H278969   5.382   3.485   3.583
26243WAT      O78970   9.273   5.347   6.989
26243WAT     H178971   9.367   5.322   7.011
26243WAT     H278972   9.221   5.264   6.967
26244WAT      O78973   9.555   7.464   7.578
26244WAT     H178974   9.542   7.514   7.493
26244WAT     H278975   9.466   7.442   7.617
26245WAT      O78976   7.446   9.223   2.838
26245WAT     H178977   7.370   9.282   2.866
26245WAT     H278978   7.467   9.241   2.742
26246WAT      O78979   2.060   9.655   7.384
26246WAT     H178980   2.098   9.599   7.310
26246WAT     H278981   1.976   9.700   7.352
26247WAT      O78982   8.429   5.650   9.804
26247WAT     H178983   8.459   5.724   9.742
26247WAT     H278984   8.503   5.629   9.868
26248WAT      O78985   1.345   8.685   8.229
26248WAT     H178986   1.416   8.672   8.298
26248WAT     H278987   1.275   8.615   8.240
26249WAT      O78988   6.649   9.111   6.127
26249WAT     H178989   6.576   9.162   6.081
26249WAT     H278990   6.639   9.013   6.108
26250WAT      O78991   6.189   7.376   8.692
26250WAT     H178992   6.170   7.473   8.677
26250WAT     H278993   6.240   7.340   8.615
26251WAT      O78994   6.650   3.044   0.701
26251WAT     H178995   6.669   3.131   0.656
26251WAT     H278996   6.608   3.060   0.790
26252WAT      O78997   4.474   6.190   5.399
26252WAT     H178998   4.419   6.243   5.334
26252WAT     H278999   4.485   6.241   5.484
26253WAT      O79000   7.824   7.091   2.878
26253WAT     H179001   7.771   7.073   2.961
26253WAT     H279002   7.910   7.040   2.881
26254WAT      O79003   0.910   0.413   2.675
26254WAT     H179004   0.968   0.442   2.600
26254WAT     H279005   0.848   0.487   2.700
26255WAT      O79006   3.649   7.970   6.628
26255WAT     H179007   3.549   7.968   6.631
26255WAT     H279008   3.679   8.014   6.543
26256WAT      O79009   7.114   4.011   9.620
26256WAT     H179010   7.081   3.927   9.577
26256WAT     H279011   7.160   4.067   9.552
26257WAT      O79012   8.194   0.363   9.011
26257WAT     H179013   8.290   0.347   8.991
26257WAT     H279014   8.151   0.276   9.038
26258WAT      O79015   4.394   3.607   5.052
26258WAT     H179016   4.457   3.640   4.982
26258WAT     H279017   4.403   3.507   5.061
26259WAT      O79018   9.004   3.343   8.033
26259WAT     H179019   8.949   3.268   7.995
26259WAT     H279020   9.052   3.310   8.114
26260WAT      O79021   4.249   8.210   3.635
26260WAT     H179022   4.163   8.218   3.685
26260WAT     H279023   4.305   8.291   3.651
26261WAT      O79024   4.392   5.006   2.041
26261WAT     H179025   4.482   5.024   2.001
26261WAT     H279026   4.394   5.028   2.139
26262WAT      O79027   5.431   3.428   4.727
26262WAT     H179028   5.371   3.489   4.778
26262WAT     H279029   5.501   3.482   4.680
26263WAT      O79030   6.283   7.247   8.928
26263WAT     H179031   6.277   7.319   8.859
26263WAT     H279032   6.198   7.194   8.926
26264WAT      O79033   5.188   2.391   0.013
26264WAT     H179034   5.245   2.448  -0.047
26264WAT     H279035   5.145   2.448   0.083
26265WAT      O79036   8.284   7.910   5.300
26265WAT     H179037   8.195   7.954   5.309
26265WAT     H279038   8.307   7.900   5.203
26266WAT      O79039   6.448   6.565   9.716
26266WAT     H179040   6.491   6.556   9.626
26266WAT     H279041   6.402   6.653   9.722
26267WAT      O79042   5.965   0.752   0.827
26267WAT     H179043   6.006   0.798   0.749
26267WAT     H279044   6.021   0.769   0.909
26268WAT      O79045   4.522   1.299   7.987
26268WAT     H179046   4.491   1.296   7.892
26268WAT     H279047   4.613   1.257   7.993
26269WAT      O79048   5.062   4.300   5.905
26269WAT     H179049   5.061   4.312   6.005
26269WAT     H279050   5.088   4.387   5.862
26270WAT      O79051   0.955   1.045   4.144
26270WAT     H179052   1.053   1.025   4.131
26270WAT     H279053   0.938   1.066   4.240
26271WAT      O79054   9.802   2.968   8.971
26271WAT     H179055   9.818   3.018   8.886
26271WAT     H279056   9.875   2.901   8.984
26272WAT      O79057   8.086   3.921   8.675
26272WAT     H179058   8.053   4.014   8.693
26272WAT     H279059   8.009   3.862   8.655
26273WAT      O79060   0.885   2.171   1.066
26273WAT     H179061   0.842   2.239   1.007
26273WAT     H279062   0.825   2.091   1.074
26274WAT      O79063   1.543   5.493   2.346
26274WAT     H179064   1.642   5.498   2.343
26274WAT     H279065   1.515   5.440   2.426
26275WAT      O79066   3.570   6.971   5.760
26275WAT     H179067   3.628   7.042   5.719
26275WAT     H279068   3.519   7.011   5.837
26276WAT      O79069   1.510   8.154   4.231
26276WAT     H179070   1.460   8.075   4.267
26276WAT     H279071   1.570   8.191   4.302
26277WAT      O79072   9.878   9.641   3.789
26277WAT     H179073   9.948   9.623   3.720
26277WAT     H279074   9.908   9.604   3.877
26278WAT      O79075   3.251   2.378   8.735
26278WAT     H179076   3.229   2.297   8.680
26278WAT     H279077   3.167   2.419   8.769
26279WAT      O79078   5.397   7.525   9.828
26279WAT     H179079   5.391   7.624   9.837
26279WAT     H279080   5.319   7.492   9.775
26280WAT      O79081   3.905   8.867   8.046
26280WAT     H179082   3.967   8.928   7.998
26280WAT     H279083   3.810   8.890   8.023
26281WAT      O79084   1.693   3.729   4.526
26281WAT     H179085   1.698   3.787   4.445
26281WAT     H279086   1.740   3.643   4.508
26282WAT      O79087   6.795   6.170   5.969
26282WAT     H179088   6.752   6.260   5.963
26282WAT     H279089   6.894   6.179   5.966
26283WAT      O79090   4.568   4.035   7.207
26283WAT     H179091   4.530   4.088   7.284
26283WAT     H279092   4.601   4.097   7.137
26284WAT      O79093   6.802   8.997   0.754
26284WAT     H179094   6.833   9.025   0.663
26284WAT     H279095   6.714   9.040   0.774
26285WAT      O79096   0.154   1.539   2.811
26285WAT     H179097   0.241   1.562   2.855
26285WAT     H279098   0.080   1.542   2.880
26286WAT      O79099   0.486   6.797   5.187
26286WAT     H179100   0.564   6.763   5.135
26286WAT     H279101   0.427   6.851   5.127
26287WAT      O79102   4.110   1.442   7.018
26287WAT     H179103   4.118   1.459   7.116
26287WAT     H279104   4.043   1.369   7.003
26288WAT      O79105   0.296   3.632   3.079
26288WAT     H179106   0.214   3.591   3.118
26288WAT     H279107   0.371   3.627   3.145
26289WAT      O79108   5.399   8.172   7.007
26289WAT     H179109   5.498   8.190   7.003
26289WAT     H279110   5.362   8.212   7.091
26290WAT      O79111   0.263   7.409   0.151
26290WAT     H179112   0.278   7.381   0.056
26290WAT     H279113   0.315   7.493   0.169
26291WAT      O79114   2.792   3.000   5.453
26291WAT     H179115   2.821   3.014   5.548
26291WAT     H279116   2.748   3.083   5.419
26292WAT      O79117   5.807   5.764   5.210
26292WAT     H179118   5.891   5.710   5.213
26292WAT     H279119   5.728   5.702   5.212
26293WAT      O79120   7.819   4.248   0.374
26293WAT     H179121   7.783   4.342   0.379
26293WAT     H279122   7.792   4.207   0.287
26294WAT      O79123   6.096   0.132   1.729
26294WAT     H179124   6.106   0.053   1.789
26294WAT     H279125   6.067   0.211   1.783
26295WAT      O79126   4.433   7.471   7.566
26295WAT     H179127   4.416   7.564   7.535
26295WAT     H279128   4.526   7.466   7.605
26296WAT      O79129   3.107   6.755   5.949
26296WAT     H179130   3.051   6.797   5.878
26296WAT     H279131   3.190   6.718   5.907
26297WAT      O79132   4.981   6.643   8.487
26297WAT     H179133   4.930   6.723   8.518
26297WAT     H279134   4.927   6.560   8.506
26298WAT      O79135   3.141   3.110   9.444
26298WAT     H179136   3.125   3.124   9.346
26298WAT     H279137   3.239   3.100   9.461
26299WAT      O79138   6.285   7.520   4.736
26299WAT     H179139   6.256   7.538   4.642
26299WAT     H279140   6.206   7.527   4.797
26300WAT      O79141   1.176   1.913   3.415
26300WAT     H179142   1.232   1.965   3.479
26300WAT     H279143   1.081   1.942   3.421
26301WAT      O79144   3.634   8.054   2.577
26301WAT     H179145   3.607   8.150   2.588
26301WAT     H279146   3.630   8.029   2.480
26302WAT      O79147   0.765   9.634   9.559
26302WAT     H179148   0.673   9.672   9.554
26302WAT     H279149   0.762   9.546   9.607
26303WAT      O79150   6.642   6.794   3.379
26303WAT     H179151   6.656   6.779   3.281
26303WAT     H279152   6.604   6.711   3.421
26304WAT      O79153   1.568   2.648   5.170
26304WAT     H179154   1.643   2.625   5.108
26304WAT     H279155   1.559   2.577   5.239
26305WAT      O79156   2.426   4.242   9.876
26305WAT     H179157   2.358   4.306   9.913
26305WAT     H279158   2.409   4.227   9.779
26306WAT      O79159   3.957   1.373   4.642
26306WAT     H179160   3.875   1.400   4.693
26306WAT     H279161   4.003   1.455   4.608
26307WAT      O79162   0.510   0.248   0.392
26307WAT     H179163   0.426   0.194   0.404
26307WAT     H279164   0.499   0.310   0.314
26308WAT      O79165   8.308   3.636   5.245
26308WAT     H179166   8.286   3.610   5.339
26308WAT     H279167   8.224   3.639   5.191
26309WAT      O79168   3.885   1.250   1.208
26309WAT     H179169   3.929   1.160   1.207
26309WAT     H279170   3.791   1.241   1.176
26310WAT      O79171   6.476   9.416   2.480
26310WAT     H179172   6.507   9.373   2.395
26310WAT     H279173   6.458   9.513   2.464
26311WAT      O79174   4.915   7.081   0.523
26311WAT     H179175   4.841   7.144   0.500
26311WAT     H279176   4.979   7.125   0.586
26312WAT      O79177   7.646   2.993   3.647
26312WAT     H179178   7.586   2.987   3.727
26312WAT     H279179   7.636   3.083   3.605
26313WAT      O79180   2.751   9.094   2.067
26313WAT     H179181   2.828   9.146   2.104
26313WAT     H279182   2.671   9.154   2.059
26314WAT      O79183   7.665   8.178   7.517
26314WAT     H179184   7.656   8.150   7.422
26314WAT     H279185   7.688   8.098   7.573
26315WAT      O79186   7.701   3.567   8.590
26315WAT     H179187   7.645   3.522   8.659
26315WAT     H279188   7.742   3.498   8.530
26316WAT      O79189   5.210   8.255   6.480
26316WAT     H179190   5.223   8.345   6.523
26316WAT     H279191   5.294   8.202   6.488
26317WAT      O79192   3.967   7.753   4.292
26317WAT     H179193   3.995   7.730   4.199
26317WAT     H279194   4.047   7.775   4.347
26318WAT      O79195   1.812   0.754   0.936
26318WAT     H179196   1.881   0.701   0.888
26318WAT     H279197   1.730   0.698   0.949
26319WAT      O79198   3.943   8.193   6.831
26319WAT     H179199   3.940   8.198   6.930
26319WAT     H279200   3.993   8.272   6.795
26320WAT      O79201   3.715   2.008   7.793
26320WAT     H179202   3.703   1.917   7.832
26320WAT     H279203   3.739   2.000   7.696
26321WAT      O79204   5.644   0.301   4.106
26321WAT     H179205   5.714   0.316   4.037
26321WAT     H279206   5.686   0.295   4.196
26322WAT      O79207   1.593   7.528   1.024
26322WAT     H179208   1.668   7.463   1.033
26322WAT     H279209   1.512   7.480   0.991
26323WAT      O79210   0.088   3.426   1.058
26323WAT     H179211  -0.007   3.399   1.069
26323WAT     H279212   0.139   3.352   1.014
26324WAT      O79213   8.005   6.669   7.042
26324WAT     H179214   7.949   6.750   7.056
26324WAT     H279215   8.062   6.681   6.961
26325WAT      O79216   9.305   1.867   6.123
26325WAT     H179217   9.373   1.854   6.195
26325WAT     H279218   9.281   1.779   6.083
26326WAT      O79219   2.293   2.741   1.420
26326WAT     H179220   2.329   2.654   1.453
26326WAT     H279221   2.345   2.771   1.340
26327WAT      O79222   1.413   6.188   6.326
26327WAT     H179223   1.348   6.182   6.250
26327WAT     H279224   1.363   6.184   6.413
26328WAT      O79225   8.614   9.144   8.646
26328WAT     H179226   8.593   9.095   8.731
26328WAT     H279227   8.554   9.110   8.573
26329WAT      O79228   8.966   5.617   9.507
26329WAT     H179229   8.995   5.529   9.470
26329WAT     H279230   8.945   5.679   9.432
26330WAT      O79231   7.753   6.382   5.576
26330WAT     H179232   7.681   6.400   5.509
26330WAT     H279233   7.742   6.444   5.654
26331WAT      O79234   6.448   5.184   9.592
26331WAT     H179235   6.429   5.259   9.528
26331WAT     H279236   6.514   5.214   9.661
26332WAT      O79237   1.034   6.797   1.942
26332WAT     H179238   0.985   6.842   2.016
26332WAT     H279239   0.980   6.802   1.858
26333WAT      O79240   5.263   8.575   1.994
26333WAT     H179241   5.196   8.615   1.932
26333WAT     H279242   5.216   8.518   2.062
26334WAT      O79243   5.749   9.686   7.124
26334WAT     H179244   5.741   9.778   7.086
26334WAT     H279245   5.812   9.688   7.202
26335WAT      O79246   9.405   9.132   1.161
26335WAT     H179247   9.486   9.129   1.219
26335WAT     H279248   9.324   9.148   1.217
26336WAT      O79249   9.816   7.032   5.199
26336WAT     H179250   9.741   7.005   5.260
26336WAT     H279251   9.896   6.975   5.218
26337WAT      O79252   3.696   2.147   3.677
26337WAT     H179253   3.644   2.116   3.757
26337WAT     H279254   3.725   2.241   3.691
26338WAT      O79255   0.244   9.781   9.199
26338WAT     H179256   0.270   9.746   9.109
26338WAT     H279257   0.243   9.881   9.197
26339WAT      O79258   6.219   3.239   1.699
26339WAT     H179259   6.202   3.326   1.746
26339WAT     H279260   6.212   3.165   1.765
26340WAT      O79261   1.155   0.192   5.415
26340WAT     H179262   1.117   0.100   5.410
26340WAT     H279263   1.237   0.192   5.473
26341WAT      O79264   5.677   0.879   2.545
26341WAT     H179265   5.601   0.902   2.605
26341WAT     H279266   5.755   0.937   2.566
26342WAT      O79267   3.866   9.672   9.080
26342WAT     H179268   3.877   9.574   9.062
26342WAT     H279269   3.805   9.685   9.157
26343WAT      O79270   2.465   4.645   0.645
26343WAT     H179271   2.405   4.584   0.593
26343WAT     H279272   2.486   4.726   0.589
26344WAT      O79273   9.524   7.619   0.849
26344WAT     H179274   9.442   7.617   0.793
26344WAT     H279275   9.580   7.697   0.823
26345WAT      O79276   0.744   8.097   5.140
26345WAT     H179277   0.651   8.104   5.176
26345WAT     H279278   0.763   8.175   5.081
26346WAT      O79279   9.240   8.438   4.264
26346WAT     H179280   9.300   8.483   4.197
26346WAT     H279281   9.296   8.391   4.332
26347WAT      O79282   5.888   4.996   8.198
26347WAT     H179283   5.852   5.072   8.252
26347WAT     H279284   5.816   4.929   8.183
26348WAT      O79285   5.521   6.675   1.234
26348WAT     H179286   5.428   6.654   1.265
26348WAT     H279287   5.557   6.598   1.181
26349WAT      O79288   4.815   7.490   2.438
26349WAT     H179289   4.868   7.545   2.503
26349WAT     H279290   4.817   7.534   2.348
26350WAT      O79291   6.019   1.445   7.759
26350WAT     H179292   5.960   1.476   7.834
26350WAT     H279293   6.104   1.497   7.760
26351WAT      O79294   2.917   9.127   1.843
26351WAT     H179295   2.902   9.072   1.761
26351WAT     H279296   2.844   9.107   1.910
26352WAT      O79297   0.452   7.729   1.389
26352WAT     H179298   0.373   7.788   1.374
26352WAT     H279299   0.503   7.761   1.469
26353WAT      O79300   6.958   8.477   6.432
26353WAT     H179301   6.979   8.452   6.338
26353WAT     H279302   6.964   8.577   6.442
26354WAT      O79303   8.485   7.199   9.151
26354WAT     H179304   8.529   7.180   9.063
26354WAT     H279305   8.389   7.171   9.148
26355WAT      O79306   7.022   8.212   4.634
26355WAT     H179307   7.031   8.306   4.601
26355WAT     H279308   7.069   8.150   4.571
26356WAT      O79309   6.165   8.370   3.759
26356WAT     H179310   6.187   8.354   3.663
26356WAT     H279311   6.124   8.288   3.798
26357WAT      O79312   9.621   0.082   8.973
26357WAT     H179313   9.647  -0.013   8.955
26357WAT     H279314   9.558   0.085   9.051
26358WAT      O79315   2.466   7.084   2.191
26358WAT     H179316   2.426   7.037   2.112
26358WAT     H279317   2.516   7.165   2.159
26359WAT      O79318   1.578   4.968   3.638
26359WAT     H179319   1.537   5.037   3.578
26359WAT     H279320   1.658   5.006   3.683
26360WAT      O79321   8.827   0.637   0.085
26360WAT     H179322   8.761   0.562   0.089
26360WAT     H279323   8.909   0.606   0.037
26361WAT      O79324   8.316   5.069   2.813
26361WAT     H179325   8.302   5.112   2.724
26361WAT     H279326   8.344   5.138   2.879
26362WAT      O79327   0.337   8.081   0.951
26362WAT     H179328   0.357   7.987   0.979
26362WAT     H279329   0.239   8.099   0.960
26363WAT      O79330   6.389   3.874   8.057
26363WAT     H179331   6.437   3.843   7.975
26363WAT     H279332   6.390   3.802   8.126
26364WAT      O79333   3.934   0.014   6.379
26364WAT     H179334   3.840   0.024   6.411
26364WAT     H279335   3.983   0.101   6.392
26365WAT      O79336   4.629   3.799   8.461
26365WAT     H179337   4.724   3.791   8.492
26365WAT     H279338   4.627   3.816   8.362
26366WAT      O79339   5.821   6.856   0.292
26366WAT     H179340   5.918   6.831   0.289
26366WAT     H279341   5.791   6.889   0.203
26367WAT      O79342   0.855   1.335   6.621
26367WAT     H179343   0.908   1.286   6.691
26367WAT     H279344   0.917   1.374   6.553
26368WAT      O79345   4.149   6.696   2.971
26368WAT     H179346   4.200   6.616   3.002
26368WAT     H279347   4.119   6.749   3.050
26369WAT      O79348   6.602   9.265   0.431
26369WAT     H179349   6.558   9.292   0.516
26369WAT     H279350   6.613   9.166   0.428
26370WAT      O79351   8.893   2.481   5.678
26370WAT     H179352   8.824   2.506   5.611
26370WAT     H279353   8.973   2.539   5.668
26371WAT      O79354   2.094   4.452   8.794
26371WAT     H179355   2.111   4.528   8.858
26371WAT     H279356   2.042   4.381   8.841
26372WAT      O79357   7.561   5.968   1.750
26372WAT     H179358   7.641   5.939   1.695
26372WAT     H279359   7.555   5.911   1.832
26373WAT      O79360   5.982   8.599   8.263
26373WAT     H179361   6.015   8.692   8.245
26373WAT     H279362   5.928   8.598   8.347
26374WAT      O79363   6.237   3.946   9.187
26374WAT     H179364   6.211   3.876   9.254
26374WAT     H279365   6.312   4.001   9.224
26375WAT      O79366   2.680   9.207   0.952
26375WAT     H179367   2.691   9.305   0.932
26375WAT     H279368   2.766   9.171   0.988
26376WAT      O79369   0.681   6.115   0.980
26376WAT     H179370   0.595   6.085   0.938
26376WAT     H279371   0.746   6.141   0.908
26377WAT      O79372   9.392   2.732   0.711
26377WAT     H179373   9.423   2.765   0.621
26377WAT     H279374   9.384   2.632   0.708
26378WAT      O79375   0.807   3.982   6.791
26378WAT     H179376   0.778   3.936   6.707
26378WAT     H279377   0.739   3.965   6.863
26379WAT      O79378   3.015   3.853   9.497
26379WAT     H179379   2.976   3.846   9.589
26379WAT     H279380   3.034   3.762   9.462
26380WAT      O79381   9.663   4.518   8.143
26380WAT     H179382   9.680   4.610   8.108
26380WAT     H279383   9.728   4.497   8.216
26381WAT      O79384   5.600   4.664   9.892
26381WAT     H179385   5.692   4.701   9.881
26381WAT     H279386   5.580   4.601   9.818
26382WAT      O79387   8.400   7.192   8.698
26382WAT     H179388   8.364   7.258   8.765
26382WAT     H279389   8.493   7.167   8.723
26383WAT      O79390   1.436   2.154   6.196
26383WAT     H179391   1.354   2.141   6.140
26383WAT     H279392   1.517   2.148   6.138
26384WAT      O79393   5.643   3.916   3.770
26384WAT     H179394   5.719   3.851   3.759
26384WAT     H279395   5.637   3.944   3.865
26385WAT      O79396   6.237   8.664   6.737
26385WAT     H179397   6.255   8.587   6.676
26385WAT     H279398   6.162   8.641   6.799
26386WAT      O79399   5.176   2.775   2.169
26386WAT     H179400   5.253   2.839   2.174
26386WAT     H279401   5.092   2.821   2.197
26387WAT      O79402   0.108   9.034   2.978
26387WAT     H179403   0.098   9.038   3.077
26387WAT     H279404   0.205   9.029   2.955
26388WAT      O79405   2.296   5.393   2.948
26388WAT     H179406   2.241   5.360   2.872
26388WAT     H279407   2.236   5.429   3.020
26389WAT      O79408   6.186   2.104   1.258
26389WAT     H179409   6.123   2.100   1.336
26389WAT     H279410   6.199   2.199   1.231
26390WAT      O79411   5.634   4.358   4.464
26390WAT     H179412   5.562   4.295   4.495
26390WAT     H279413   5.667   4.411   4.541
26391WAT      O79414   1.046   4.451   0.252
26391WAT     H179415   0.995   4.526   0.295
26391WAT     H279416   1.123   4.489   0.200
26392WAT      O79417   6.621   2.193   0.404
26392WAT     H179418   6.662   2.186   0.494
26392WAT     H279419   6.524   2.166   0.409
26393WAT      O79420   6.587   9.484   7.782
26393WAT     H179421   6.650   9.515   7.854
26393WAT     H279422   6.622   9.399   7.743
26394WAT      O79423   5.989   2.570   5.096
26394WAT     H179424   5.921   2.497   5.087
26394WAT     H279425   6.040   2.557   5.181
26395WAT      O79426   7.349   7.705   0.603
26395WAT     H179427   7.279   7.634   0.613
26395WAT     H279428   7.368   7.745   0.693
26396WAT      O79429   5.175   4.608   1.247
26396WAT     H179430   5.160   4.596   1.149
26396WAT     H279431   5.216   4.525   1.285
26397WAT      O79432   9.721   1.088   6.600
26397WAT     H179433   9.641   1.031   6.616
26397WAT     H279434   9.777   1.048   6.527
26398WAT      O79435   1.479   3.496   1.576
26398WAT     H179436   1.413   3.569   1.595
26398WAT     H279437   1.564   3.537   1.545
26399WAT      O79438   5.947   8.804   0.083
26399WAT     H179439   5.973   8.799   0.179
26399WAT     H279440   5.938   8.711   0.045
26400WAT      O79441   9.558   5.038   4.345
26400WAT     H179442   9.567   5.130   4.384
26400WAT     H279443   9.488   4.987   4.396
26401WAT      O79444   6.018   2.247   9.710
26401WAT     H179445   6.020   2.343   9.736
26401WAT     H279446   6.062   2.192   9.781
26402WAT      O79447   6.327   5.182   7.416
26402WAT     H179448   6.267   5.259   7.393
26402WAT     H279449   6.378   5.154   7.335
26403WAT      O79450   9.232   8.560   0.703
26403WAT     H179451   9.270   8.652   0.715
26403WAT     H279452   9.201   8.525   0.792
26404WAT      O79453   2.464   3.609   9.612
26404WAT     H179454   2.412   3.692   9.632
26404WAT     H279455   2.409   3.528   9.636
26405WAT      O79456   4.834   1.316   0.611
26405WAT     H179457   4.789   1.383   0.552
26405WAT     H279458   4.922   1.351   0.641
26406WAT      O79459   0.480   1.864   6.144
26406WAT     H179460   0.413   1.888   6.073
26406WAT     H279461   0.432   1.828   6.224
26407WAT      O79462   0.533   8.447   0.382
26407WAT     H179463   0.458   8.384   0.402
26407WAT     H279464   0.533   8.468   0.284
26408WAT      O79465   7.718   9.530   8.239
26408WAT     H179466   7.636   9.561   8.191
26408WAT     H279467   7.767   9.463   8.183
26409WAT      O79468   3.363   2.160   3.971
26409WAT     H179469   3.324   2.172   3.879
26409WAT     H279470   3.299   2.109   4.028
26410WAT      O79471   7.242   7.990   4.599
26410WAT     H179472   7.327   7.967   4.646
26410WAT     H279473   7.170   7.927   4.627
26411WAT      O79474   6.009   4.680   0.953
26411WAT     H179475   6.092   4.643   0.912
26411WAT     H279476   5.971   4.751   0.894
26412WAT      O79477   4.642   3.781   8.172
26412WAT     H179478   4.570   3.841   8.138
26412WAT     H279479   4.705   3.760   8.098
26413WAT      O79480   0.043   4.774   2.283
26413WAT     H179481   0.060   4.872   2.294
26413WAT     H279482  -0.052   4.758   2.259
26414WAT      O79483   0.652   9.781   2.645
26414WAT     H179484   0.709   9.749   2.569
26414WAT     H279485   0.628   9.705   2.704
26415WAT      O79486   8.771   8.897   4.685
26415WAT     H179487   8.803   8.956   4.759
26415WAT     H279488   8.679   8.863   4.707
26416WAT      O79489   1.459   3.696   4.248
26416WAT     H179490   1.396   3.657   4.315
26416WAT     H279491   1.515   3.623   4.209
26417WAT      O79492   8.796   9.824   8.797
26417WAT     H179493   8.704   9.861   8.786
26417WAT     H279494   8.791   9.735   8.842
26418WAT      O79495   9.643   6.538   8.208
26418WAT     H179496   9.684   6.447   8.213
26418WAT     H279497   9.658   6.587   8.294
26419WAT      O79498   0.606   1.918   1.831
26419WAT     H179499   0.676   1.848   1.842
26419WAT     H279500   0.649   2.008   1.831
26420WAT      O79501   7.294   7.717   6.585
26420WAT     H179502   7.293   7.803   6.636
26420WAT     H279503   7.263   7.733   6.492
26421WAT      O79504   4.841   5.587   4.388
26421WAT     H179505   4.820   5.512   4.325
26421WAT     H279506   4.792   5.670   4.359
26422WAT      O79507   0.582   9.481   2.172
26422WAT     H179508   0.634   9.564   2.156
26422WAT     H279509   0.496   9.504   2.218
26423WAT      O79510   3.878   2.769   8.397
26423WAT     H179511   3.862   2.677   8.434
26423WAT     H279512   3.901   2.831   8.472
26424WAT      O79513   7.422   8.748   6.321
26424WAT     H179514   7.428   8.684   6.398
26424WAT     H279515   7.492   8.726   6.253
26425WAT      O79516   2.693   8.714   4.262
26425WAT     H179517   2.763   8.682   4.326
26425WAT     H279518   2.668   8.640   4.200
26426WAT      O79519   4.744   2.692   3.994
26426WAT     H179520   4.693   2.778   4.003
26426WAT     H279521   4.823   2.694   4.056
26427WAT      O79522   2.913   2.321   3.867
26427WAT     H179523   2.991   2.382   3.854
26427WAT     H279524   2.938   2.229   3.835
26428WAT      O79525   2.580   3.960   7.867
26428WAT     H179526   2.548   3.980   7.960
26428WAT     H279527   2.617   4.043   7.826
26429WAT      O79528   4.934   3.448   8.061
26429WAT     H179529   4.863   3.398   8.111
26429WAT     H279530   4.969   3.523   8.118
26430WAT      O79531   2.652   7.985   4.945
26430WAT     H179532   2.697   8.031   5.021
26430WAT     H279533   2.553   7.998   4.951
26431WAT      O79534   2.451   7.604   1.124
26431WAT     H179535   2.446   7.597   1.224
26431WAT     H279536   2.442   7.699   1.096
26432WAT      O79537   3.720   2.607   6.417
26432WAT     H179538   3.818   2.624   6.425
26432WAT     H279539   3.692   2.613   6.322
26433WAT      O79540   6.797   1.454   5.430
26433WAT     H179541   6.748   1.541   5.427
26433WAT     H279542   6.756   1.390   5.365
26434WAT      O79543   4.456   6.767   5.314
26434WAT     H179544   4.391   6.714   5.260
26434WAT     H279545   4.461   6.860   5.278
26435WAT      O79546   0.178   0.631   1.296
26435WAT     H179547   0.137   0.554   1.345
26435WAT     H279548   0.228   0.597   1.217
26436WAT      O79549   8.870   7.232   3.555
26436WAT     H179550   8.911   7.212   3.466
26436WAT     H279551   8.921   7.185   3.627
26437WAT      O79552   8.291   5.943   2.732
26437WAT     H179553   8.372   5.988   2.695
26437WAT     H279554   8.214   5.958   2.670
26438WAT      O79555   6.481   2.620   9.126
26438WAT     H179556   6.480   2.530   9.170
26438WAT     H279557   6.494   2.610   9.028
26439WAT      O79558   5.348   5.445   1.845
26439WAT     H179559   5.259   5.422   1.885
26439WAT     H279560   5.340   5.526   1.788
26440WAT      O79561   6.432   9.594   3.334
26440WAT     H179562   6.488   9.520   3.296
26440WAT     H279563   6.480   9.635   3.412
26441WAT      O79564   2.725   2.795   6.791
26441WAT     H179565   2.632   2.815   6.762
26441WAT     H279566   2.786   2.798   6.712
26442WAT      O79567   2.537   4.406   0.302
26442WAT     H179568   2.446   4.398   0.342
26442WAT     H279569   2.549   4.498   0.264
26443WAT      O79570   7.341   5.426   7.850
26443WAT     H179571   7.323   5.328   7.861
26443WAT     H279572   7.341   5.449   7.753
26444WAT      O79573   0.426   4.958   6.683
26444WAT     H179574   0.495   4.888   6.668
26444WAT     H279575   0.375   4.973   6.599
26445WAT      O79576   1.032   8.270   6.612
26445WAT     H179577   1.097   8.264   6.537
26445WAT     H279578   0.943   8.236   6.581
26446WAT      O79579   9.817   4.509   4.790
26446WAT     H179580   9.863   4.596   4.809
26446WAT     H279581   9.882   4.444   4.751
26447WAT      O79582   3.095   3.096   0.435
26447WAT     H179583   3.086   3.004   0.474
26447WAT     H279584   3.192   3.120   0.428
26448WAT      O79585   7.064   9.443   5.442
26448WAT     H179586   6.982   9.417   5.493
26448WAT     H279587   7.038   9.505   5.368
26449WAT      O79588   9.367   5.706   6.561
26449WAT     H179589   9.344   5.694   6.657
26449WAT     H279590   9.307   5.648   6.505
26450WAT      O79591   6.052   6.444   6.954
26450WAT     H179592   6.101   6.388   7.021
26450WAT     H279593   6.018   6.386   6.880
26451WAT      O79594   5.161   3.019   3.559
26451WAT     H179595   5.158   3.040   3.462
26451WAT     H279596   5.165   3.104   3.611
26452WAT      O79597   2.334   8.398   5.817
26452WAT     H179598   2.312   8.435   5.726
26452WAT     H279599   2.369   8.304   5.807
26453WAT      O79600   7.082   2.706   5.244
26453WAT     H179601   7.033   2.659   5.171
26453WAT     H279602   7.047   2.677   5.333
26454WAT      O79603   6.451   7.592   9.844
26454WAT     H179604   6.397   7.516   9.880
26454WAT     H279605   6.479   7.571   9.750
26455WAT      O79606   9.280   2.745   4.295
26455WAT     H179607   9.250   2.816   4.231
26455WAT     H279608   9.380   2.739   4.293
26456WAT      O79609   1.648   3.849   1.685
26456WAT     H179610   1.709   3.802   1.749
26456WAT     H279611   1.621   3.787   1.612
26457WAT      O79612   4.283   2.402   4.756
26457WAT     H179613   4.228   2.384   4.838
26457WAT     H279614   4.356   2.334   4.749
26458WAT      O79615   7.299   4.918   0.564
26458WAT     H179616   7.283   5.016   0.573
26458WAT     H279617   7.260   4.886   0.477
26459WAT      O79618   7.965   4.571   2.406
26459WAT     H179619   8.042   4.510   2.424
26459WAT     H279620   7.979   4.657   2.455
26460WAT      O79621   0.783   0.104   0.416
26460WAT     H179622   0.844   0.109   0.337
26460WAT     H279623   0.702   0.161   0.399
26461WAT      O79624   6.551   1.298   9.104
26461WAT     H179625   6.477   1.237   9.133
26461WAT     H279626   6.519   1.392   9.105
26462WAT      O79627   3.272   5.099   0.501
26462WAT     H179628   3.319   5.014   0.478
26462WAT     H279629   3.261   5.154   0.419
26463WAT      O79630   3.412   7.681   8.676
26463WAT     H179631   3.369   7.673   8.766
26463WAT     H279632   3.365   7.622   8.611
26464WAT      O79633   5.379   1.444   8.454
26464WAT     H179634   5.289   1.412   8.426
26464WAT     H279635   5.390   1.431   8.553
26465WAT      O79636   5.771   7.220   1.647
26465WAT     H179637   5.808   7.291   1.707
26465WAT     H279638   5.677   7.244   1.621
26466WAT      O79639   8.080   8.841   3.308
26466WAT     H179640   8.150   8.905   3.276
26466WAT     H279641   7.989   8.879   3.286
26467WAT      O79642   7.444   2.923   0.075
26467WAT     H179643   7.409   2.898   0.166
26467WAT     H279644   7.436   2.844   0.015
26468WAT      O79645   0.088   7.903   7.380
26468WAT     H179646   0.034   7.926   7.460
26468WAT     H279647   0.166   7.966   7.373
26469WAT      O79648   8.219   6.063   2.499
26469WAT     H179649   8.290   6.009   2.455
26469WAT     H279650   8.145   6.080   2.435
26470WAT      O79651   6.637   0.728   9.679
26470WAT     H179652   6.618   0.650   9.621
26470WAT     H279653   6.736   0.745   9.681
26471WAT      O79654   3.804   7.058   9.698
26471WAT     H179655   3.863   7.051   9.617
26471WAT     H279656   3.765   6.968   9.718
26472WAT      O79657   0.866   8.728   6.406
26472WAT     H179658   0.924   8.690   6.478
26472WAT     H279659   0.862   8.663   6.330
26473WAT      O79660   2.288   3.951   1.418
26473WAT     H179661   2.291   4.041   1.375
26473WAT     H279662   2.332   3.884   1.358
26474WAT      O79663   3.847   1.603   0.055
26474WAT     H179664   3.813   1.574   0.144
26474WAT     H279665   3.904   1.531   0.016
26475WAT      O79666   3.100   9.506   1.937
26475WAT     H179667   3.047   9.498   1.853
26475WAT     H279668   3.130   9.601   1.949
26476WAT      O79669   4.728   8.030   0.445
26476WAT     H179670   4.642   8.081   0.433
26476WAT     H279671   4.790   8.052   0.370
26477WAT      O79672   7.027   2.852   4.001
26477WAT     H179673   7.061   2.921   3.938
26477WAT     H279674   7.104   2.814   4.053
26478WAT      O79675   3.786   9.192   7.874
26478WAT     H179676   3.813   9.172   7.968
26478WAT     H279677   3.778   9.291   7.863
26479WAT      O79678   7.229   0.280   4.688
26479WAT     H179679   7.131   0.287   4.670
26479WAT     H279680   7.279   0.271   4.602
26480WAT      O79681   6.259   4.568   3.064
26480WAT     H179682   6.231   4.473   3.081
26480WAT     H279683   6.311   4.572   2.979
26481WAT      O79684   1.743   9.203   1.321
26481WAT     H179685   1.757   9.108   1.347
26481WAT     H279686   1.789   9.263   1.386
26482WAT      O79687   0.676   4.590   2.886
26482WAT     H179688   0.624   4.613   2.968
26482WAT     H279689   0.614   4.569   2.812
26483WAT      O79690   7.102   1.522   4.294
26483WAT     H179691   7.144   1.553   4.379
26483WAT     H279692   7.111   1.594   4.225
26484WAT      O79693   2.085   4.293   2.784
26484WAT     H179694   2.177   4.322   2.756
26484WAT     H279695   2.018   4.322   2.715
26485WAT      O79696   5.745   1.574   6.784
26485WAT     H179697   5.823   1.515   6.762
26485WAT     H279698   5.686   1.528   6.851
26486WAT      O79699   7.945   2.898   4.143
26486WAT     H179700   7.946   2.963   4.219
26486WAT     H279701   8.008   2.929   4.071
26487WAT      O79702   9.664   4.447   9.665
26487WAT     H179703   9.572   4.449   9.627
26487WAT     H279704   9.731   4.456   9.592
26488WAT      O79705   8.961   4.152   7.797
26488WAT     H179706   8.912   4.180   7.715
26488WAT     H279707   8.899   4.100   7.856
26489WAT      O79708   6.680   7.916   5.309
26489WAT     H179709   6.582   7.928   5.297
26489WAT     H279710   6.727   7.939   5.223
26490WAT      O79711   7.666   0.661   6.905
26490WAT     H179712   7.613   0.578   6.923
26490WAT     H279713   7.702   0.698   6.990
26491WAT      O79714   7.227   9.275   6.830
26491WAT     H179715   7.282   9.307   6.907
26491WAT     H279716   7.193   9.353   6.778
26492WAT      O79717   3.648   6.067   6.745
26492WAT     H179718   3.683   6.132   6.677
26492WAT     H279719   3.722   6.037   6.804
26493WAT      O79720   3.473   4.141   8.120
26493WAT     H179721   3.559   4.109   8.161
26493WAT     H279722   3.459   4.094   8.033
26494WAT      O79723   6.814   3.250   4.457
26494WAT     H179724   6.766   3.162   4.455
26494WAT     H279725   6.835   3.275   4.551
26495WAT      O79726   2.858   4.138   0.631
26495WAT     H179727   2.867   4.204   0.706
26495WAT     H279728   2.900   4.176   0.549
26496WAT      O79729   5.276   1.322   4.024
26496WAT     H179730   5.279   1.316   3.924
26496WAT     H279731   5.222   1.401   4.051
26497WAT      O79732   1.402   2.484   6.785
26497WAT     H179733   1.402   2.572   6.832
26497WAT     H279734   1.312   2.442   6.793
26498WAT      O79735   6.613   5.306   0.397
26498WAT     H179736   6.697   5.360   0.409
26498WAT     H279737   6.637   5.209   0.390
26499WAT      O79738   5.065   6.913   1.950
26499WAT     H179739   5.110   6.971   2.018
26499WAT     H279740   4.966   6.918   1.962
26500WAT      O79741   1.765   1.603   9.171
26500WAT     H179742   1.804   1.541   9.239
26500WAT     H279743   1.691   1.655   9.212
26501WAT      O79744   4.611   6.787   6.604
26501WAT     H179745   4.569   6.870   6.639
26501WAT     H279746   4.683   6.811   6.539
26502WAT      O79747   4.587   1.975   4.683
26502WAT     H179748   4.637   2.011   4.762
26502WAT     H279749   4.535   1.894   4.711
26503WAT      O79750   0.565   1.695   8.052
26503WAT     H179751   0.513   1.661   8.131
26503WAT     H279752   0.663   1.678   8.067
26504WAT      O79753   7.875   1.846   4.631
26504WAT     H179754   7.857   1.928   4.686
26504WAT     H279755   7.882   1.766   4.691
26505WAT      O79756   6.023   5.880   3.311
26505WAT     H179757   5.998   5.821   3.388
26505WAT     H279758   6.101   5.936   3.336
26506WAT      O79759   0.240   1.589   2.103
26506WAT     H179760   0.222   1.685   2.125
26506WAT     H279761   0.334   1.579   2.069
26507WAT      O79762   6.323   3.321   0.685
26507WAT     H179763   6.365   3.299   0.597
26507WAT     H279764   6.223   3.321   0.675
26508WAT      O79765   2.552   3.671   7.765
26508WAT     H179766   2.587   3.692   7.857
26508WAT     H279767   2.526   3.575   7.761
26509WAT      O79768   1.602   2.621   3.368
26509WAT     H179769   1.692   2.582   3.388
26509WAT     H279770   1.590   2.706   3.419
26510WAT      O79771   5.155   1.800   5.614
26510WAT     H179772   5.213   1.857   5.672
26510WAT     H279773   5.081   1.761   5.668
26511WAT      O79774   2.972   8.892   5.588
26511WAT     H179775   2.890   8.928   5.634
26511WAT     H279776   2.994   8.803   5.626
26512WAT      O79777   2.938   3.189   2.195
26512WAT     H179778   2.987   3.243   2.263
26512WAT     H279779   2.994   3.111   2.168
26513WAT      O79780   7.948   6.605   5.659
26513WAT     H179781   8.041   6.574   5.639
26513WAT     H279782   7.940   6.702   5.637
26514WAT      O79783   4.780   1.662   0.685
26514WAT     H179784   4.753   1.598   0.613
26514WAT     H279785   4.704   1.674   0.749
26515WAT      O79786   1.145   6.873   3.720
26515WAT     H179787   1.085   6.873   3.800
26515WAT     H279788   1.100   6.920   3.644
26516WAT      O79789   0.088   7.191   1.250
26516WAT     H179790   0.182   7.177   1.282
26516WAT     H279791   0.038   7.105   1.253
26517WAT      O79792   5.279   0.694   2.554
26517WAT     H179793   5.304   0.783   2.516
26517WAT     H279794   5.238   0.706   2.644
26518WAT      O79795   3.288   3.203   1.325
26518WAT     H179796   3.231   3.212   1.406
26518WAT     H279797   3.231   3.189   1.245
26519WAT      O79798   4.058   6.811   6.344
26519WAT     H179799   4.138   6.779   6.394
26519WAT     H279800   4.076   6.902   6.307
26520WAT      O79801   9.197   7.954   9.424
26520WAT     H179802   9.125   8.023   9.421
26520WAT     H279803   9.163   7.868   9.388
26521WAT      O79804   1.102   1.743   1.474
26521WAT     H179805   1.064   1.812   1.535
26521WAT     H279806   1.028   1.687   1.437
26522WAT      O79807   2.441   1.081   9.847
26522WAT     H179808   2.400   1.042   9.929
26522WAT     H279809   2.516   1.143   9.872
26523WAT      O79810   1.462   0.500   4.371
26523WAT     H179811   1.532   0.448   4.322
26523WAT     H279812   1.490   0.596   4.377
26524WAT      O79813   8.158   4.701   5.327
26524WAT     H179814   8.231   4.703   5.395
26524WAT     H279815   8.070   4.710   5.373
26525WAT      O79816   5.411   5.578   1.339
26525WAT     H179817   5.507   5.569   1.312
26525WAT     H279818   5.352   5.568   1.259
26526WAT      O79819   1.093   8.177   3.258
26526WAT     H179820   1.108   8.273   3.233
26526WAT     H279821   1.153   8.119   3.203
26527WAT      O79822   5.362   3.593   1.007
26527WAT     H179823   5.361   3.658   1.083
26527WAT     H279824   5.449   3.599   0.959
26528WAT      O79825   1.835   8.012   4.626
26528WAT     H179826   1.866   7.918   4.617
26528WAT     H279827   1.885   8.057   4.700
26529WAT      O79828   2.863   9.419   0.094
26529WAT     H179829   2.789   9.464   0.145
26529WAT     H279830   2.834   9.328   0.066
26530WAT      O79831   0.328   8.730   5.247
26530WAT     H179832   0.290   8.638   5.257
26530WAT     H279833   0.428   8.725   5.241
26531WAT      O79834   8.290   0.569   7.555
26531WAT     H179835   8.301   0.493   7.490
26531WAT     H279836   8.215   0.627   7.525
26532WAT      O79837   6.985   2.352   6.439
26532WAT     H179838   6.959   2.286   6.368
26532WAT     H279839   7.083   2.371   6.432
26533WAT      O79840   6.719   4.788   6.684
26533WAT     H179841   6.695   4.740   6.768
26533WAT     H279842   6.637   4.825   6.642
26534WAT      O79843   8.075   5.047   1.759
26534WAT     H179844   8.011   5.124   1.752
26534WAT     H279845   8.142   5.065   1.831
26535WAT      O79846   3.260   0.517   2.823
26535WAT     H179847   3.348   0.477   2.797
26535WAT     H279848   3.234   0.586   2.755
26536WAT      O79849   3.887   5.667   9.837
26536WAT     H179850   3.863   5.615   9.755
26536WAT     H279851   3.975   5.714   9.822
26537WAT      O79852   0.802   3.386   8.981
26537WAT     H179853   0.792   3.384   9.081
26537WAT     H279854   0.841   3.300   8.950
26538WAT      O79855   1.321   5.037   8.583
26538WAT     H179856   1.311   5.082   8.672
26538WAT     H279857   1.399   5.075   8.535
26539WAT      O79858   8.876   2.531   9.674
26539WAT     H179859   8.783   2.527   9.637
26539WAT     H279860   8.875   2.506   9.770
26540WAT      O79861   6.244   6.860   2.260
26540WAT     H179862   6.312   6.931   2.276
26540WAT     H279863   6.277   6.796   2.191
26541WAT      O79864   1.129   8.676   2.507
26541WAT     H179865   1.116   8.775   2.494
26541WAT     H279866   1.041   8.631   2.508
26542WAT      O79867   1.717   4.996   8.903
26542WAT     H179868   1.624   5.027   8.922
26542WAT     H279869   1.766   5.067   8.853
26543WAT      O79870   5.325   7.104   3.718
26543WAT     H179871   5.394   7.175   3.730
26543WAT     H279872   5.286   7.111   3.626
26544WAT      O79873   5.813   2.607   8.182
26544WAT     H179874   5.793   2.705   8.188
26544WAT     H279875   5.745   2.563   8.124
26545WAT      O79876   2.153   0.444   7.422
26545WAT     H179877   2.220   0.369   7.414
26545WAT     H279878   2.193   0.518   7.475
26546WAT      O79879   0.543   6.688   1.692
26546WAT     H179880   0.570   6.685   1.596
26546WAT     H279881   0.587   6.765   1.736
26547WAT      O79882   7.103   3.174   9.704
26547WAT     H179883   7.183   3.170   9.763
26547WAT     H279884   7.127   3.215   9.616
26548WAT      O79885   9.803   7.003   4.490
26548WAT     H179886   9.902   7.019   4.484
26548WAT     H279887   9.784   6.905   4.480
26549WAT      O79888   3.149   0.936   6.286
26549WAT     H179889   3.205   1.007   6.243
26549WAT     H279890   3.130   0.864   6.220
26550WAT      O79891   2.572   8.904   1.301
26550WAT     H179892   2.478   8.930   1.281
26550WAT     H279893   2.586   8.905   1.400
26551WAT      O79894   1.515   3.005   9.596
26551WAT     H179895   1.575   3.033   9.671
26551WAT     H279896   1.471   3.085   9.556
26552WAT      O79897   0.822   2.368   3.068
26552WAT     H179898   0.894   2.437   3.072
26552WAT     H279899   0.793   2.345   3.161
26553WAT      O79900   2.996   2.177   1.734
26553WAT     H179901   2.920   2.126   1.693
26553WAT     H279902   3.069   2.113   1.760
26554WAT      O79903   4.029   8.442   3.209
26554WAT     H179904   4.031   8.525   3.153
26554WAT     H279905   4.082   8.458   3.293
26555WAT      O79906   6.043   8.673   1.883
26555WAT     H179907   6.099   8.755   1.870
26555WAT     H279908   5.961   8.679   1.827
26556WAT      O79909   9.581   9.018   0.272
26556WAT     H179910   9.597   9.088   0.342
26556WAT     H279911   9.604   8.928   0.309
26557WAT      O79912   9.094   7.413   1.360
26557WAT     H179913   9.143   7.338   1.404
26557WAT     H279914   9.115   7.414   1.262
26558WAT      O79915   4.590   2.589   8.705
26558WAT     H179916   4.684   2.606   8.674
26558WAT     H279917   4.527   2.609   8.630
26559WAT      O79918   4.029   9.604   6.006
26559WAT     H179919   4.038   9.664   5.926
26559WAT     H279920   4.102   9.623   6.071
26560WAT      O79921   1.983   1.618   8.553
26560WAT     H179922   1.906   1.646   8.610
26560WAT     H279923   1.951   1.556   8.481
26561WAT      O79924   1.380   2.853   4.521
26561WAT     H179925   1.458   2.800   4.554
26561WAT     H279926   1.358   2.825   4.428
26562WAT      O79927   4.252   6.954   4.744
26562WAT     H179928   4.192   6.944   4.664
26562WAT     H279929   4.345   6.973   4.713
26563WAT      O79930   3.198   7.797   1.435
26563WAT     H179931   3.209   7.849   1.520
26563WAT     H279932   3.242   7.847   1.361
26564WAT      O79933   4.549   2.132   3.150
26564WAT     H179934   4.509   2.042   3.132
26564WAT     H279935   4.645   2.132   3.121
26565WAT      O79936   3.736   9.776   8.465
26565WAT     H179937   3.685   9.811   8.387
26565WAT     H279938   3.719   9.835   8.545
26566WAT      O79939   1.756   8.333   1.285
26566WAT     H179940   1.852   8.347   1.259
26566WAT     H279941   1.708   8.421   1.283
26567WAT      O79942   1.924   1.047   2.185
26567WAT     H179943   1.925   0.957   2.142
26567WAT     H279944   1.979   1.043   2.269
26568WAT      O79945   3.523   6.922   9.034
26568WAT     H179946   3.503   6.824   9.037
26568WAT     H279947   3.538   6.950   8.939
26569WAT      O79948   2.831   4.834   0.086
26569WAT     H179949   2.742   4.794   0.065
26569WAT     H279950   2.891   4.764   0.126
26570WAT      O79951   8.907   4.376   0.526
26570WAT     H179952   8.844   4.321   0.582
26570WAT     H279953   8.913   4.337   0.435
26571WAT      O79954   5.382   0.459   6.087
26571WAT     H179955   5.467   0.425   6.048
26571WAT     H279956   5.328   0.505   6.017
26572WAT      O79957   0.978   6.562   4.780
26572WAT     H179958   1.070   6.599   4.788
26572WAT     H279959   0.983   6.462   4.774
26573WAT      O79960   3.968   2.045   1.681
26573WAT     H179961   3.933   1.967   1.733
26573WAT     H279962   4.068   2.049   1.690
26574WAT      O79963   9.785   9.717   5.545
26574WAT     H179964   9.689   9.739   5.566
26574WAT     H279965   9.799   9.619   5.550
26575WAT      O79966   2.858   4.893   9.049
26575WAT     H179967   2.949   4.898   9.090
26575WAT     H279968   2.831   4.983   9.017
26576WAT      O79969   1.470   3.414   7.923
26576WAT     H179970   1.539   3.434   7.854
26576WAT     H279971   1.488   3.324   7.963
26577WAT      O79972   4.010   2.775   5.021
26577WAT     H179973   3.922   2.729   5.024
26577WAT     H279974   4.076   2.726   5.078
26578WAT      O79975   6.401   6.892   0.377
26578WAT     H179976   6.361   6.881   0.468
26578WAT     H279977   6.469   6.965   0.379
26579WAT      O79978   4.861   8.548   7.431
26579WAT     H179979   4.761   8.539   7.432
26579WAT     H279980   4.885   8.644   7.441
26580WAT      O79981   4.159   1.426   9.259
26580WAT     H179982   4.246   1.471   9.239
26580WAT     H279983   4.085   1.491   9.247
26581WAT      O79984   4.746   2.876   9.711
26581WAT     H179985   4.659   2.846   9.751
26581WAT     H279986   4.730   2.958   9.655
26582WAT      O79987   6.944   3.441   4.983
26582WAT     H179988   6.956   3.481   5.074
26582WAT     H279989   6.968   3.509   4.914
26583WAT      O79990   5.730   0.969   9.261
26583WAT     H179991   5.642   1.017   9.260
26583WAT     H279992   5.714   0.871   9.262
26584WAT      O79993   0.051   0.826   9.854
26584WAT     H179994   0.044   0.749   9.918
26584WAT     H279995  -0.002   0.805   9.772
26585WAT      O79996   4.475   9.336   0.159
26585WAT     H179997   4.399   9.400   0.154
26585WAT     H279998   4.538   9.363   0.232
26586WAT      O79999   2.035   3.090   7.417
26586WAT     H180000   1.996   3.180   7.395
26586WAT     H280001   2.080   3.053   7.335
26587WAT      O80002   2.428   3.007   7.181
26587WAT     H180003   2.444   2.934   7.115
26587WAT     H280004   2.510   3.062   7.192
26588WAT      O80005   6.536   6.826   4.854
26588WAT     H180006   6.603   6.893   4.822
26588WAT     H280007   6.582   6.739   4.871
26589WAT      O80008   4.920   5.008   8.683
26589WAT     H180009   4.972   5.059   8.614
26589WAT     H280010   4.865   5.071   8.737
26590WAT      O80011   5.950   1.258   5.508
26590WAT     H180012   5.986   1.333   5.451
26590WAT     H280013   5.896   1.197   5.451
26591WAT      O80014   9.346   9.021   9.530
26591WAT     H180015   9.315   8.949   9.468
26591WAT     H280016   9.434   8.994   9.570
26592WAT      O80017   6.112   3.382   3.992
26592WAT     H180018   6.126   3.455   4.059
26592WAT     H280019   6.082   3.421   3.905
26593WAT      O80020   5.102   8.925   2.610
26593WAT     H180021   5.021   8.954   2.662
26593WAT     H280022   5.179   8.911   2.672
26594WAT      O80023   3.458   2.913   4.638
26594WAT     H180024   3.499   2.995   4.596
26594WAT     H280025   3.509   2.832   4.609
26595WAT      O80026   3.691   5.583   2.996
26595WAT     H180027   3.659   5.652   3.061
26595WAT     H280028   3.613   5.544   2.947
26596WAT      O80029   2.698   1.000   4.976
26596WAT     H180030   2.741   1.090   4.975
26596WAT     H280031   2.728   0.949   5.056
26597WAT      O80032   0.917   8.982   0.666
26597WAT     H180033   1.015   8.976   0.685
26597WAT     H280034   0.873   9.038   0.737
26598WAT      O80035   0.128   7.503   4.259
26598WAT     H180036   0.168   7.560   4.188
26598WAT     H280037   0.154   7.408   4.244
26599WAT      O80038   0.283   7.332   0.761
26599WAT     H180039   0.276   7.331   0.662
26599WAT     H280040   0.192   7.344   0.801
26600WAT      O80041   6.258   7.505   0.662
26600WAT     H180042   6.269   7.592   0.614
26600WAT     H280043   6.164   7.472   0.651
26601WAT      O80044   6.991   5.452   4.771
26601WAT     H180045   7.074   5.494   4.734
26601WAT     H280046   6.974   5.487   4.863
26602WAT      O80047   6.568   1.601   9.259
26602WAT     H180048   6.512   1.651   9.193
26602WAT     H280049   6.509   1.544   9.316
26603WAT      O80050   8.968   4.161   3.402
26603WAT     H180051   8.978   4.209   3.315
26603WAT     H280052   9.054   4.165   3.453
26604WAT      O80053   6.795   6.256   6.448
26604WAT     H180054   6.853   6.230   6.525
26604WAT     H280055   6.772   6.353   6.455
26605WAT      O80056   1.429   1.229   0.565
26605WAT     H180057   1.528   1.233   0.549
26605WAT     H280058   1.381   1.276   0.491
26606WAT      O80059   5.307   7.835   2.216
26606WAT     H180060   5.293   7.866   2.310
26606WAT     H280061   5.372   7.896   2.170
26607WAT      O80062   2.460   7.922   2.734
26607WAT     H180063   2.427   7.852   2.798
26607WAT     H280064   2.485   7.878   2.647
26608WAT      O80065   5.180   8.021   3.961
26608WAT     H180066   5.149   8.116   3.964
26608WAT     H280067   5.106   7.962   3.930
26609WAT      O80068   2.033   6.322   1.305
26609WAT     H180069   1.950   6.320   1.249
26609WAT     H280070   2.043   6.235   1.353
26610WAT      O80071   2.723   3.650   5.644
26610WAT     H180072   2.783   3.578   5.680
26610WAT     H280073   2.747   3.669   5.549
26611WAT      O80074   4.145   8.037   2.995
26611WAT     H180075   4.221   8.034   2.930
26611WAT     H280076   4.110   7.945   3.011
26612WAT      O80077   3.895   0.995   0.152
26612WAT     H180078   3.856   1.082   0.123
26612WAT     H280079   3.983   0.981   0.107
26613WAT      O80080   0.151   2.344   1.744
26613WAT     H180081   0.073   2.389   1.788
26613WAT     H280082   0.132   2.246   1.735
26614WAT      O80083   1.070   7.432   5.938
26614WAT     H180084   1.019   7.399   5.858
26614WAT     H280085   1.128   7.509   5.912
26615WAT      O80086   2.536   3.573   9.056
26615WAT     H180087   2.608   3.582   9.125
26615WAT     H280088   2.456   3.627   9.084
26616WAT      O80089   0.661   2.001   4.418
26616WAT     H180090   0.705   1.914   4.398
26616WAT     H280091   0.633   2.003   4.515
26617WAT      O80092   7.863   0.365   0.952
26617WAT     H180093   7.819   0.362   0.862
26617WAT     H280094   7.875   0.272   0.986
26618WAT      O80095   6.173   5.075   7.625
26618WAT     H180096   6.122   4.989   7.633
26618WAT     H280097   6.208   5.085   7.532
26619WAT      O80098   2.654   6.203   9.837
26619WAT     H180099   2.700   6.115   9.831
26619WAT     H280100   2.558   6.189   9.860
26620WAT      O80101   5.994   1.678   7.541
26620WAT     H180102   5.988   1.592   7.491
26620WAT     H280103   6.060   1.669   7.616
26621WAT      O80104   8.183   4.046   5.986
26621WAT     H180105   8.140   3.956   5.999
26621WAT     H280106   8.253   4.059   6.057
26622WAT      O80107   0.251   4.106   4.621
26622WAT     H180108   0.285   4.013   4.634
26622WAT     H280109   0.202   4.134   4.704
26623WAT      O80110   1.992   8.495   2.503
26623WAT     H180111   1.989   8.458   2.410
26623WAT     H280112   2.040   8.431   2.563
26624WAT      O80113   2.939   5.336   9.124
26624WAT     H180114   2.994   5.255   9.144
26624WAT     H280115   2.995   5.418   9.136
26625WAT      O80116   8.727   2.822   8.067
26625WAT     H180117   8.752   2.911   8.030
26625WAT     H280118   8.663   2.834   8.143
26626WAT      O80119   0.982   3.006   3.481
26626WAT     H180120   0.956   2.976   3.572
26626WAT     H280121   1.031   3.093   3.487
26627WAT      O80122   4.054   1.964   1.234
26627WAT     H180123   3.993   1.982   1.157
26627WAT     H280124   3.999   1.951   1.317
26628WAT      O80125   4.254   3.389   1.249
26628WAT     H180126   4.161   3.373   1.281
26628WAT     H280127   4.251   3.426   1.156
26629WAT      O80128   1.301   2.051   6.799
26629WAT     H180129   1.380   2.039   6.860
26629WAT     H280130   1.225   1.995   6.831
26630WAT      O80131   1.824   5.641   1.161
26630WAT     H180132   1.783   5.583   1.091
26630WAT     H280133   1.835   5.734   1.126
26631WAT      O80134   3.257   6.418   0.055
26631WAT     H180135   3.249   6.456   0.147
26631WAT     H280136   3.219   6.325   0.054
26632WAT      O80137   6.628   1.816   0.462
26632WAT     H180138   6.701   1.881   0.485
26632WAT     H280139   6.668   1.735   0.420
26633WAT      O80140   2.361   5.582   6.370
26633WAT     H180141   2.303   5.534   6.436
26633WAT     H280142   2.334   5.555   6.277
26634WAT      O80143   6.368   7.087   5.651
26634WAT     H180144   6.334   6.996   5.673
26634WAT     H280145   6.438   7.081   5.580
26635WAT      O80146   4.382   2.018   4.951
26635WAT     H180147   4.329   2.043   4.871
26635WAT     H280148   4.352   1.928   4.983
26636WAT      O80149   3.350   2.668   3.022
26636WAT     H180150   3.397   2.693   2.937
26636WAT     H280151   3.307   2.749   3.061
26637WAT      O80152   8.057   1.334   9.068
26637WAT     H180153   8.024   1.427   9.053
26637WAT     H280154   8.157   1.332   9.059
26638WAT      O80155   6.782   9.124   4.440
26638WAT     H180156   6.865   9.179   4.436
26638WAT     H280157   6.773   9.072   4.355
26639WAT      O80158   3.906   2.481   3.093
26639WAT     H180159   3.830   2.527   3.140
26639WAT     H280160   3.892   2.488   2.994
26640WAT      O80161   6.988   7.120   8.768
26640WAT     H180162   7.029   7.094   8.680
26640WAT     H280163   6.922   7.050   8.796
26641WAT      O80164   9.308   4.573   3.462
26641WAT     H180165   9.240   4.539   3.527
26641WAT     H280166   9.324   4.670   3.479
26642WAT      O80167   5.907   3.652   9.646
26642WAT     H180168   5.951   3.668   9.735
26642WAT     H280169   5.858   3.565   9.650
26643WAT      O80170   0.553   3.543   7.808
26643WAT     H180171   0.463   3.575   7.837
26643WAT     H280172   0.582   3.594   7.727
26644WAT      O80173   4.035   6.938   5.451
26644WAT     H180174   4.043   6.868   5.521
26644WAT     H280175   4.118   6.939   5.395
26645WAT      O80176   7.233   7.712   2.946
26645WAT     H180177   7.233   7.612   2.944
26645WAT     H280178   7.232   7.747   2.853
26646WAT      O80179   3.446   8.429   2.057
26646WAT     H180180   3.456   8.509   1.997
26646WAT     H280181   3.387   8.362   2.012
26647WAT      O80182   7.724   2.930   1.190
26647WAT     H180183   7.718   2.919   1.091
26647WAT     H280184   7.664   2.864   1.234
26648WAT      O80185   7.232   4.684   9.414
26648WAT     H180186   7.165   4.611   9.395
26648WAT     H280187   7.304   4.682   9.345
26649WAT      O80188   7.690   4.807   3.371
26649WAT     H180189   7.758   4.843   3.435
26649WAT     H280190   7.688   4.707   3.377
26650WAT      O80191   2.934   8.969   2.564
26650WAT     H180192   2.980   9.024   2.494
26650WAT     H280193   2.852   9.017   2.595
26651WAT      O80194   3.361   1.401   7.110
26651WAT     H180195   3.389   1.488   7.150
26651WAT     H280196   3.267   1.409   7.076
26652WAT      O80197   4.168   9.641   5.377
26652WAT     H180198   4.127   9.724   5.339
26652WAT     H280199   4.251   9.665   5.428
26653WAT      O80200   3.769   7.820   3.590
26653WAT     H180201   3.836   7.894   3.585
26653WAT     H280202   3.723   7.811   3.501
26654WAT      O80203   4.291   2.655   4.118
26654WAT     H180204   4.301   2.689   4.212
26654WAT     H280205   4.365   2.590   4.099
26655WAT      O80206   8.145   0.999   0.673
26655WAT     H180207   8.090   0.976   0.593
26655WAT     H280208   8.238   1.023   0.643
26656WAT      O80209   3.242   0.843   3.409
26656WAT     H180210   3.315   0.889   3.460
26656WAT     H280211   3.238   0.747   3.436
26657WAT      O80212   6.404   9.361   7.190
26657WAT     H180213   6.391   9.384   7.287
26657WAT     H280214   6.457   9.433   7.146
26658WAT      O80215   8.517   8.537   6.374
26658WAT     H180216   8.486   8.546   6.279
26658WAT     H280217   8.479   8.453   6.413
26659WAT      O80218   7.242   3.003   9.327
26659WAT     H180219   7.210   2.910   9.311
26659WAT     H280220   7.186   3.067   9.274
26660WAT      O80221   5.575   4.053   4.328
26660WAT     H180222   5.650   4.032   4.391
26660WAT     H280223   5.592   4.141   4.284
26661WAT      O80224   0.853   4.744   2.114
26661WAT     H180225   0.898   4.696   2.189
26661WAT     H280226   0.770   4.695   2.088
26662WAT      O80227   9.548   5.790   1.459
26662WAT     H180228   9.488   5.775   1.380
26662WAT     H280229   9.633   5.833   1.429
26663WAT      O80230   0.089   8.506   0.270
26663WAT     H180231   0.027   8.430   0.248
26663WAT     H280232   0.065   8.586   0.215
26664WAT      O80233   3.057   5.366   7.141
26664WAT     H180234   2.986   5.379   7.210
26664WAT     H280235   3.015   5.352   7.051
26665WAT      O80236   0.255   4.166   9.435
26665WAT     H180237   0.224   4.160   9.530
26665WAT     H280238   0.348   4.132   9.428
26666WAT      O80239   2.392   0.323   6.935
26666WAT     H180240   2.426   0.252   6.997
26666WAT     H280241   2.377   0.284   6.844
26667WAT      O80242   0.589   6.159   9.429
26667WAT     H180243   0.610   6.064   9.406
26667WAT     H280244   0.493   6.178   9.407
26668WAT      O80245   0.432   3.040   7.883
26668WAT     H180246   0.507   3.081   7.832
26668WAT     H280247   0.393   2.965   7.828
26669WAT      O80248   9.347   8.969   0.112
26669WAT     H180249   9.307   9.024   0.038
26669WAT     H280250   9.435   9.007   0.138
26670WAT      O80251   7.747   5.142   3.518
26670WAT     H180252   7.684   5.080   3.473
26670WAT     H280253   7.709   5.235   3.518
26671WAT      O80254   7.174   5.356   9.867
26671WAT     H180255   7.242   5.339   9.939
26671WAT     H280256   7.206   5.317   9.781
26672WAT      O80257   5.229   0.329   8.084
26672WAT     H180258   5.164   0.381   8.140
26672WAT     H280259   5.314   0.317   8.134
26673WAT      O80260   6.623   2.472   5.352
26673WAT     H180261   6.712   2.427   5.349
26673WAT     H280262   6.603   2.500   5.446
26674WAT      O80263   3.330   8.751   8.758
26674WAT     H180264   3.379   8.670   8.790
26674WAT     H280265   3.354   8.829   8.815
26675WAT      O80266   2.451   3.778   1.277
26675WAT     H180267   2.530   3.794   1.337
26675WAT     H280268   2.454   3.684   1.244
26676WAT      O80269   7.577   5.595   0.570
26676WAT     H180270   7.674   5.598   0.594
26676WAT     H280271   7.535   5.513   0.609
26677WAT      O80272   0.279   9.668   2.966
26677WAT     H180273   0.318   9.753   3.000
26677WAT     H280274   0.342   9.626   2.900
26678WAT      O80275   9.720   4.919   8.549
26678WAT     H180276   9.803   4.866   8.568
26678WAT     H280277   9.644   4.856   8.533
26679WAT      O80278   9.581   5.263   5.655
26679WAT     H180279   9.524   5.189   5.619
26679WAT     H280280   9.640   5.297   5.581
26680WAT      O80281   1.070   2.908   6.555
26680WAT     H180282   0.992   2.965   6.580
26680WAT     H280283   1.101   2.931   6.463
26681WAT      O80284   8.690   6.805   4.714
26681WAT     H180285   8.706   6.707   4.704
26681WAT     H280286   8.767   6.847   4.761
26682WAT      O80287   1.704   8.796   8.186
26682WAT     H180288   1.745   8.875   8.229
26682WAT     H280289   1.619   8.772   8.233
26683WAT      O80290   9.015   6.014   8.924
26683WAT     H180291   9.048   6.025   9.018
26683WAT     H280292   9.041   5.923   8.891
26684WAT      O80293   9.139   2.065   3.349
26684WAT     H180294   9.058   2.050   3.406
26684WAT     H280295   9.141   1.997   3.276
26685WAT      O80296   5.775   7.085   1.077
26685WAT     H180297   5.828   7.116   0.998
26685WAT     H280298   5.781   6.985   1.084
26686WAT      O80299   9.344   7.322   3.480
26686WAT     H180300   9.295   7.401   3.444
26686WAT     H280301   9.397   7.350   3.560
26687WAT      O80302   7.463   5.819   8.137
26687WAT     H180303   7.372   5.791   8.106
26687WAT     H280304   7.526   5.822   8.059
26688WAT      O80305   8.935   9.740   0.520
26688WAT     H180306   8.935   9.674   0.595
26688WAT     H280307   9.030   9.762   0.495
26689WAT      O80308   1.790   9.482   8.497
26689WAT     H180309   1.808   9.447   8.589
26689WAT     H280310   1.819   9.578   8.491
26690WAT      O80311   6.792   7.421   0.837
26690WAT     H180312   6.735   7.370   0.773
26690WAT     H280313   6.767   7.398   0.931
26691WAT      O80314   2.132   9.807   5.773
26691WAT     H180315   2.216   9.859   5.757
26691WAT     H280316   2.146   9.711   5.747
26692WAT      O80317   3.976   1.106   8.507
26692WAT     H180318   4.004   1.087   8.601
26692WAT     H280319   4.030   1.051   8.443
26693WAT      O80320   3.211   4.623   4.060
26693WAT     H180321   3.154   4.657   4.136
26693WAT     H280322   3.281   4.562   4.096
26694WAT      O80323   4.973   1.642   6.091
26694WAT     H180324   4.889   1.696   6.078
26694WAT     H280325   4.954   1.564   6.149
26695WAT      O80326   5.306   9.377   5.288
26695WAT     H180327   5.273   9.299   5.234
26695WAT     H280328   5.254   9.459   5.263
26696WAT      O80329   2.323   1.286   1.821
26696WAT     H180330   2.290   1.345   1.747
26696WAT     H280331   2.359   1.201   1.782
26697WAT      O80332   5.072   6.763   8.772
26697WAT     H180333   5.150   6.713   8.811
26697WAT     H280334   5.100   6.856   8.749
26698WAT      O80335   5.950   3.093   7.313
26698WAT     H180336   5.941   3.172   7.252
26698WAT     H280337   5.916   3.011   7.266
26699WAT      O80338   1.710   8.774   1.762
26699WAT     H180339   1.642   8.804   1.695
26699WAT     H280340   1.706   8.832   1.843
26700WAT      O80341   6.974   4.345   4.956
26700WAT     H180342   6.924   4.300   4.882
26700WAT     H280343   6.913   4.406   5.006
26701WAT      O80344   4.846   6.541   2.859
26701WAT     H180345   4.846   6.587   2.770
26701WAT     H280346   4.926   6.569   2.911
26702WAT      O80347   2.208   0.228   0.600
26702WAT     H180348   2.307   0.244   0.600
26702WAT     H280349   2.166   0.281   0.526
26703WAT      O80350   0.895   4.215   7.938
26703WAT     H180351   0.852   4.133   7.900
26703WAT     H280352   0.992   4.197   7.954
26704WAT      O80353   7.510   7.643   7.382
26704WAT     H180354   7.458   7.562   7.355
26704WAT     H280355   7.470   7.682   7.465
26705WAT      O80356   5.503   5.380   5.757
26705WAT     H180357   5.545   5.456   5.708
26705WAT     H280358   5.431   5.340   5.700
26706WAT      O80359   9.229   9.781   3.250
26706WAT     H180360   9.324   9.787   3.281
26706WAT     H280361   9.217   9.698   3.195
26707WAT      O80362   4.855   8.357   2.233
26707WAT     H180363   4.857   8.263   2.198
26707WAT     H280364   4.763   8.395   2.224
26708WAT      O80365   8.944   7.365   4.838
26708WAT     H180366   8.983   7.455   4.819
26708WAT     H280367   8.947   7.348   4.937
26709WAT      O80368   8.467   4.447   0.709
26709WAT     H180369   8.429   4.518   0.650
26709WAT     H280370   8.392   4.398   0.754
26710WAT      O80371   9.560   2.998   4.006
26710WAT     H180372   9.489   3.013   4.075
26710WAT     H280373   9.525   2.936   3.936
26711WAT      O80374   6.129   2.265   3.522
26711WAT     H180375   6.145   2.172   3.553
26711WAT     H280376   6.160   2.275   3.428
26712WAT      O80377   2.744   7.462   5.462
26712WAT     H180378   2.702   7.408   5.535
26712WAT     H280379   2.836   7.490   5.490
26713WAT      O80380   0.683   0.340   6.864
26713WAT     H180381   0.594   0.309   6.899
26713WAT     H280382   0.670   0.389   6.779
26714WAT      O80383   2.259   8.567   2.758
26714WAT     H180384   2.184   8.630   2.739
26714WAT     H280385   2.279   8.568   2.856
26715WAT      O80386   3.908   0.696   1.520
26715WAT     H180387   3.877   0.653   1.436
26715WAT     H280388   3.958   0.629   1.576
26716WAT      O80389   8.569   0.292   0.732
26716WAT     H180390   8.591   0.220   0.798
26716WAT     H280391   8.556   0.378   0.781
26717WAT      O80392   6.000   7.757   5.770
26717WAT     H180393   5.926   7.690   5.772
26717WAT     H280394   6.040   7.760   5.678
26718WAT      O80395   5.585   8.648   1.379
26718WAT     H180396   5.520   8.573   1.364
26718WAT     H280397   5.538   8.735   1.368
26719WAT      O80398   4.112   9.140   0.147
26719WAT     H180399   4.146   9.171   0.058
26719WAT     H280400   4.143   9.202   0.219
26720WAT      O80401   5.025   8.307   7.974
26720WAT     H180402   5.049   8.288   7.879
26720WAT     H280403   5.078   8.386   8.007
26721WAT      O80404   4.079   5.422   9.635
26721WAT     H180405   4.059   5.327   9.612
26721WAT     H280406   3.995   5.476   9.630
26722WAT      O80407   6.298   7.548   9.175
26722WAT     H180408   6.248   7.600   9.106
26722WAT     H280409   6.279   7.586   9.265
26723WAT      O80410   4.474   2.285   4.353
26723WAT     H180411   4.473   2.293   4.453
26723WAT     H280412   4.382   2.262   4.321
26724WAT      O80413   0.823   0.242   2.066
26724WAT     H180414   0.894   0.177   2.042
26724WAT     H280415   0.734   0.208   2.034
26725WAT      O80416   6.743   2.724   1.896
26725WAT     H180417   6.732   2.678   1.983
26725WAT     H280418   6.821   2.684   1.846
26726WAT      O80419   2.016   0.195   8.536
26726WAT     H180420   1.957   0.151   8.469
26726WAT     H280421   2.052   0.280   8.497
26727WAT      O80422   7.108   1.429   4.651
26727WAT     H180423   7.146   1.361   4.589
26727WAT     H280424   7.179   1.494   4.678
26728WAT      O80425   1.303   0.200   6.853
26728WAT     H180426   1.311   0.147   6.938
26728WAT     H280427   1.214   0.246   6.851
26729WAT      O80428   3.442   5.918   6.842
26729WAT     H180429   3.471   5.855   6.914
26729WAT     H280430   3.519   5.976   6.816
26730WAT      O80431   9.239   2.293   4.247
26730WAT     H180432   9.289   2.324   4.166
26730WAT     H280433   9.235   2.366   4.315
26731WAT      O80434   6.794   0.005   7.329
26731WAT     H180435   6.841  -0.074   7.368
26731WAT     H280436   6.714   0.027   7.384
26732WAT      O80437   5.852   7.134   5.594
26732WAT     H180438   5.766   7.176   5.564
26732WAT     H280439   5.923   7.150   5.525
26733WAT      O80440   7.971   1.766   2.367
26733WAT     H180441   7.973   1.766   2.267
26733WAT     H280442   8.057   1.727   2.402
26734WAT      O80443   2.854   8.513   7.518
26734WAT     H180444   2.911   8.595   7.516
26734WAT     H280445   2.866   8.462   7.432
26735WAT      O80446   5.152   4.255   8.516
26735WAT     H180447   5.177   4.164   8.484
26735WAT     H280448   5.133   4.253   8.614
26736WAT      O80449   0.163   5.238   1.407
26736WAT     H180450   0.240   5.243   1.344
26736WAT     H280451   0.126   5.330   1.422
26737WAT      O80452   2.879   5.391   7.347
26737WAT     H180453   2.900   5.361   7.440
26737WAT     H280454   2.780   5.400   7.336
26738WAT      O80455   3.585   3.219   1.436
26738WAT     H180456   3.557   3.152   1.504
26738WAT     H280457   3.530   3.207   1.353
26739WAT      O80458   8.315   4.265   2.659
26739WAT     H180459   8.301   4.263   2.560
26739WAT     H280460   8.345   4.174   2.690
26740WAT      O80461   4.058   0.353   8.016
26740WAT     H180462   4.067   0.389   8.109
26740WAT     H280463   4.047   0.253   8.021
26741WAT      O80464   5.381   8.890   4.414
26741WAT     H180465   5.384   8.809   4.472
26741WAT     H280466   5.452   8.954   4.444
26742WAT      O80467   8.491   8.910   4.050
26742WAT     H180468   8.527   8.939   3.962
26742WAT     H280469   8.401   8.869   4.037
26743WAT      O80470   8.301   1.697   4.129
26743WAT     H180471   8.318   1.728   4.223
26743WAT     H280472   8.207   1.664   4.122
26744WAT      O80473   4.745   2.323   7.875
26744WAT     H180474   4.718   2.325   7.779
26744WAT     H280475   4.731   2.413   7.916
26745WAT      O80476   7.301   3.529   4.725
26745WAT     H180477   7.284   3.590   4.802
26745WAT     H280478   7.395   3.494   4.730
26746WAT      O80479   4.361   1.035   9.489
26746WAT     H180480   4.367   1.131   9.517
26746WAT     H280481   4.453   0.996   9.482
26747WAT      O80482   7.106   8.926   7.805
26747WAT     H180483   7.060   8.843   7.835
26747WAT     H280484   7.060   8.962   7.724
26748WAT      O80485   0.793   0.691   7.814
26748WAT     H180486   0.856   0.615   7.832
26748WAT     H280487   0.845   0.771   7.787
26749WAT      O80488   6.881   7.011   1.912
26749WAT     H180489   6.798   7.062   1.936
26749WAT     H280490   6.954   7.074   1.889
26750WAT      O80491   4.283   1.926   1.883
26750WAT     H180492   4.274   1.999   1.815
26750WAT     H280493   4.204   1.930   1.945
26751WAT      O80494   3.075   1.459   2.523
26751WAT     H180495   3.153   1.407   2.559
26751WAT     H280496   3.000   1.457   2.589
26752WAT      O80497   7.071   6.940   6.660
26752WAT     H180498   7.153   6.888   6.686
26752WAT     H280499   6.992   6.904   6.709
26753WAT      O80500   7.221   1.664   5.604
26753WAT     H180501   7.202   1.746   5.657
26753WAT     H280502   7.141   1.641   5.547
26754WAT      O80503   7.568   6.309   7.940
26754WAT     H180504   7.509   6.298   8.019
26754WAT     H280505   7.548   6.397   7.895
26755WAT      O80506   2.591   9.451   9.310
26755WAT     H180507   2.631   9.508   9.382
26755WAT     H280508   2.527   9.385   9.351
26756WAT      O80509   7.231   7.309   4.464
26756WAT     H180510   7.258   7.403   4.445
26756WAT     H280511   7.138   7.308   4.503
26757WAT      O80512   3.880   4.452   9.561
26757WAT     H180513   3.902   4.549   9.567
26757WAT     H280514   3.791   4.435   9.603
26758WAT      O80515   1.412   2.969   7.468
26758WAT     H180516   1.414   2.884   7.522
26758WAT     H280517   1.331   2.969   7.409
26759WAT      O80518   3.884   4.866   0.205
26759WAT     H180519   3.928   4.787   0.163
26759WAT     H280520   3.895   4.946   0.145
26760WAT      O80521   7.088   0.540   5.146
26760WAT     H180522   7.104   0.572   5.052
26760WAT     H280523   7.064   0.617   5.204
26761WAT      O80524   1.266   4.113   6.543
26761WAT     H180525   1.316   4.058   6.610
26761WAT     H280526   1.317   4.115   6.457
26762WAT      O80527   5.106   4.810   8.794
26762WAT     H180528   5.050   4.736   8.832
26762WAT     H280529   5.060   4.850   8.715
26763WAT      O80530   8.585   1.460   3.281
26763WAT     H180531   8.521   1.392   3.245
26763WAT     H280532   8.653   1.482   3.211
26764WAT      O80533   3.930   5.691   3.046
26764WAT     H180534   3.916   5.758   3.119
26764WAT     H280535   3.844   5.643   3.029
26765WAT      O80536   4.410   1.741   7.293
26765WAT     H180537   4.452   1.758   7.204
26765WAT     H280538   4.353   1.659   7.289
26766WAT      O80539   8.226   8.262   7.252
26766WAT     H180540   8.214   8.358   7.228
26766WAT     H280541   8.324   8.240   7.253
26767WAT      O80542   0.996   5.656   4.608
26767WAT     H180543   0.909   5.610   4.627
26767WAT     H280544   1.072   5.596   4.634
26768WAT      O80545   0.634   5.769   4.492
26768WAT     H180546   0.714   5.816   4.531
26768WAT     H280547   0.552   5.822   4.513
26769WAT      O80548   3.788   3.512   1.295
26769WAT     H180549   3.767   3.437   1.232
26769WAT     H280550   3.800   3.476   1.387
26770WAT      O80551   4.225   5.671   3.236
26770WAT     H180552   4.218   5.600   3.167
26770WAT     H280553   4.133   5.704   3.259
26771WAT      O80554   5.451   6.859   2.061
26771WAT     H180555   5.454   6.928   1.989
26771WAT     H280556   5.543   6.821   2.075
26772WAT      O80557   2.136   8.284   7.866
26772WAT     H180558   2.181   8.208   7.820
26772WAT     H280559   2.037   8.268   7.869
26773WAT      O80560   2.217   0.830   6.109
26773WAT     H180561   2.221   0.817   6.010
26773WAT     H280562   2.310   0.840   6.145
26774WAT      O80563   2.524   4.719   8.206
26774WAT     H180564   2.429   4.692   8.219
26774WAT     H280565   2.537   4.750   8.112
26775WAT      O80566   0.450   1.405   3.492
26775WAT     H180567   0.443   1.312   3.455
26775WAT     H280568   0.411   1.469   3.426
26776WAT      O80569   6.314   4.514   0.318
26776WAT     H180570   6.300   4.568   0.235
26776WAT     H280571   6.226   4.488   0.356
26777WAT      O80572   4.885   6.175   9.153
26777WAT     H180573   4.873   6.128   9.065
26777WAT     H280574   4.830   6.259   9.154
26778WAT      O80575   1.673   9.520   8.982
26778WAT     H180576   1.754   9.562   9.023
26778WAT     H280577   1.674   9.536   8.883
26779WAT      O80578   7.585   9.222   1.645
26779WAT     H180579   7.485   9.230   1.642
26779WAT     H280580   7.626   9.313   1.641
26780WAT      O80581   6.577   8.554   5.960
26780WAT     H180582   6.505   8.617   5.932
26780WAT     H280583   6.663   8.580   5.918
26781WAT      O80584   4.713   5.267   9.025
26781WAT     H180585   4.622   5.310   9.020
26781WAT     H280586   4.713   5.197   9.096
26782WAT      O80587   3.578   3.335   0.471
26782WAT     H180588   3.504   3.342   0.403
26782WAT     H280589   3.664   3.365   0.430
26783WAT      O80590   7.330   5.999   2.118
26783WAT     H180591   7.234   5.984   2.093
26783WAT     H280592   7.368   6.071   2.060
26784WAT      O80593   0.827   7.636   1.894
26784WAT     H180594   0.854   7.715   1.949
26784WAT     H280595   0.734   7.649   1.861
26785WAT      O80596   4.536   8.645   3.637
26785WAT     H180597   4.525   8.548   3.616
26785WAT     H280598   4.539   8.697   3.552
26786WAT      O80599   6.454   0.094   9.286
26786WAT     H180600   6.507   0.049   9.359
26786WAT     H280601   6.506   0.090   9.201
26787WAT      O80602   1.444   1.449   8.552
26787WAT     H180603   1.346   1.456   8.536
26787WAT     H280604   1.477   1.362   8.515
26788WAT      O80605   0.156   1.779   7.853
26788WAT     H180606   0.213   1.819   7.781
26788WAT     H280607   0.195   1.692   7.882
26789WAT      O80608   0.942   4.875   4.579
26789WAT     H180609   0.953   4.783   4.543
26789WAT     H280610   1.033   4.915   4.596
26790WAT      O80611   2.662   0.990   0.664
26790WAT     H180612   2.614   0.910   0.628
26790WAT     H280613   2.666   0.983   0.764
26791WAT      O80614   4.032   7.964   8.483
26791WAT     H180615   4.099   7.973   8.410
26791WAT     H280616   4.025   8.050   8.533
26792WAT      O80617   3.287   5.021   8.102
26792WAT     H180618   3.264   5.048   8.008
26792WAT     H280619   3.300   4.922   8.106
26793WAT      O80620   4.738   1.664   5.421
26793WAT     H180621   4.642   1.692   5.420
26793WAT     H280622   4.756   1.610   5.504
26794WAT      O80623   7.106   4.603   7.743
26794WAT     H180624   7.111   4.557   7.655
26794WAT     H280625   7.026   4.664   7.745
26795WAT      O80626   5.079   3.778   4.774
26795WAT     H180627   5.145   3.709   4.802
26795WAT     H280628   5.039   3.821   4.855
26796WAT      O80629   5.462   3.729   3.813
26796WAT     H180630   5.529   3.796   3.781
26796WAT     H280631   5.477   3.710   3.910
26797WAT      O80632   0.267   6.997   5.406
26797WAT     H180633   0.228   6.982   5.497
26797WAT     H280634   0.215   6.945   5.338
26798WAT      O80635   8.061   6.701   1.124
26798WAT     H180636   8.046   6.602   1.131
26798WAT     H280637   8.067   6.727   1.028
26799WAT      O80638   2.205   6.618   3.872
26799WAT     H180639   2.182   6.698   3.927
26799WAT     H280640   2.127   6.555   3.870
26800WAT      O80641   7.895   2.621   8.221
26800WAT     H180642   7.831   2.550   8.250
26800WAT     H280643   7.849   2.710   8.220
26801WAT      O80644   5.944   2.734   9.170
26801WAT     H180645   5.927   2.794   9.092
26801WAT     H280646   6.029   2.684   9.156
26802WAT      O80647   6.567   7.561   4.774
26802WAT     H180648   6.478   7.514   4.767
26802WAT     H280649   6.608   7.540   4.863
26803WAT      O80650   4.551   3.976   3.385
26803WAT     H180651   4.474   3.998   3.446
26803WAT     H280652   4.562   4.050   3.318
26804WAT      O80653   2.729   7.046   8.882
26804WAT     H180654   2.781   7.051   8.967
26804WAT     H280655   2.648   7.103   8.888
26805WAT      O80656   1.061   5.018   9.033
26805WAT     H180657   1.129   4.977   9.093
26805WAT     H280658   1.066   5.118   9.040
26806WAT      O80659   5.617   1.022   2.134
26806WAT     H180660   5.600   0.924   2.127
26806WAT     H280661   5.556   1.072   2.073
26807WAT      O80662   4.838   1.012   1.740
26807WAT     H180663   4.908   1.074   1.776
26807WAT     H280664   4.782   1.062   1.673
26808WAT      O80665   2.128   2.838   8.102
26808WAT     H180666   2.196   2.795   8.041
26808WAT     H280667   2.081   2.911   8.052
26809WAT      O80668   5.955   5.322   6.061
26809WAT     H180669   5.923   5.337   5.967
26809WAT     H280670   6.033   5.382   6.079
26810WAT      O80671   6.047   2.185   2.119
26810WAT     H180672   6.121   2.229   2.171
26810WAT     H280673   6.082   2.103   2.075
26811WAT      O80674   7.747   7.478   6.427
26811WAT     H180675   7.808   7.550   6.395
26811WAT     H280676   7.662   7.519   6.460
26812WAT      O80677   9.680   4.433   1.968
26812WAT     H180678   9.724   4.495   1.904
26812WAT     H280679   9.670   4.343   1.926
26813WAT      O80680   5.846   2.909   1.706
26813WAT     H180681   5.842   2.819   1.750
26813WAT     H280682   5.759   2.927   1.660
26814WAT      O80683   3.291   1.691   1.693
26814WAT     H180684   3.260   1.705   1.599
26814WAT     H280685   3.211   1.678   1.753
26815WAT      O80686   9.004   6.921   1.461
26815WAT     H180687   9.071   6.865   1.411
26815WAT     H280688   8.914   6.878   1.455
26816WAT      O80689   8.665   5.003   7.874
26816WAT     H180690   8.611   5.087   7.868
26816WAT     H280691   8.732   5.001   7.800
26817WAT      O80692   3.672   1.336   2.722
26817WAT     H180693   3.711   1.428   2.724
26817WAT     H280694   3.743   1.269   2.700
26818WAT      O80695   4.601   6.883   7.847
26818WAT     H180696   4.502   6.883   7.858
26818WAT     H280697   4.634   6.789   7.838
26819WAT      O80698   7.453   8.973   6.456
26819WAT     H180699   7.523   8.951   6.524
26819WAT     H280700   7.440   8.895   6.394
26820WAT      O80701   5.814   5.445   7.643
26820WAT     H180702   5.734   5.391   7.618
26820WAT     H280703   5.876   5.388   7.698
26821WAT      O80704   3.254   9.763   8.342
26821WAT     H180705   3.210   9.677   8.366
26821WAT     H280706   3.248   9.826   8.420
26822WAT      O80707   2.991   6.234   8.577
26822WAT     H180708   2.989   6.156   8.514
26822WAT     H280709   3.078   6.235   8.626
26823WAT      O80710   0.324   9.520   1.330
26823WAT     H180711   0.324   9.428   1.292
26823WAT     H280712   0.232   9.558   1.326
26824WAT      O80713   8.662   4.214   8.030
26824WAT     H180714   8.730   4.277   8.069
26824WAT     H280715   8.696   4.121   8.037
26825WAT      O80716   7.558   4.520   5.369
26825WAT     H180717   7.536   4.613   5.397
26825WAT     H280718   7.504   4.496   5.288
26826WAT      O80719   4.812   4.967   6.965
26826WAT     H180720   4.714   4.951   6.953
26826WAT     H280721   4.831   5.065   6.958
26827WAT      O80722   5.558   9.826   3.707
26827WAT     H180723   5.488   9.773   3.754
26827WAT     H280724   5.536   9.834   3.610
26828WAT      O80725   5.401   3.173   4.224
26828WAT     H180726   5.336   3.098   4.222
26828WAT     H280727   5.413   3.205   4.318
26829WAT      O80728   6.519   3.118   9.398
26829WAT     H180729   6.432   3.165   9.410
26829WAT     H280730   6.502   3.025   9.364
26830WAT      O80731   6.304   7.684   0.879
26830WAT     H180732   6.394   7.727   0.870
26830WAT     H280733   6.287   7.625   0.801
26831WAT      O80734   6.887   8.478   8.379
26831WAT     H180735   6.824   8.417   8.427
26831WAT     H280736   6.940   8.426   8.313
26832WAT      O80737   1.836   5.077   1.806
26832WAT     H180738   1.876   5.169   1.805
26832WAT     H280739   1.885   5.018   1.743
26833WAT      O80740   2.721   0.733   2.471
26833WAT     H180741   2.750   0.701   2.561
26833WAT     H280742   2.647   0.800   2.481
26834WAT      O80743   6.644   8.451   3.151
26834WAT     H180744   6.613   8.452   3.246
26834WAT     H280745   6.614   8.535   3.106
26835WAT      O80746   8.095   6.388   2.467
26835WAT     H180747   8.153   6.342   2.534
26835WAT     H280748   8.064   6.476   2.503
26836WAT      O80749   7.154   7.067   4.368
26836WAT     H180750   7.190   7.156   4.395
26836WAT     H280751   7.163   7.003   4.445
26837WAT      O80752   4.628   2.793   9.360
26837WAT     H180753   4.550   2.818   9.417
26837WAT     H280754   4.616   2.832   9.269
26838WAT      O80755   4.442   0.669   2.944
26838WAT     H180756   4.521   0.707   2.993
26838WAT     H280757   4.358   0.696   2.990
26839WAT      O80758   7.167   6.023   0.374
26839WAT     H180759   7.140   6.050   0.282
26839WAT     H280760   7.102   5.956   0.409
26840WAT      O80761   9.842   0.111   2.514
26840WAT     H180762   9.890   0.137   2.430
26840WAT     H280763   9.905   0.064   2.575
26841WAT      O80764   3.962   8.791   2.697
26841WAT     H180765   4.026   8.792   2.621
26841WAT     H280766   3.877   8.837   2.670
26842WAT      O80767   1.603   6.910   4.820
26842WAT     H180768   1.605   7.009   4.806
26842WAT     H280769   1.556   6.889   4.906
26843WAT      O80770   1.119   6.281   5.416
26843WAT     H180771   1.028   6.249   5.443
26843WAT     H280772   1.110   6.349   5.344
26844WAT      O80773   5.565   8.491   9.220
26844WAT     H180774   5.485   8.459   9.169
26844WAT     H280775   5.593   8.420   9.285
26845WAT      O80776   8.179   9.541   3.574
26845WAT     H180777   8.185   9.637   3.548
26845WAT     H280778   8.084   9.517   3.595
26846WAT      O80779   1.556   3.435   6.393
26846WAT     H180780   1.642   3.385   6.403
26846WAT     H280781   1.511   3.407   6.309
26847WAT      O80782   8.561   7.911   3.972
26847WAT     H180783   8.537   8.008   3.974
26847WAT     H280784   8.530   7.868   4.057
26848WAT      O80785   8.850   9.036   5.795
26848WAT     H180786   8.792   8.956   5.784
26848WAT     H280787   8.936   9.009   5.839
26849WAT      O80788   8.639   6.949   6.300
26849WAT     H180789   8.592   6.991   6.378
26849WAT     H280790   8.639   7.012   6.223
26850WAT      O80791   6.075   0.070   0.190
26850WAT     H180792   6.044   0.165   0.195
26850WAT     H280793   5.996   0.009   0.191
26851WAT      O80794   0.659   4.846   4.179
26851WAT     H180795   0.742   4.830   4.126
26851WAT     H280796   0.683   4.896   4.263
26852WAT      O80797   3.968   5.801   3.326
26852WAT     H180798   3.902   5.873   3.304
26852WAT     H280799   3.939   5.754   3.410
26853WAT      O80800   7.843   3.490   8.041
26853WAT     H180801   7.887   3.441   7.966
26853WAT     H280802   7.752   3.452   8.057
26854WAT      O80803   6.466   2.318   0.888
26854WAT     H180804   6.468   2.390   0.957
26854WAT     H280805   6.376   2.318   0.842
26855WAT      O80806   9.269   8.574   1.402
26855WAT     H180807   9.203   8.531   1.341
26855WAT     H280808   9.244   8.554   1.497
26856WAT      O80809   1.068   9.244   2.244
26856WAT     H180810   1.094   9.322   2.300
26856WAT     H280811   1.006   9.184   2.296
26857WAT      O80812   6.036   1.768   2.077
26857WAT     H180813   6.070   1.717   1.998
26857WAT     H280814   6.071   1.861   2.073
26858WAT      O80815   0.378   2.124   6.444
26858WAT     H180816   0.469   2.165   6.434
26858WAT     H280817   0.318   2.162   6.374
26859WAT      O80818   4.579   3.526   8.776
26859WAT     H180819   4.586   3.440   8.826
26859WAT     H280820   4.495   3.573   8.802
26860WAT      O80821   9.024   2.491   0.542
26860WAT     H180822   8.935   2.536   0.545
26860WAT     H280823   9.082   2.539   0.476
26861WAT      O80824   1.144   9.149   5.866
26861WAT     H180825   1.180   9.229   5.914
26861WAT     H280826   1.048   9.136   5.891
26862WAT      O80827   1.377   8.478   7.159
26862WAT     H180828   1.369   8.568   7.203
26862WAT     H280829   1.301   8.420   7.188
26863WAT      O80830   9.193   2.115   3.742
26863WAT     H180831   9.132   2.193   3.751
26863WAT     H280832   9.288   2.146   3.742
26864WAT      O80833   9.006   9.841   2.415
26864WAT     H180834   8.959   9.798   2.492
26864WAT     H280835   8.999   9.782   2.335
26865WAT      O80836   2.513   0.247   0.649
26865WAT     H180837   2.529   0.285   0.558
26865WAT     H280838   2.597   0.205   0.682
26866WAT      O80839   7.053   6.262   2.494
26866WAT     H180840   7.111   6.331   2.450
26866WAT     H280841   7.101   6.221   2.571
26867WAT      O80842   1.405   7.612   4.330
26867WAT     H180843   1.502   7.606   4.354
26867WAT     H280844   1.349   7.595   4.411
26868WAT      O80845   0.854   4.411   3.319
26868WAT     H180846   0.908   4.381   3.240
26868WAT     H280847   0.757   4.394   3.302
26869WAT      O80848   4.240   9.266   7.451
26869WAT     H180849   4.293   9.183   7.433
26869WAT     H280850   4.235   9.282   7.549
26870WAT      O80851   0.324   1.745   9.761
26870WAT     H180852   0.247   1.774   9.817
26870WAT     H280853   0.390   1.820   9.752
26871WAT      O80854   3.244   5.521   8.151
26871WAT     H180855   3.150   5.554   8.147
26871WAT     H280856   3.306   5.599   8.160
26872WAT      O80857   3.498   1.740   8.872
26872WAT     H180858   3.565   1.719   8.944
26872WAT     H280859   3.428   1.801   8.909
26873WAT      O80860   8.640   9.226   3.244
26873WAT     H180861   8.665   9.297   3.178
26873WAT     H280862   8.681   9.248   3.333
26874WAT      O80863   8.693   7.787   1.628
26874WAT     H180864   8.701   7.839   1.543
26874WAT     H280865   8.768   7.812   1.690
26875WAT      O80866   1.768   1.947   3.508
26875WAT     H180867   1.711   1.976   3.431
26875WAT     H280868   1.718   1.879   3.563
26876WAT      O80869   6.091   7.118   2.492
26876WAT     H180870   6.046   7.030   2.503
26876WAT     H280871   6.149   7.137   2.571
26877WAT      O80872   1.549   0.436   9.331
26877WAT     H180873   1.577   0.439   9.235
26877WAT     H280874   1.604   0.367   9.379
26878WAT      O80875   2.314   3.634   5.221
26878WAT     H180876   2.275   3.596   5.137
26878WAT     H280877   2.269   3.594   5.301
26879WAT      O80878   1.850   5.881   1.014
26879WAT     H180879   1.750   5.873   1.018
26879WAT     H280880   1.876   5.932   0.932
26880WAT      O80881   5.648   6.217   3.252
26880WAT     H180882   5.575   6.253   3.309
26880WAT     H280883   5.644   6.260   3.162
26881WAT      O80884   6.906   9.733   3.591
26881WAT     H180885   6.956   9.646   3.591
26881WAT     H280886   6.923   9.781   3.505
26882WAT      O80887   4.557   0.512   1.012
26882WAT     H180888   4.500   0.519   1.094
26882WAT     H280889   4.521   0.440   0.953
26883WAT      O80890   4.999   1.795   8.092
26883WAT     H180891   5.000   1.883   8.043
26883WAT     H280892   5.076   1.739   8.061
26884WAT      O80893   7.934   7.325   2.793
26884WAT     H180894   7.889   7.240   2.820
26884WAT     H280895   7.914   7.343   2.697
26885WAT      O80896   9.570   6.336   5.002
26885WAT     H180897   9.663   6.352   4.971
26885WAT     H280898   9.506   6.349   4.926
26886WAT      O80899   2.477   3.421   0.166
26886WAT     H180900   2.567   3.383   0.145
26886WAT     H280901   2.477   3.519   0.148
26887WAT      O80902   8.306   4.911   6.538
26887WAT     H180903   8.266   4.834   6.488
26887WAT     H280904   8.321   4.987   6.475
26888WAT      O80905   8.091   8.686   3.540
26888WAT     H180906   8.017   8.741   3.578
26888WAT     H280907   8.108   8.715   3.445
26889WAT      O80908   9.211   9.253   0.238
26889WAT     H180909   9.253   9.241   0.328
26889WAT     H280910   9.274   9.303   0.179
26890WAT      O80911   2.581   3.756   8.494
26890WAT     H180912   2.584   3.769   8.593
26890WAT     H280913   2.578   3.658   8.473
26891WAT      O80914   6.857   3.886   0.859
26891WAT     H180915   6.869   3.820   0.785
26891WAT     H280916   6.863   3.840   0.947
26892WAT      O80917   6.453   5.437   5.659
26892WAT     H180918   6.452   5.371   5.735
26892WAT     H280919   6.360   5.454   5.628
26893WAT      O80920   5.644   4.173   7.050
26893WAT     H180921   5.613   4.205   6.960
26893WAT     H280922   5.578   4.200   7.120
26894WAT      O80923   1.770   3.622   6.147
26894WAT     H180924   1.725   3.686   6.209
26894WAT     H280925   1.706   3.549   6.123
26895WAT      O80926   2.709   7.898   8.749
26895WAT     H180927   2.613   7.904   8.724
26895WAT     H280928   2.722   7.935   8.841
26896WAT      O80929   2.873   8.649   3.505
26896WAT     H180930   2.792   8.706   3.521
26896WAT     H280931   2.885   8.585   3.581
26897WAT      O80932   9.006   9.034   5.543
26897WAT     H180933   9.010   9.133   5.534
26897WAT     H280934   8.946   9.009   5.619
26898WAT      O80935   0.679   6.115   9.098
26898WAT     H180936   0.646   6.202   9.134
26898WAT     H280937   0.776   6.104   9.118
26899WAT      O80938   8.438   3.009   9.025
26899WAT     H180939   8.500   3.001   9.104
26899WAT     H280940   8.417   2.918   8.990
26900WAT      O80941   7.260   6.541   4.397
26900WAT     H180942   7.162   6.556   4.384
26900WAT     H280943   7.309   6.627   4.379
26901WAT      O80944   4.724   3.326   8.241
26901WAT     H180945   4.677   3.399   8.192
26901WAT     H280946   4.683   3.314   8.331
26902WAT      O80947   5.222   5.879   7.671
26902WAT     H180948   5.296   5.865   7.606
26902WAT     H280949   5.145   5.923   7.625
26903WAT      O80950   6.142   2.774   0.138
26903WAT     H180951   6.078   2.732   0.073
26903WAT     H280952   6.180   2.704   0.198
26904WAT      O80953   9.845   2.986   4.591
26904WAT     H180954   9.913   2.994   4.663
26904WAT     H280955   9.784   3.066   4.593
26905WAT      O80956   4.987   9.186   3.457
26905WAT     H180957   4.923   9.251   3.499
26905WAT     H280958   4.996   9.206   3.359
26906WAT      O80959   2.175   9.668   5.077
26906WAT     H180960   2.123   9.753   5.070
26906WAT     H280961   2.112   9.593   5.099
26907WAT      O80962   9.287   5.598   3.040
26907WAT     H180963   9.312   5.642   2.953
26907WAT     H280964   9.190   5.615   3.059
26908WAT      O80965   4.455   3.156   3.542
26908WAT     H180966   4.504   3.100   3.609
26908WAT     H280967   4.375   3.106   3.509
26909WAT      O80968   4.483   6.208   4.204
26909WAT     H180969   4.429   6.292   4.199
26909WAT     H280970   4.523   6.188   4.115
26910WAT      O80971   0.097   2.563   0.978
26910WAT     H180972   0.019   2.549   1.039
26910WAT     H280973   0.104   2.486   0.914
26911WAT      O80974   8.706   2.429   0.846
26911WAT     H180975   8.665   2.509   0.891
26911WAT     H280976   8.633   2.371   0.809
26912WAT      O80977   2.806   2.093   1.469
26912WAT     H180978   2.812   2.080   1.370
26912WAT     H280979   2.730   2.038   1.505
26913WAT      O80980   8.811   6.045   1.429
26913WAT     H180981   8.804   6.143   1.416
26913WAT     H280982   8.874   6.026   1.504
26914WAT      O80983   9.511   8.145   5.974
26914WAT     H180984   9.565   8.152   6.058
26914WAT     H280985   9.468   8.055   5.970
26915WAT      O80986   4.716   7.460   8.729
26915WAT     H180987   4.696   7.547   8.775
26915WAT     H280988   4.730   7.389   8.798
26916WAT      O80989   7.530   0.051   9.529
26916WAT     H180990   7.518   0.073   9.432
26916WAT     H280991   7.627   0.060   9.554
26917WAT      O80992   2.599   0.072   9.494
26917WAT     H180993   2.601   0.139   9.569
26917WAT     H280994   2.683   0.017   9.496
26918WAT      O80995   4.958   5.012   2.052
26918WAT     H180996   4.910   4.941   2.001
26918WAT     H280997   5.036   4.971   2.101
26919WAT      O80998   6.283   6.015   6.291
26919WAT     H180999   6.342   5.939   6.266
26919WAT     H281000   6.193   5.980   6.316
26920WAT      O81001   6.096   1.666   1.116
26920WAT     H181002   6.007   1.648   1.073
26920WAT     H281003   6.162   1.693   1.046
26921WAT      O81004   0.925   9.662   3.637
26921WAT     H181005   0.914   9.630   3.543
26921WAT     H281006   0.928   9.583   3.699
26922WAT      O81007   6.121   8.743   8.923
26922WAT     H181008   6.177   8.679   8.870
26922WAT     H281009   6.080   8.810   8.861
26923WAT      O81010   0.116   3.059   8.282
26923WAT     H181011   0.118   3.041   8.184
26923WAT     H281012   0.179   3.135   8.303
26924WAT      O81013   4.129   7.803   7.197
26924WAT     H181014   4.054   7.802   7.131
26924WAT     H281015   4.091   7.804   7.290
26925WAT      O81016   6.400   8.334   6.815
26925WAT     H181017   6.326   8.299   6.873
26925WAT     H281018   6.423   8.266   6.745
26926WAT      O81019   3.705   0.604   1.929
26926WAT     H181020   3.799   0.594   1.961
26926WAT     H281021   3.692   0.696   1.892
26927WAT      O81022   4.923   2.958   2.009
26927WAT     H181023   4.920   2.936   2.107
26927WAT     H281024   4.831   2.969   1.974
26928WAT      O81025   7.118   3.281   8.134
26928WAT     H181026   7.036   3.228   8.157
26928WAT     H281027   7.168   3.304   8.218
26929WAT      O81028   8.009   4.939   6.115
26929WAT     H181029   8.001   4.980   6.205
26929WAT     H281030   8.022   4.840   6.124
26930WAT      O81031   9.203   3.912   2.729
26930WAT     H181032   9.301   3.934   2.736
26930WAT     H281033   9.169   3.942   2.640
26931WAT      O81034   1.004   6.094   0.782
26931WAT     H181035   1.024   6.047   0.868
26931WAT     H281036   0.965   6.029   0.717
26932WAT      O81037   3.059   2.678   7.792
26932WAT     H181038   3.087   2.714   7.703
26932WAT     H281039   2.985   2.613   7.780
26933WAT      O81040   0.789   4.959   9.021
26933WAT     H181041   0.771   4.869   8.983
26933WAT     H281042   0.887   4.972   9.033
26934WAT      O81043   4.918   5.542   6.174
26934WAT     H181044   5.013   5.519   6.195
26934WAT     H281045   4.872   5.461   6.139
26935WAT      O81046   3.801   7.162   5.831
26935WAT     H181047   3.872   7.214   5.879
26935WAT     H281048   3.841   7.113   5.755
26936WAT      O81049   1.845   3.072   5.649
26936WAT     H181050   1.888   2.994   5.693
26936WAT     H281051   1.904   3.107   5.576
26937WAT      O81052   2.364   3.349   5.517
26937WAT     H181053   2.346   3.285   5.442
26937WAT     H281054   2.461   3.370   5.520
26938WAT      O81055   8.835   2.442   4.835
26938WAT     H181056   8.800   2.515   4.894
26938WAT     H281057   8.773   2.429   4.757
26939WAT      O81058   2.549   5.186   6.560
26939WAT     H181059   2.569   5.248   6.485
26939WAT     H281060   2.495   5.233   6.629
26940WAT      O81061   5.163   4.115   1.048
26940WAT     H181062   5.166   4.032   1.104
26940WAT     H281063   5.074   4.159   1.058
26941WAT      O81064   6.599   1.079   6.760
26941WAT     H181065   6.570   1.168   6.726
26941WAT     H281066   6.670   1.091   6.829
26942WAT      O81067   7.357   1.655   0.021
26942WAT     H181068   7.290   1.714  -0.023
26942WAT     H281069   7.328   1.636   0.115
26943WAT      O81070   2.370   8.345   5.115
26943WAT     H181071   2.413   8.389   5.194
26943WAT     H281072   2.402   8.388   5.031
26944WAT      O81073   9.558   1.415   9.568
26944WAT     H181074   9.586   1.420   9.472
26944WAT     H281075   9.623   1.464   9.625
26945WAT      O81076   5.540   5.803   1.665
26945WAT     H181077   5.515   5.791   1.761
26945WAT     H281078   5.524   5.898   1.638
26946WAT      O81079   5.502   2.805   5.474
26946WAT     H181080   5.527   2.724   5.422
26946WAT     H281081   5.485   2.780   5.569
26947WAT      O81082   3.294   0.046   3.473
26947WAT     H181083   3.349  -0.005   3.407
26947WAT     H281084   3.326   0.024   3.566
26948WAT      O81085   9.039   0.575   6.552
26948WAT     H181086   9.034   0.548   6.455
26948WAT     H281087   9.005   0.668   6.562
26949WAT      O81088   7.358   1.408   5.794
26949WAT     H181089   7.400   1.426   5.705
26949WAT     H281090   7.259   1.409   5.784
26950WAT      O81091   7.014   1.932   3.100
26950WAT     H181092   7.002   1.951   3.197
26950WAT     H281093   6.925   1.932   3.054
26951WAT      O81094   7.177   6.517   6.885
26951WAT     H181095   7.162   6.591   6.951
26951WAT     H281096   7.275   6.509   6.866
26952WAT      O81097   1.362   2.058   8.862
26952WAT     H181098   1.416   2.137   8.834
26952WAT     H281099   1.332   2.007   8.781
26953WAT      O81100   2.236   7.099   4.674
26953WAT     H181101   2.218   7.001   4.672
26953WAT     H281102   2.247   7.133   4.580
26954WAT      O81103   4.188   9.275   9.226
26954WAT     H181104   4.241   9.190   9.233
26954WAT     H281105   4.233   9.338   9.162
26955WAT      O81106   2.502   9.793   4.933
26955WAT     H181107   2.480   9.821   4.840
26955WAT     H281108   2.591   9.747   4.934
26956WAT      O81109   4.600   0.475   1.432
26956WAT     H181110   4.628   0.381   1.451
26956WAT     H281111   4.528   0.475   1.362
26957WAT      O81112   6.243   0.485   0.671
26957WAT     H181113   6.200   0.571   0.643
26957WAT     H281114   6.310   0.457   0.602
26958WAT      O81115   8.701   2.618   8.387
26958WAT     H181116   8.711   2.714   8.414
26958WAT     H281117   8.792   2.577   8.377
26959WAT      O81118   1.538   0.280   1.435
26959WAT     H181119   1.571   0.348   1.370
26959WAT     H281120   1.479   0.326   1.503
26960WAT      O81121   7.323   0.593   0.055
26960WAT     H181122   7.278   0.678   0.084
26960WAT     H281123   7.358   0.545   0.135
26961WAT      O81124   3.839   1.694   3.009
26961WAT     H181125   3.901   1.642   3.068
26961WAT     H281126   3.852   1.792   3.025
26962WAT      O81127   1.990   5.602   1.866
26962WAT     H181128   2.063   5.621   1.800
26962WAT     H281129   1.902   5.628   1.826
26963WAT      O81130   4.553   3.228   4.337
26963WAT     H181131   4.552   3.145   4.393
26963WAT     H281132   4.475   3.226   4.273
26964WAT      O81133   5.579   6.872   9.322
26964WAT     H181134   5.527   6.850   9.239
26964WAT     H281135   5.677   6.860   9.304
26965WAT      O81136   5.128   0.957   6.347
26965WAT     H181137   5.203   0.942   6.283
26965WAT     H281138   5.158   1.020   6.419
26966WAT      O81139   0.474   9.718   4.263
26966WAT     H181140   0.374   9.715   4.253
26966WAT     H281141   0.502   9.660   4.339
26967WAT      O81142   1.643   8.794   9.862
26967WAT     H181143   1.695   8.740   9.796
26967WAT     H281144   1.630   8.742   9.946
26968WAT      O81145   2.989   8.932   0.867
26968WAT     H181146   3.042   8.871   0.808
26968WAT     H281147   2.944   8.878   0.938
26969WAT      O81148   4.945   4.357   8.336
26969WAT     H181149   5.008   4.302   8.391
26969WAT     H281150   4.862   4.305   8.319
26970WAT      O81151   8.600   5.077   8.707
26970WAT     H181152   8.655   5.145   8.660
26970WAT     H281153   8.555   5.018   8.639
26971WAT      O81154   6.214   8.500   0.940
26971WAT     H181155   6.246   8.591   0.914
26971WAT     H281156   6.142   8.470   0.876
26972WAT      O81157   1.764   8.317   1.608
26972WAT     H181158   1.730   8.253   1.539
26972WAT     H281159   1.810   8.266   1.681
26973WAT      O81160   4.927   2.146   4.504
26973WAT     H181161   4.929   2.129   4.602
26973WAT     H281162   4.891   2.238   4.487
26974WAT      O81163   3.956   4.240   8.232
26974WAT     H181164   3.986   4.149   8.262
26974WAT     H281165   3.979   4.307   8.302
26975WAT      O81166   3.548   6.112   1.798
26975WAT     H181167   3.549   6.105   1.898
26975WAT     H281168   3.564   6.021   1.759
26976WAT      O81169   9.280   6.133   4.584
26976WAT     H181170   9.271   6.050   4.639
26976WAT     H281171   9.339   6.115   4.505
26977WAT      O81172   7.892   8.823   4.682
26977WAT     H181173   7.885   8.912   4.727
26977WAT     H281174   7.834   8.757   4.729
26978WAT      O81175   0.164   6.401   8.699
26978WAT     H181176   0.224   6.340   8.751
26978WAT     H281177   0.208   6.490   8.689
26979WAT      O81178   2.790   6.211   6.695
26979WAT     H181179   2.733   6.172   6.767
26979WAT     H281180   2.800   6.145   6.621
26980WAT      O81181   1.012   7.309   9.399
26980WAT     H181182   0.937   7.310   9.466
26980WAT     H281183   1.091   7.358   9.437
26981WAT      O81184   9.309   7.642   5.952
26981WAT     H181185   9.247   7.564   5.963
26981WAT     H281186   9.343   7.645   5.858
26982WAT      O81187   1.835   5.030   5.644
26982WAT     H181188   1.911   5.010   5.582
26982WAT     H281189   1.769   5.089   5.598
26983WAT      O81190   6.056   8.872   8.237
26983WAT     H181191   5.996   8.888   8.159
26983WAT     H281192   6.024   8.925   8.315
26984WAT      O81193   9.521   0.321   7.284
26984WAT     H181194   9.573   0.263   7.346
26984WAT     H281195   9.548   0.303   7.190
26985WAT      O81196   7.750   3.917   3.002
26985WAT     H181197   7.679   3.880   2.942
26985WAT     H281198   7.735   3.885   3.095
26986WAT      O81199   3.028   6.657   8.622
26986WAT     H181200   3.122   6.672   8.590
26986WAT     H281201   2.997   6.738   8.671
26987WAT      O81202   1.781   9.725   3.716
26987WAT     H181203   1.689   9.751   3.685
26987WAT     H281204   1.845   9.800   3.699
26988WAT      O81205   0.384   1.455   1.327
26988WAT     H181206   0.360   1.552   1.328
26988WAT     H281207   0.302   1.401   1.309
26989WAT      O81208   1.669   2.444   8.179
26989WAT     H181209   1.595   2.484   8.234
26989WAT     H281210   1.692   2.505   8.103
26990WAT      O81211   7.809   7.907   5.970
26990WAT     H181212   7.872   7.831   5.957
26990WAT     H281213   7.716   7.879   5.947
26991WAT      O81214   3.583   0.266   0.532
26991WAT     H181215   3.678   0.271   0.503
26991WAT     H281216   3.579   0.249   0.631
26992WAT      O81217   8.029   9.690   8.279
26992WAT     H181218   7.944   9.693   8.227
26992WAT     H281219   8.041   9.776   8.329
26993WAT      O81220   3.955   1.890   9.379
26993WAT     H181221   3.888   1.961   9.357
26993WAT     H281222   4.045   1.916   9.343
26994WAT      O81223   4.132   1.154   8.737
26994WAT     H181224   4.105   1.236   8.788
26994WAT     H281225   4.202   1.178   8.670
26995WAT      O81226   2.843   2.160   8.408
26995WAT     H181227   2.851   2.207   8.496
26995WAT     H281228   2.933   2.128   8.379
26996WAT      O81229   4.278   1.535   6.104
26996WAT     H181230   4.266   1.612   6.042
26996WAT     H281231   4.342   1.469   6.064
26997WAT      O81232   2.853   0.678   4.304
26997WAT     H181233   2.949   0.696   4.327
26997WAT     H281234   2.831   0.582   4.323
26998WAT      O81235   8.625   3.110   8.543
26998WAT     H181236   8.671   3.167   8.612
26998WAT     H281237   8.602   3.166   8.463
26999WAT      O81238   8.297   5.254   6.134
26999WAT     H181239   8.264   5.331   6.189
26999WAT     H281240   8.251   5.254   6.046
27000WAT      O81241   4.677   0.469   5.137
27000WAT     H181242   4.668   0.372   5.112
27000WAT     H281243   4.749   0.511   5.083
27001WAT      O81244   8.141   2.443   3.330
27001WAT     H181245   8.154   2.355   3.376
27001WAT     H281246   8.064   2.492   3.372
27002WAT      O81247   2.758   6.960   7.661
27002WAT     H181248   2.660   6.969   7.676
27002WAT     H281249   2.791   6.875   7.703
27003WAT      O81250   3.223   7.048   5.717
27003WAT     H181251   3.249   6.992   5.638
27003WAT     H281252   3.124   7.045   5.728
27004WAT      O81253   5.577   2.454   5.834
27004WAT     H181254   5.656   2.441   5.774
27004WAT     H281255   5.589   2.537   5.888
27005WAT      O81256   5.528   5.356   2.854
27005WAT     H181257   5.584   5.359   2.937
27005WAT     H281258   5.577   5.401   2.779
27006WAT      O81259   2.572   0.226   4.354
27006WAT     H181260   2.540   0.135   4.381
27006WAT     H281261   2.499   0.274   4.306
27007WAT      O81262   1.825   2.566   4.543
27007WAT     H181263   1.835   2.536   4.448
27007WAT     H281264   1.736   2.609   4.555
27008WAT      O81265   3.271   6.908   1.027
27008WAT     H181266   3.367   6.937   1.026
27008WAT     H281267   3.217   6.970   0.971
27009WAT      O81268   0.409   8.692   0.539
27009WAT     H181269   0.416   8.697   0.440
27009WAT     H281270   0.402   8.597   0.568
27010WAT      O81271   1.579   7.260   9.744
27010WAT     H181272   1.560   7.217   9.832
27010WAT     H281273   1.628   7.196   9.685
27011WAT      O81274   1.470   5.827   7.847
27011WAT     H181275   1.457   5.761   7.774
27011WAT     H281276   1.541   5.893   7.821
27012WAT      O81277   6.180   5.126   0.160
27012WAT     H181278   6.124   5.139   0.242
27012WAT     H281279   6.250   5.198   0.156
27013WAT      O81280   1.307   6.212   7.770
27013WAT     H181281   1.306   6.130   7.827
27013WAT     H281282   1.286   6.292   7.825
27014WAT      O81283   8.821   4.409   6.608
27014WAT     H181284   8.860   4.499   6.586
27014WAT     H281285   8.854   4.380   6.698
27015WAT      O81286   6.741   7.771   6.781
27015WAT     H181287   6.716   7.719   6.863
27015WAT     H281288   6.811   7.839   6.805
27016WAT      O81289   7.848   0.758   6.703
27016WAT     H181290   7.768   0.759   6.763
27016WAT     H281291   7.822   0.723   6.613
27017WAT      O81292   2.656   6.498   8.733
27017WAT     H181293   2.710   6.525   8.813
27017WAT     H281294   2.660   6.399   8.723
27018WAT      O81295   1.847   2.452   1.287
27018WAT     H181296   1.861   2.548   1.264
27018WAT     H281297   1.923   2.419   1.342
27019WAT      O81298   7.767   2.216   4.020
27019WAT     H181299   7.845   2.225   3.958
27019WAT     H281300   7.742   2.119   4.029
27020WAT      O81301   0.565   7.506   6.995
27020WAT     H181302   0.483   7.453   7.017
27020WAT     H281303   0.587   7.567   7.071
27021WAT      O81304   6.156   7.563   1.461
27021WAT     H181305   6.132   7.480   1.410
27021WAT     H281306   6.175   7.637   1.398
27022WAT      O81307   6.935   1.335   7.213
27022WAT     H181308   6.965   1.389   7.134
27022WAT     H281309   6.908   1.397   7.287
27023WAT      O81310   2.192   0.637   0.758
27023WAT     H181311   2.158   0.564   0.818
27023WAT     H281312   2.248   0.597   0.686
27024WAT      O81313   3.861   0.093   1.289
27024WAT     H181314   3.849  -0.000   1.256
27024WAT     H281315   3.908   0.091   1.378
27025WAT      O81316   1.219   3.111   1.264
27025WAT     H181317   1.303   3.165   1.259
27025WAT     H281318   1.193   3.098   1.360
27026WAT      O81319   9.468   1.719   9.522
27026WAT     H181320   9.531   1.736   9.446
27026WAT     H281321   9.414   1.637   9.503
27027WAT      O81322   3.498   3.961   6.376
27027WAT     H181323   3.425   3.910   6.421
27027WAT     H281324   3.543   3.904   6.308
27028WAT      O81325   0.042   8.920   7.276
27028WAT     H181326   0.127   8.966   7.303
27028WAT     H281327   0.056   8.821   7.277
27029WAT      O81328   7.917   1.078   9.548
27029WAT     H181329   7.940   0.981   9.549
27029WAT     H281330   7.835   1.093   9.493
27030WAT      O81331   0.423   1.488   6.083
27030WAT     H181332   0.354   1.424   6.117
27030WAT     H281333   0.514   1.459   6.112
27031WAT      O81334   6.319   8.848   7.820
27031WAT     H181335   6.229   8.806   7.808
27031WAT     H281336   6.364   8.856   7.731
27032WAT      O81337   8.764   0.005   7.900
27032WAT     H181338   8.688   0.034   7.960
27032WAT     H281339   8.811   0.085   7.865
27033WAT      O81340   5.658   3.495   9.353
27033WAT     H181341   5.577   3.516   9.408
27033WAT     H281342   5.728   3.564   9.368
27034WAT      O81343   9.104   8.946   8.480
27034WAT     H181344   9.178   8.999   8.523
27034WAT     H281345   9.016   8.989   8.500
27035WAT      O81346   2.560   3.128   5.813
27035WAT     H181347   2.525   3.219   5.835
27035WAT     H281348   2.655   3.121   5.844
27036WAT      O81349   9.711   1.446   0.105
27036WAT     H181350   9.802   1.466   0.142
27036WAT     H281351   9.703   1.484   0.013
27037WAT      O81352   7.437   4.914   2.970
27037WAT     H181353   7.350   4.916   2.922
27037WAT     H281354   7.484   4.828   2.951
27038WAT      O81355   3.133   5.788   1.958
27038WAT     H181356   3.089   5.713   1.908
27038WAT     H281357   3.066   5.860   1.975
27039WAT      O81358   6.110   7.484   5.371
27039WAT     H181359   6.019   7.522   5.357
27039WAT     H281360   6.166   7.549   5.422
27040WAT      O81361   0.552   1.525   2.470
27040WAT     H181362   0.648   1.539   2.447
27040WAT     H281363   0.512   1.459   2.406
27041WAT      O81364   2.525   2.533   7.884
27041WAT     H181365   2.574   2.596   7.824
27041WAT     H281366   2.587   2.502   7.956
27042WAT      O81367   1.568   2.013   1.869
27042WAT     H181368   1.612   1.938   1.820
27042WAT     H281369   1.480   2.033   1.826
27043WAT      O81370   2.253   7.378   3.962
27043WAT     H181371   2.244   7.457   3.901
27043WAT     H281372   2.350   7.357   3.975
27044WAT      O81373   4.458   8.274   7.780
27044WAT     H181374   4.532   8.267   7.714
27044WAT     H281375   4.374   8.236   7.740
27045WAT      O81376   1.664   6.610   0.141
27045WAT     H181377   1.707   6.697   0.117
27045WAT     H281378   1.665   6.598   0.240
27046WAT      O81379   1.302   6.002   7.950
27046WAT     H181380   1.215   5.975   7.991
27046WAT     H281381   1.345   5.922   7.907
27047WAT      O81382   7.267   4.458   6.886
27047WAT     H181383   7.346   4.418   6.839
27047WAT     H281384   7.223   4.388   6.942
27048WAT      O81385   6.340   6.805   1.242
27048WAT     H181386   6.305   6.753   1.320
27048WAT     H281387   6.360   6.898   1.271
27049WAT      O81388   9.603   4.034   9.139
27049WAT     H181389   9.509   4.055   9.166
27049WAT     H281390   9.653   4.119   9.121
27050WAT      O81391   1.895   8.650   4.242
27050WAT     H181392   1.933   8.560   4.264
27050WAT     H281393   1.824   8.673   4.308
27051WAT      O81394   2.916   6.726   8.305
27051WAT     H181395   2.941   6.804   8.362
27051WAT     H281396   2.922   6.642   8.359
27052WAT      O81397   7.873   5.962   5.076
27052WAT     H181398   7.957   5.933   5.031
27052WAT     H281399   7.891   6.043   5.132
27053WAT      O81400   9.773   5.500   8.272
27053WAT     H181401   9.752   5.597   8.278
27053WAT     H281402   9.763   5.469   8.178
27054WAT      O81403   3.147   2.391   2.685
27054WAT     H181404   3.057   2.385   2.728
27054WAT     H281405   3.136   2.402   2.586
27055WAT      O81406   8.255   0.417   2.809
27055WAT     H181407   8.323   0.352   2.775
27055WAT     H281408   8.221   0.386   2.898
27056WAT      O81409   1.841   2.501   3.691
27056WAT     H181410   1.760   2.502   3.749
27056WAT     H281411   1.813   2.500   3.595
27057WAT      O81412   7.850   0.352   7.977
27057WAT     H181413   7.816   0.343   7.884
27057WAT     H281414   7.851   0.262   8.021
27058WAT      O81415   3.307   3.701   1.560
27058WAT     H181416   3.289   3.606   1.586
27058WAT     H281417   3.222   3.754   1.566
27059WAT      O81418   4.565   9.205   9.357
27059WAT     H181419   4.542   9.143   9.281
27059WAT     H281420   4.577   9.152   9.441
27060WAT      O81421   3.827   2.087   4.014
27060WAT     H181422   3.745   2.060   3.964
27060WAT     H281423   3.810   2.172   4.063
27061WAT      O81424   8.015   3.637   9.286
27061WAT     H181425   8.099   3.684   9.259
27061WAT     H281426   7.991   3.664   9.380
27062WAT      O81427   8.759   6.683   7.751
27062WAT     H181428   8.851   6.668   7.714
27062WAT     H281429   8.737   6.781   7.745
27063WAT      O81430   1.026   1.813   7.252
27063WAT     H181431   1.119   1.834   7.224
27063WAT     H281432   0.996   1.728   7.210
27064WAT      O81433   4.647   9.410   5.377
27064WAT     H181434   4.737   9.366   5.371
27064WAT     H281435   4.603   9.384   5.463
27065WAT      O81436   8.343   8.433   3.881
27065WAT     H181437   8.266   8.373   3.859
27065WAT     H281438   8.330   8.522   3.838
27066WAT      O81439   3.593   0.454   1.056
27066WAT     H181440   3.577   0.426   1.150
27066WAT     H281441   3.689   0.437   1.032
27067WAT      O81442   5.853   6.405   2.683
27067WAT     H181443   5.762   6.401   2.642
27067WAT     H281444   5.910   6.470   2.633
27068WAT      O81445   8.668   0.472   5.369
27068WAT     H181446   8.597   0.477   5.298
27068WAT     H281447   8.625   0.479   5.459
27069WAT      O81448   2.144   2.351   9.809
27069WAT     H181449   2.137   2.429   9.871
27069WAT     H281450   2.205   2.374   9.733
27070WAT      O81451   9.093   4.949   3.499
27070WAT     H181452   9.061   4.936   3.593
27070WAT     H281453   9.170   4.888   3.482
27071WAT      O81454   6.612   3.202   5.208
27071WAT     H181455   6.688   3.242   5.260
27071WAT     H281456   6.646   3.130   5.148
27072WAT      O81457   6.054   1.089   0.948
27072WAT     H181458   5.990   1.166   0.947
27072WAT     H281459   6.071   1.059   0.854
27073WAT      O81460   9.205   8.557   6.445
27073WAT     H181461   9.214   8.458   6.433
27073WAT     H281462   9.280   8.590   6.503
27074WAT      O81463   9.355   6.514   9.511
27074WAT     H181464   9.302   6.475   9.586
27074WAT     H281465   9.307   6.594   9.475
27075WAT      O81466   8.155   6.419   9.149
27075WAT     H181467   8.063   6.394   9.179
27075WAT     H281468   8.222   6.355   9.186
27076WAT      O81469   0.540   4.607   6.809
27076WAT     H181470   0.538   4.631   6.712
27076WAT     H281471   0.524   4.688   6.865
27077WAT      O81472   1.650   5.303   1.248
27077WAT     H181473   1.730   5.293   1.307
27077WAT     H281474   1.679   5.338   1.159
27078WAT      O81475   4.576   2.186   9.603
27078WAT     H181476   4.528   2.240   9.673
27078WAT     H281477   4.510   2.129   9.555
27079WAT      O81478   9.061   2.873   4.462
27079WAT     H181479   9.016   2.953   4.421
27079WAT     H281480   9.114   2.825   4.391
27080WAT      O81481   8.563   0.690   9.222
27080WAT     H181482   8.559   0.786   9.250
27080WAT     H281483   8.659   0.663   9.212
27081WAT      O81484   4.735   3.099   5.683
27081WAT     H181485   4.735   3.083   5.782
27081WAT     H281486   4.736   3.198   5.666
27082WAT      O81487   2.003   7.832   1.366
27082WAT     H181488   1.936   7.867   1.301
27082WAT     H281489   2.052   7.755   1.325
27083WAT      O81490   1.047   0.469   0.463
27083WAT     H181491   1.044   0.375   0.498
27083WAT     H281492   1.064   0.468   0.365
27084WAT      O81493   5.213   8.465   4.215
27084WAT     H181494   5.279   8.453   4.289
27084WAT     H281495   5.126   8.495   4.252
27085WAT      O81496   5.123   3.711   0.671
27085WAT     H181497   5.089   3.626   0.629
27085WAT     H281498   5.115   3.703   0.771
27086WAT      O81499   1.245   8.712   5.970
27086WAT     H181500   1.206   8.792   6.016
27086WAT     H281501   1.322   8.678   6.023
27087WAT      O81502   1.442   4.742   5.099
27087WAT     H181503   1.426   4.768   5.004
27087WAT     H281504   1.525   4.686   5.104
27088WAT      O81505   9.767   2.799   6.636
27088WAT     H181506   9.807   2.840   6.555
27088WAT     H281507   9.761   2.866   6.710
27089WAT      O81508   4.892   8.077   0.235
27089WAT     H181509   4.849   8.101   0.148
27089WAT     H281510   4.959   8.147   0.260
27090WAT      O81511   7.694   9.079   8.089
27090WAT     H181512   7.633   9.121   8.157
27090WAT     H281513   7.705   8.982   8.110
27091WAT      O81514   1.042   5.429   0.604
27091WAT     H181515   1.130   5.444   0.649
27091WAT     H281516   1.053   5.439   0.505
27092WAT      O81517   8.099   3.940   0.361
27092WAT     H181518   8.086   3.992   0.277
27092WAT     H281519   8.079   3.844   0.344
27093WAT      O81520   8.416   3.356   3.757
27093WAT     H181521   8.361   3.319   3.682
27093WAT     H281522   8.513   3.347   3.735
27094WAT      O81523   8.773   0.487   7.804
27094WAT     H181524   8.841   0.415   7.817
27094WAT     H281525   8.767   0.511   7.707
27095WAT      O81526   5.157   8.807   7.306
27095WAT     H181527   5.135   8.859   7.224
27095WAT     H281528   5.093   8.830   7.379
27096WAT      O81529   5.704   5.584   1.672
27096WAT     H181530   5.665   5.504   1.718
27096WAT     H281531   5.630   5.644   1.642
27097WAT      O81532   8.888   6.418   4.526
27097WAT     H181533   8.872   6.497   4.467
27097WAT     H281534   8.981   6.385   4.512
27098WAT      O81535   8.741   9.083   7.097
27098WAT     H181536   8.794   9.168   7.105
27098WAT     H281537   8.727   9.062   7.001
27099WAT      O81538   7.443   6.191   9.247
27099WAT     H181539   7.355   6.239   9.251
27099WAT     H281540   7.483   6.186   9.338
27100WAT      O81541   9.176   3.368   1.142
27100WAT     H181542   9.137   3.406   1.058
27100WAT     H281543   9.231   3.288   1.120
27101WAT      O81544   4.350   1.359   7.385
27101WAT     H181545   4.388   1.384   7.297
27101WAT     H281546   4.264   1.310   7.371
27102WAT      O81547   2.641   5.414   9.599
27102WAT     H181548   2.689   5.437   9.684
27102WAT     H281549   2.556   5.367   9.620
27103WAT      O81550   8.882   6.901   7.113
27103WAT     H181551   8.958   6.852   7.071
27103WAT     H281552   8.876   6.876   7.210
27104WAT      O81553   1.907   2.665   1.963
27104WAT     H181554   1.855   2.638   1.883
27104WAT     H281555   1.935   2.760   1.955
27105WAT      O81556   8.533   4.460   9.622
27105WAT     H181557   8.564   4.470   9.528
27105WAT     H281558   8.573   4.378   9.663
27106WAT      O81559   7.155   0.794   7.829
27106WAT     H181560   7.178   0.858   7.756
27106WAT     H281561   7.065   0.754   7.811
27107WAT      O81562   6.191   1.744   1.389
27107WAT     H181563   6.268   1.807   1.376
27107WAT     H281564   6.191   1.677   1.315
27108WAT      O81565   7.056   2.898   2.798
27108WAT     H181566   6.957   2.889   2.796
27108WAT     H281567   7.088   2.932   2.709
27109WAT      O81568   5.030   6.064   7.145
27109WAT     H181569   5.100   6.011   7.193
27109WAT     H281570   4.940   6.042   7.182
27110WAT      O81571   6.761   3.972   7.021
27110WAT     H181572   6.690   3.983   7.090
27110WAT     H281573   6.783   3.875   7.012
27111WAT      O81574   8.107   1.075   2.696
27111WAT     H181575   8.136   0.998   2.639
27111WAT     H281576   8.117   1.051   2.792
27112WAT      O81577   4.843   2.337   7.279
27112WAT     H181578   4.875   2.424   7.241
27112WAT     H281579   4.746   2.325   7.258
27113WAT      O81580   1.224   3.564   4.376
27113WAT     H181581   1.179   3.475   4.363
27113WAT     H281582   1.175   3.634   4.324
27114WAT      O81583   2.220   4.968   2.838
27114WAT     H181584   2.235   4.869   2.841
27114WAT     H281585   2.294   5.011   2.787
27115WAT      O81586   1.214   3.899   8.573
27115WAT     H181587   1.309   3.883   8.601
27115WAT     H281588   1.171   3.963   8.636
27116WAT      O81589   6.880   0.292   1.223
27116WAT     H181590   6.786   0.299   1.191
27116WAT     H281591   6.894   0.354   1.300
27117WAT      O81592   2.066   0.674   0.051
27117WAT     H181593   2.075   0.584   0.010
27117WAT     H281594   1.989   0.674   0.115
27118WAT      O81595   2.012   7.118   6.985
27118WAT     H181596   2.089   7.078   7.034
27118WAT     H281597   1.985   7.058   6.909
27119WAT      O81598   1.532   5.437   8.408
27119WAT     H181599   1.537   5.463   8.504
27119WAT     H281600   1.469   5.360   8.397
27120WAT      O81601   0.948   0.644   5.798
27120WAT     H181602   0.868   0.694   5.766
27120WAT     H281603   1.026   0.706   5.803
27121WAT      O81604   5.080   0.389   5.006
27121WAT     H181605   5.151   0.425   4.946
27121WAT     H281606   5.096   0.422   5.099
27122WAT      O81607   2.044   3.356   1.478
27122WAT     H181608   2.038   3.402   1.389
27122WAT     H281609   1.956   3.315   1.501
27123WAT      O81610   5.545   5.776   1.070
27123WAT     H181611   5.618   5.731   1.018
27123WAT     H281612   5.515   5.715   1.143
27124WAT      O81613   4.420   1.698   4.780
27124WAT     H181614   4.400   1.716   4.876
27124WAT     H281615   4.423   1.600   4.764
27125WAT      O81616   8.236   3.327   9.681
27125WAT     H181617   8.256   3.236   9.717
27125WAT     H281618   8.286   3.396   9.734
27126WAT      O81619   9.424   3.902   8.285
27126WAT     H181620   9.350   3.952   8.240
27126WAT     H281621   9.500   3.964   8.303
27127WAT      O81622   6.157   4.361   7.928
27127WAT     H181623   6.154   4.286   7.995
27127WAT     H281624   6.067   4.405   7.925
27128WAT      O81625   2.546   5.146   4.140
27128WAT     H181626   2.541   5.219   4.071
27128WAT     H281627   2.460   5.142   4.190
27129WAT      O81628   0.478   1.760   1.012
27129WAT     H181629   0.389   1.757   1.059
27129WAT     H281630   0.551   1.738   1.077
27130WAT      O81631   7.617   2.696   9.406
27130WAT     H181632   7.581   2.729   9.318
27130WAT     H281633   7.715   2.676   9.396
27131WAT      O81634   5.757   9.362   8.595
27131WAT     H181635   5.680   9.316   8.550
27131WAT     H281636   5.810   9.295   8.646
27132WAT      O81637   1.757   0.125   8.936
27132WAT     H181638   1.829   0.132   8.867
27132WAT     H281639   1.697   0.048   8.913
27133WAT      O81640   5.669   7.874   3.528
27133WAT     H181641   5.609   7.804   3.568
27133WAT     H281642   5.702   7.935   3.601
27134WAT      O81643   8.399   5.938   6.067
27134WAT     H181644   8.475   6.003   6.071
27134WAT     H281645   8.399   5.893   5.978
27135WAT      O81646   6.404   8.945   8.869
27135WAT     H181647   6.433   8.917   8.961
27135WAT     H281648   6.458   8.896   8.800
27136WAT      O81649   0.629   5.269   1.055
27136WAT     H181650   0.618   5.230   0.964
27136WAT     H281651   0.641   5.195   1.121
27137WAT      O81652   4.434   2.038   7.333
27137WAT     H181653   4.350   2.034   7.387
27137WAT     H281654   4.478   1.948   7.334
27138WAT      O81655   1.609   7.083   4.263
27138WAT     H181656   1.593   7.135   4.347
27138WAT     H281657   1.570   7.133   4.186
27139WAT      O81658   6.487   5.504   0.260
27139WAT     H181659   6.562   5.562   0.229
27139WAT     H281660   6.524   5.426   0.312
27140WAT      O81661   7.064   0.489   8.526
27140WAT     H181662   7.008   0.409   8.550
27140WAT     H281663   7.005   0.564   8.497
27141WAT      O81664   5.678   1.026   5.432
27141WAT     H181665   5.585   1.051   5.458
27141WAT     H281666   5.691   1.042   5.334
27142WAT      O81667   2.526   4.804   9.566
27142WAT     H181668   2.548   4.902   9.567
27142WAT     H281669   2.437   4.790   9.609
27143WAT      O81670   7.023   4.015   8.809
27143WAT     H181671   7.078   3.934   8.788
27143WAT     H281672   6.951   3.991   8.874
27144WAT      O81673   0.816   3.260   9.544
27144WAT     H181674   0.738   3.306   9.587
27144WAT     H281675   0.900   3.311   9.563
27145WAT      O81676   9.564   9.768   7.957
27145WAT     H181677   9.595   9.831   7.885
27145WAT     H281678   9.478   9.802   7.996
27146WAT      O81679   1.183   8.424   3.147
27146WAT     H181680   1.211   8.356   3.080
27146WAT     H281681   1.154   8.508   3.100
27147WAT      O81682   0.847   8.769   0.320
27147WAT     H181683   0.942   8.799   0.331
27147WAT     H281684   0.789   8.817   0.386
27148WAT      O81685   7.164   9.675   5.922
27148WAT     H181686   7.095   9.727   5.873
27148WAT     H281687   7.127   9.642   6.009
27149WAT      O81688   8.901   8.631   3.328
27149WAT     H181689   8.802   8.631   3.313
27149WAT     H281690   8.924   8.564   3.399
27150WAT      O81691   1.722   9.372   9.474
27150WAT     H181692   1.750   9.460   9.435
27150WAT     H281693   1.729   9.376   9.573
27151WAT      O81694   9.611   5.556   1.739
27151WAT     H181695   9.644   5.557   1.645
27151WAT     H281696   9.681   5.597   1.798
27152WAT      O81697   9.486   0.630   0.025
27152WAT     H181698   9.570   0.648  -0.025
27152WAT     H281699   9.448   0.717   0.059
27153WAT      O81700   0.878   2.646   6.876
27153WAT     H181701   0.928   2.732   6.863
27153WAT     H281702   0.782   2.660   6.854
27154WAT      O81703   6.890   3.183   2.209
27154WAT     H181704   6.927   3.156   2.298
27154WAT     H281705   6.952   3.152   2.137
27155WAT      O81706   8.788   5.331   1.023
27155WAT     H181707   8.723   5.257   1.012
27155WAT     H281708   8.803   5.376   0.935
27156WAT      O81709   8.786   9.795   6.565
27156WAT     H181710   8.711   9.824   6.624
27156WAT     H281711   8.846   9.873   6.547
27157WAT      O81712   9.354   3.394   3.058
27157WAT     H181713   9.343   3.343   2.972
27157WAT     H281714   9.333   3.490   3.043
27158WAT      O81715   3.886   9.752   2.709
27158WAT     H181716   3.814   9.731   2.644
27158WAT     H281717   3.861   9.834   2.761
27159WAT      O81718   6.848   7.821   9.308
27159WAT     H181719   6.937   7.789   9.340
27159WAT     H281720   6.793   7.849   9.387
27160WAT      O81721   5.107   2.332   5.543
27160WAT     H181722   5.093   2.241   5.505
27160WAT     H281723   5.025   2.362   5.591
27161WAT      O81724   7.148   0.583   8.984
27161WAT     H181725   7.073   0.649   8.989
27161WAT     H281726   7.219   0.617   8.923
27162WAT      O81727   1.922   0.796   2.047
27162WAT     H181728   1.825   0.793   2.024
27162WAT     H281729   1.976   0.769   1.967
27163WAT      O81730   5.591   1.297   1.823
27163WAT     H181731   5.620   1.202   1.818
27163WAT     H281732   5.623   1.347   1.742
27164WAT      O81733   9.407   3.205   4.192
27164WAT     H181734   9.312   3.188   4.167
27164WAT     H281735   9.411   3.273   4.265
27165WAT      O81736   9.632   9.137   1.361
27165WAT     H181737   9.718   9.086   1.358
27165WAT     H281738   9.646   9.229   1.325
27166WAT      O81739   1.557   7.464   2.461
27166WAT     H181740   1.509   7.545   2.495
27166WAT     H281741   1.511   7.429   2.380
27167WAT      O81742   5.339   2.388   6.655
27167WAT     H181743   5.248   2.349   6.636
27167WAT     H281744   5.366   2.447   6.579
27168WAT      O81745   1.566   7.433   7.965
27168WAT     H181746   1.557   7.370   7.888
27168WAT     H281747   1.582   7.381   8.049
27169WAT      O81748   3.947   2.655   2.604
27169WAT     H181749   3.887   2.735   2.599
27169WAT     H281750   3.906   2.580   2.552
27170WAT      O81751   7.679   7.055   4.735
27170WAT     H181752   7.594   7.078   4.783
27170WAT     H281753   7.754   7.048   4.801
27171WAT      O81754   4.202   9.720   6.225
27171WAT     H181755   4.159   9.775   6.296
27171WAT     H281756   4.243   9.780   6.156
27172WAT      O81757   6.580   7.086   0.377
27172WAT     H181758   6.656   7.115   0.435
27172WAT     H281759   6.566   7.154   0.304
27173WAT      O81760   0.902   0.652   2.998
27173WAT     H181761   0.951   0.732   2.962
27173WAT     H281762   0.968   0.582   3.024
27174WAT      O81763   4.125   5.778   8.061
27174WAT     H181764   4.173   5.725   7.991
27174WAT     H281765   4.192   5.811   8.129
27175WAT      O81766   2.140   1.230   5.665
27175WAT     H181767   2.137   1.323   5.701
27175WAT     H281768   2.222   1.219   5.608
27176WAT      O81769   0.685   5.090   6.510
27176WAT     H181770   0.692   4.993   6.534
27176WAT     H281771   0.680   5.100   6.411
27177WAT      O81772   0.597   5.740   4.874
27177WAT     H181773   0.567   5.835   4.885
27177WAT     H281774   0.688   5.730   4.913
27178WAT      O81775   8.333   5.622   8.273
27178WAT     H181776   8.247   5.572   8.258
27178WAT     H281777   8.312   5.717   8.298
27179WAT      O81778   6.452   5.122   7.067
27179WAT     H181779   6.536   5.072   7.044
27179WAT     H281780   6.476   5.212   7.103
27180WAT      O81781   3.482   3.290   3.471
27180WAT     H181782   3.458   3.383   3.498
27180WAT     H281783   3.443   3.226   3.537
27181WAT      O81784   0.075   9.578   5.060
27181WAT     H181785   0.123   9.512   5.117
27181WAT     H281786   0.131   9.660   5.049
27182WAT      O81787   0.224   6.586   1.609
27182WAT     H181788   0.269   6.548   1.528
27182WAT     H281789   0.222   6.685   1.602
27183WAT      O81790   3.164   2.174   6.989
27183WAT     H181791   3.094   2.156   6.920
27183WAT     H281792   3.218   2.091   7.005
27184WAT      O81793   8.579   3.931   6.017
27184WAT     H181794   8.527   3.981   6.086
27184WAT     H281795   8.635   3.994   5.964
27185WAT      O81796   6.535   8.538   9.535
27185WAT     H181797   6.541   8.634   9.563
27185WAT     H281798   6.459   8.526   9.472
27186WAT      O81799   1.616   5.883   8.280
27186WAT     H181800   1.557   5.802   8.288
27186WAT     H281801   1.569   5.953   8.226
27187WAT      O81802   8.156   5.773   8.560
27187WAT     H181803   8.232   5.761   8.496
27187WAT     H281804   8.189   5.818   8.642
27188WAT      O81805   0.850   6.618   1.229
27188WAT     H181806   0.805   6.697   1.271
27188WAT     H281807   0.930   6.649   1.178
27189WAT      O81808   8.362   5.517   8.702
27189WAT     H181809   8.375   5.423   8.734
27189WAT     H281810   8.409   5.530   8.615
27190WAT      O81811   0.243   2.701   3.126
27190WAT     H181812   0.197   2.619   3.158
27190WAT     H281813   0.338   2.679   3.104
27191WAT      O81814   7.738   7.971   5.576
27191WAT     H181815   7.770   7.883   5.611
27191WAT     H281816   7.657   7.999   5.627
27192WAT      O81817   9.763   0.080   6.517
27192WAT     H181818   9.826   0.140   6.467
27192WAT     H281819   9.728   0.010   6.455
27193WAT      O81820   5.453   6.709   7.843
27193WAT     H181821   5.391   6.754   7.779
27193WAT     H281822   5.468   6.768   7.922
27194WAT      O81823   0.927   5.613   2.928
27194WAT     H181824   1.009   5.660   2.963
27194WAT     H281825   0.846   5.664   2.956
27195WAT      O81826   5.998   8.255   6.846
27195WAT     H181827   6.022   8.159   6.835
27195WAT     H281828   5.935   8.283   6.774
27196WAT      O81829   1.250   8.420   9.627
27196WAT     H181830   1.270   8.452   9.719
27196WAT     H281831   1.335   8.394   9.581
27197WAT      O81832   4.995   9.827   9.093
27197WAT     H181833   5.046   9.896   9.043
27197WAT     H281834   4.897   9.846   9.087
27198WAT      O81835   2.201   5.667   7.695
27198WAT     H181836   2.148   5.677   7.779
27198WAT     H281837   2.239   5.574   7.690
27199WAT      O81838   8.787   1.120   8.386
27199WAT     H181839   8.873   1.135   8.434
27199WAT     H281840   8.715   1.098   8.451
27200WAT      O81841   6.867   3.730   1.078
27200WAT     H181842   6.771   3.702   1.085
27200WAT     H281843   6.925   3.649   1.072
27201WAT      O81844   7.723   1.253   7.430
27201WAT     H181845   7.751   1.243   7.335
27201WAT     H281846   7.680   1.168   7.461
27202WAT      O81847   2.333   7.110   1.797
27202WAT     H181848   2.351   7.025   1.847
27202WAT     H281849   2.321   7.185   1.861
27203WAT      O81850   6.709   3.190   4.122
27203WAT     H181851   6.695   3.221   4.028
27203WAT     H281852   6.748   3.097   4.120
27204WAT      O81853   0.847   7.185   5.397
27204WAT     H181854   0.808   7.119   5.332
27204WAT     H281855   0.810   7.168   5.488
27205WAT      O81856   2.888   8.374   1.642
27205WAT     H181857   2.849   8.372   1.734
27205WAT     H281858   2.980   8.335   1.644
27206WAT      O81859   5.324   6.944   8.563
27206WAT     H181860   5.307   6.846   8.557
27206WAT     H281861   5.257   6.986   8.623
27207WAT      O81862   8.860   0.863   1.363
27207WAT     H181863   8.923   0.878   1.440
27207WAT     H281864   8.772   0.830   1.397
27208WAT      O81865   6.580   8.464   2.582
27208WAT     H181866   6.570   8.557   2.547
27208WAT     H281867   6.592   8.401   2.506
27209WAT      O81868   2.810   8.951   4.974
27209WAT     H181869   2.741   8.879   4.967
27209WAT     H281870   2.901   8.911   4.964
27210WAT      O81871   3.750   0.993   8.418
27210WAT     H181872   3.824   1.045   8.460
27210WAT     H281873   3.665   1.046   8.421
27211WAT      O81874   8.922   5.070   4.062
27211WAT     H181875   8.880   4.980   4.048
27211WAT     H281876   9.001   5.079   4.001
27212WAT      O81877   9.256   4.162   2.122
27212WAT     H181878   9.314   4.180   2.202
27212WAT     H281879   9.227   4.249   2.082
27213WAT      O81880   3.417   1.926   9.214
27213WAT     H181881   3.372   1.887   9.294
27213WAT     H281882   3.368   1.899   9.132
27214WAT      O81883   5.507   6.615   9.455
27214WAT     H181884   5.543   6.604   9.548
27214WAT     H281885   5.550   6.694   9.412
27215WAT      O81886   4.541   9.766   0.876
27215WAT     H181887   4.474   9.838   0.862
27215WAT     H281888   4.495   9.683   0.908
27216WAT      O81889   0.162   6.117   3.521
27216WAT     H181890   0.073   6.083   3.488
27216WAT     H281891   0.154   6.213   3.546
27217WAT      O81892   2.686   9.543   9.539
27217WAT     H181893   2.761   9.603   9.510
27217WAT     H281894   2.722   9.464   9.587
27218WAT      O81895   7.993   7.098   4.046
27218WAT     H181896   7.966   7.042   3.968
27218WAT     H281897   7.939   7.182   4.047
27219WAT      O81898   3.850   5.807   1.865
27219WAT     H181899   3.768   5.823   1.811
27219WAT     H281900   3.824   5.784   1.959
27220WAT      O81901   8.653   1.685   6.648
27220WAT     H181902   8.649   1.654   6.553
27220WAT     H281903   8.709   1.768   6.653
27221WAT      O81904   7.622   1.938   6.129
27221WAT     H181905   7.674   2.013   6.170
27221WAT     H281906   7.635   1.855   6.183
27222WAT      O81907   8.089   4.957   5.201
27222WAT     H181908   8.169   5.006   5.165
27222WAT     H281909   8.112   4.861   5.213
27223WAT      O81910   5.294   0.488   8.679
27223WAT     H181911   5.304   0.404   8.732
27223WAT     H281912   5.299   0.567   8.740
27224WAT      O81913   9.350   2.071   1.541
27224WAT     H181914   9.334   1.978   1.574
27224WAT     H281915   9.431   2.073   1.483
27225WAT      O81916   0.421   9.238   1.501
27225WAT     H181917   0.500   9.297   1.485
27225WAT     H281918   0.433   9.152   1.451
27226WAT      O81919   0.024   1.419   2.138
27226WAT     H181920   0.111   1.468   2.143
27226WAT     H281921  -0.031   1.441   2.218
27227WAT      O81922   2.931   7.149   0.248
27227WAT     H181923   2.925   7.143   0.149
27227WAT     H281924   2.843   7.180   0.285
27228WAT      O81925   6.207   5.491   1.032
27228WAT     H181926   6.159   5.483   0.944
27228WAT     H281927   6.302   5.519   1.015
27229WAT      O81928   0.231   0.180   0.985
27229WAT     H181929   0.169   0.258   0.977
27229WAT     H281930   0.292   0.194   1.063
27230WAT      O81931   5.539   5.690   2.721
27230WAT     H181932   5.636   5.695   2.744
27230WAT     H281933   5.485   5.673   2.804
27231WAT      O81934   2.017   8.018   0.119
27231WAT     H181935   1.934   8.070   0.138
27231WAT     H281936   2.097   8.075   0.138
27232WAT      O81937   1.951   4.034   7.984
27232WAT     H181938   1.988   3.952   8.029
27232WAT     H281939   1.948   4.019   7.885
27233WAT      O81940   4.120   5.022   2.066
27233WAT     H181941   4.217   5.001   2.054
27233WAT     H281942   4.111   5.118   2.093
27234WAT      O81943   1.189   8.832   0.329
27234WAT     H181944   1.127   8.904   0.362
27234WAT     H281945   1.186   8.754   0.391
27235WAT      O81946   4.210   1.154   9.183
27235WAT     H181947   4.182   1.247   9.207
27235WAT     H281948   4.310   1.147   9.186
27236WAT      O81949   9.724   1.068   2.874
27236WAT     H181950   9.723   1.166   2.894
27236WAT     H281951   9.778   1.051   2.792
27237WAT      O81952   8.082   9.063   0.233
27237WAT     H181953   8.033   8.977   0.221
27237WAT     H281954   8.171   9.057   0.188
27238WAT      O81955   2.883   8.369   0.269
27238WAT     H181956   2.806   8.325   0.224
27238WAT     H281957   2.911   8.315   0.348
27239WAT      O81958   5.145   2.578   4.887
27239WAT     H181959   5.053   2.555   4.919
27239WAT     H281960   5.204   2.498   4.896
27240WAT      O81961   3.246   1.757   1.438
27240WAT     H181962   3.195   1.843   1.444
27240WAT     H281963   3.316   1.764   1.367
27241WAT      O81964   2.010   7.410   6.919
27241WAT     H181965   1.993   7.315   6.948
27241WAT     H281966   2.107   7.432   6.935
27242WAT      O81967   8.886   7.374   7.020
27242WAT     H181968   8.812   7.429   6.980
27242WAT     H281969   8.973   7.400   6.980
27243WAT      O81970   0.391   0.169   6.602
27243WAT     H181971   0.486   0.155   6.577
27243WAT     H281972   0.338   0.191   6.519
27244WAT      O81973   6.819   7.077   7.268
27244WAT     H181974   6.842   7.163   7.222
27244WAT     H281975   6.727   7.084   7.307
27245WAT      O81976   4.714   7.149   8.740
27245WAT     H181977   4.800   7.145   8.791
27245WAT     H281978   4.648   7.085   8.780
27246WAT      O81979   3.490   3.153   7.680
27246WAT     H181980   3.412   3.091   7.682
27246WAT     H281981   3.526   3.163   7.773
27247WAT      O81982   6.720   3.560   9.825
27247WAT     H181983   6.687   3.625   9.894
27247WAT     H281984   6.643   3.506   9.790
27248WAT      O81985   7.346   9.476   6.551
27248WAT     H181986   7.255   9.483   6.591
27248WAT     H281987   7.359   9.384   6.514
27249WAT      O81988   3.753   8.048   3.172
27249WAT     H181989   3.836   8.101   3.195
27249WAT     H281990   3.766   7.953   3.199
27250WAT      O81991   6.857   2.910   2.289
27250WAT     H181992   6.938   2.885   2.236
27250WAT     H281993   6.799   2.970   2.235
27251WAT      O81994   8.315   5.247   2.603
27251WAT     H181995   8.382   5.265   2.530
27251WAT     H281996   8.302   5.329   2.657
27252WAT      O81997   0.599   3.512   2.177
27252WAT     H181998   0.634   3.558   2.096
27252WAT     H281999   0.664   3.523   2.252
27253WAT      O82000   0.498   7.581   9.048
27253WAT     H182001   0.527   7.653   9.112
27253WAT     H282002   0.518   7.611   8.955
27254WAT      O82003   0.212   7.355   2.644
27254WAT     H182004   0.202   7.448   2.680
27254WAT     H282005   0.181   7.353   2.549
27255WAT      O82006   3.188   0.985   2.960
27255WAT     H182007   3.174   0.886   2.958
27255WAT     H282008   3.120   1.029   2.900
27256WAT      O82009   9.174   6.133   6.106
27256WAT     H182010   9.100   6.197   6.088
27256WAT     H282011   9.176   6.111   6.203
27257WAT      O82012   4.275   2.065   1.142
27257WAT     H182013   4.300   2.016   1.059
27257WAT     H282014   4.190   2.029   1.178
27258WAT      O82015   0.800   8.525   6.666
27258WAT     H182016   0.819   8.475   6.751
27258WAT     H282017   0.764   8.462   6.597
27259WAT      O82018   7.320   7.240   9.700
27259WAT     H182019   7.384   7.214   9.772
27259WAT     H282020   7.239   7.281   9.741
27260WAT      O82021   8.278   9.332   9.848
27260WAT     H182022   8.288   9.428   9.875
27260WAT     H282023   8.368   9.294   9.828
27261WAT      O82024   0.717   3.179   2.457
27261WAT     H182025   0.709   3.168   2.557
27261WAT     H282026   0.629   3.205   2.419
27262WAT      O82027   6.396   2.983   4.701
27262WAT     H182028   6.369   3.033   4.784
27262WAT     H282029   6.359   2.890   4.705
27263WAT      O82030   2.710   9.659   2.299
27263WAT     H182031   2.625   9.621   2.337
27263WAT     H282032   2.705   9.759   2.301
27264WAT      O82033   6.355   4.404   5.007
27264WAT     H182034   6.412   4.467   5.059
27264WAT     H282035   6.285   4.364   5.067
27265WAT      O82036   3.732   1.514   7.191
27265WAT     H182037   3.794   1.590   7.171
27265WAT     H282038   3.776   1.450   7.253
27266WAT      O82039   8.384   8.356   3.202
27266WAT     H182040   8.310   8.424   3.199
27266WAT     H282041   8.463   8.396   3.248
27267WAT      O82042   6.964   0.995   2.759
27267WAT     H182043   7.011   1.059   2.820
27267WAT     H282044   6.887   0.954   2.807
27268WAT      O82045   2.880   3.267   1.335
27268WAT     H182046   2.933   3.243   1.417
27268WAT     H282047   2.858   3.184   1.284
27269WAT      O82048   5.918   9.334   6.238
27269WAT     H182049   5.931   9.235   6.237
27269WAT     H282050   5.998   9.377   6.282
27270WAT      O82051   2.549   5.836   8.096
27270WAT     H182052   2.555   5.882   8.008
27270WAT     H282053   2.454   5.810   8.113
27271WAT      O82054   1.890   2.455   9.595
27271WAT     H182055   1.800   2.473   9.557
27271WAT     H282056   1.937   2.541   9.612
27272WAT      O82057   9.684   3.904   0.299
27272WAT     H182058   9.649   3.847   0.374
27272WAT     H282059   9.783   3.909   0.305
27273WAT      O82060   5.958   7.789   0.629
27273WAT     H182061   5.928   7.697   0.655
27273WAT     H282062   5.966   7.794   0.529
27274WAT      O82063   0.493   7.132   8.377
27274WAT     H182064   0.479   7.035   8.396
27274WAT     H282065   0.419   7.185   8.417
27275WAT      O82066   1.336   1.132   8.279
27275WAT     H182067   1.250   1.088   8.306
27275WAT     H282068   1.391   1.148   8.361
27276WAT      O82069   9.621   5.535   6.595
27276WAT     H182070   9.553   5.601   6.564
27276WAT     H282071   9.700   5.537   6.533
27277WAT      O82072   2.241   6.500   8.578
27277WAT     H182073   2.314   6.524   8.514
27277WAT     H282074   2.210   6.583   8.625
27278WAT      O82075   8.827   8.773   9.877
27278WAT     H182076   8.784   8.811   9.958
27278WAT     H282077   8.759   8.766   9.803
27279WAT      O82078   1.494   4.146   3.202
27279WAT     H182079   1.422   4.106   3.146
27279WAT     H282080   1.519   4.082   3.275
27280WAT      O82081   7.511   1.197   8.233
27280WAT     H182082   7.494   1.293   8.215
27280WAT     H282083   7.518   1.182   8.332
27281WAT      O82084   1.012   4.334   1.121
27281WAT     H182085   1.064   4.381   1.050
27281WAT     H282086   1.031   4.377   1.209
27282WAT      O82087   9.407   8.676   8.645
27282WAT     H182088   9.464   8.599   8.615
27282WAT     H282089   9.352   8.708   8.568
27283WAT      O82090   2.457   5.931   7.123
27283WAT     H182091   2.495   5.981   7.045
27283WAT     H282092   2.423   5.841   7.092
27284WAT      O82093   7.226   6.706   6.131
27284WAT     H182094   7.274   6.622   6.154
27284WAT     H282095   7.157   6.726   6.200
27285WAT      O82096   7.601   8.869   9.174
27285WAT     H182097   7.562   8.793   9.124
27285WAT     H282098   7.664   8.835   9.244
27286WAT      O82099   4.198   4.595   3.603
27286WAT     H182100   4.157   4.656   3.536
27286WAT     H282101   4.126   4.550   3.656
27287WAT      O82102   5.260   5.507   2.751
27287WAT     H182103   5.241   5.409   2.749
27287WAT     H282104   5.348   5.523   2.795
27288WAT      O82105   2.981   5.249   1.628
27288WAT     H182106   3.079   5.230   1.630
27288WAT     H282107   2.930   5.167   1.654
27289WAT      O82108   0.830   2.465   5.654
27289WAT     H182109   0.875   2.425   5.734
27289WAT     H282110   0.735   2.486   5.677
27290WAT      O82111   1.735   9.631   6.538
27290WAT     H182112   1.824   9.678   6.542
27290WAT     H282113   1.694   9.631   6.629
27291WAT      O82114   7.079   8.454   3.262
27291WAT     H182115   7.064   8.417   3.170
27291WAT     H282116   6.993   8.455   3.313
27292WAT      O82117   8.448   1.085   6.491
27292WAT     H182118   8.511   1.026   6.542
27292WAT     H282119   8.437   1.172   6.538
27293WAT      O82120   7.280   7.879   5.450
27293WAT     H182121   7.369   7.841   5.478
27293WAT     H282122   7.237   7.817   5.385
27294WAT      O82123   6.285   0.903   4.371
27294WAT     H182124   6.233   0.901   4.456
27294WAT     H282125   6.331   0.815   4.357
27295WAT      O82126   2.742   5.322   4.756
27295WAT     H182127   2.716   5.232   4.723
27295WAT     H282128   2.807   5.364   4.692
27296WAT      O82129   1.708   0.552   2.117
27296WAT     H182130   1.716   0.562   2.217
27296WAT     H282131   1.685   0.641   2.077
27297WAT      O82132   7.711   8.085   7.876
27297WAT     H182133   7.756   8.024   7.941
27297WAT     H282134   7.712   8.044   7.785
27298WAT      O82135   9.722   9.185   4.617
27298WAT     H182136   9.657   9.221   4.684
27298WAT     H282137   9.785   9.122   4.662
27299WAT      O82138   0.159   6.647   9.236
27299WAT     H182139   0.126   6.644   9.142
27299WAT     H282140   0.081   6.640   9.298
27300WAT      O82141   4.946   3.498   1.048
27300WAT     H182142   4.864   3.456   1.010
27300WAT     H282143   4.972   3.450   1.132
27301WAT      O82144   4.150  -0.001   2.944
27301WAT     H182145   4.163   0.036   2.852
27301WAT     H282146   4.239  -0.009   2.989
27302WAT      O82147   4.846   3.946   1.508
27302WAT     H182148   4.892   3.858   1.520
27302WAT     H282149   4.879   3.989   1.424
27303WAT      O82150   1.560   0.714   2.930
27303WAT     H182151   1.479   0.681   2.978
27303WAT     H282152   1.608   0.781   2.988
27304WAT      O82153   5.555   3.882   6.613
27304WAT     H182154   5.631   3.946   6.617
27304WAT     H282155   5.499   3.892   6.696
27305WAT      O82156   3.656   7.988   2.313
27305WAT     H182157   3.737   7.929   2.315
27305WAT     H282158   3.647   8.029   2.222
27306WAT      O82159   5.225   3.862   0.170
27306WAT     H182160   5.289   3.791   0.140
27306WAT     H282161   5.140   3.854   0.119
27307WAT      O82162   5.955   0.409   7.833
27307WAT     H182163   5.957   0.496   7.882
27307WAT     H282164   6.024   0.348   7.871
27308WAT      O82165   7.901   2.673   4.319
27308WAT     H182166   7.851   2.590   4.293
27308WAT     H282167   7.942   2.714   4.238
27309WAT      O82168   3.871   2.028   5.715
27309WAT     H182169   3.905   1.937   5.690
27309WAT     H282170   3.832   2.072   5.635
27310WAT      O82171   8.311   7.821   2.700
27310WAT     H182172   8.406   7.813   2.731
27310WAT     H282173   8.270   7.902   2.741
27311WAT      O82174   7.711   7.775   5.192
27311WAT     H182175   7.668   7.856   5.233
27311WAT     H282176   7.794   7.752   5.243
27312WAT      O82177   2.084   0.485   0.976
27312WAT     H182178   2.129   0.405   0.938
27312WAT     H282179   1.994   0.459   1.012
27313WAT      O82180   1.999   7.474   5.872
27313WAT     H182181   2.012   7.553   5.933
27313WAT     H282182   2.048   7.490   5.786
27314WAT      O82183   6.882   9.462   2.180
27314WAT     H182184   6.882   9.367   2.211
27314WAT     H282185   6.918   9.467   2.087
27315WAT      O82186   7.275   0.521   6.711
27315WAT     H182187   7.260   0.477   6.622
27315WAT     H282188   7.217   0.478   6.779
27316WAT      O82189   1.128   9.450   1.188
27316WAT     H182190   1.064   9.373   1.190
27316WAT     H282191   1.219   9.416   1.164
27317WAT      O82192   4.295   5.362   4.769
27317WAT     H182193   4.261   5.409   4.850
27317WAT     H282194   4.378   5.408   4.736
27318WAT      O82195   0.083   5.613   5.735
27318WAT     H182196   0.051   5.610   5.640
27318WAT     H282197   0.103   5.707   5.761
27319WAT      O82198   6.982   8.226   8.773
27319WAT     H182199   7.043   8.277   8.711
27319WAT     H282200   6.904   8.283   8.796
27320WAT      O82201   8.214   8.514   0.523
27320WAT     H182202   8.298   8.560   0.495
27320WAT     H282203   8.225   8.415   0.512
27321WAT      O82204   2.075   4.982   6.827
27321WAT     H182205   2.169   4.991   6.860
27321WAT     H282206   2.037   5.072   6.807
27322WAT      O82207   3.473   8.657   3.272
27322WAT     H182208   3.440   8.596   3.344
27322WAT     H282209   3.395   8.696   3.223
27323WAT      O82210   8.978   2.603   3.202
27323WAT     H182211   8.929   2.589   3.116
27323WAT     H282212   9.077   2.600   3.185
27324WAT      O82213   7.440   3.106   5.205
27324WAT     H182214   7.382   3.160   5.145
27324WAT     H282215   7.389   3.028   5.241
27325WAT      O82216   4.436   1.612   4.311
27325WAT     H182217   4.474   1.634   4.221
27325WAT     H282218   4.494   1.544   4.355
27326WAT      O82219   2.518   5.564   5.103
27326WAT     H182220   2.603   5.545   5.153
27326WAT     H282221   2.447   5.499   5.131
27327WAT      O82222   5.404   1.257   0.858
27327WAT     H182223   5.488   1.246   0.911
27327WAT     H282224   5.369   1.351   0.870
27328WAT      O82225   0.553   5.072   1.227
27328WAT     H182226   0.630   5.016   1.194
27328WAT     H282227   0.565   5.090   1.325
27329WAT      O82228   1.087   4.788   8.845
27329WAT     H182229   1.012   4.730   8.878
27329WAT     H282230   1.091   4.871   8.899
27330WAT      O82231   1.887   0.092   4.440
27330WAT     H182232   1.877   0.003   4.485
27330WAT     H282233   1.850   0.163   4.498
27331WAT      O82234   7.818   9.597   5.529
27331WAT     H182235   7.753   9.538   5.480
27331WAT     H282236   7.772   9.638   5.608
27332WAT      O82237   9.095   2.874   5.383
27332WAT     H182238   9.155   2.941   5.427
27332WAT     H282239   9.080   2.798   5.446
27333WAT      O82240   3.774   3.467   0.912
27333WAT     H182241   3.696   3.526   0.890
27333WAT     H282242   3.742   3.389   0.965
27334WAT      O82243   3.015   5.694   9.574
27334WAT     H182244   2.963   5.621   9.529
27334WAT     H282245   2.968   5.781   9.559
27335WAT      O82246   6.963   8.535   3.714
27335WAT     H182247   6.995   8.576   3.629
27335WAT     H282248   6.904   8.457   3.694
27336WAT      O82249   3.176   5.969   7.383
27336WAT     H182250   3.120   5.896   7.423
27336WAT     H282251   3.119   6.029   7.327
27337WAT      O82252   6.996   9.840   5.786
27337WAT     H182253   6.943   9.794   5.715
27337WAT     H282254   7.061   9.903   5.743
27338WAT      O82255   3.213   1.490   5.535
27338WAT     H182256   3.299   1.478   5.585
27338WAT     H282257   3.199   1.412   5.474
27339WAT      O82258   3.876   7.147   0.050
27339WAT     H182259   3.802   7.206   0.082
27339WAT     H282260   3.865   7.129  -0.048
27340WAT      O82261   3.535   9.014   7.563
27340WAT     H182262   3.459   9.005   7.628
27340WAT     H282263   3.504   9.062   7.481
27341WAT      O82264   0.577   3.975   3.262
27341WAT     H182265   0.671   3.974   3.229
27341WAT     H282266   0.558   3.890   3.312
27342WAT      O82267   5.923   8.342   1.282
27342WAT     H182268   5.906   8.422   1.340
27342WAT     H282269   6.019   8.340   1.254
27343WAT      O82270   1.121   2.991   7.821
27343WAT     H182271   1.113   3.034   7.731
27343WAT     H282272   1.035   3.002   7.871
27344WAT      O82273   3.962   7.329   1.124
27344WAT     H182274   3.986   7.242   1.168
27344WAT     H282275   4.044   7.384   1.112
27345WAT      O82276   3.910   7.387   3.882
27345WAT     H182277   3.893   7.482   3.856
27345WAT     H282278   4.002   7.360   3.851
27346WAT      O82279   8.379   8.223   8.440
27346WAT     H182280   8.292   8.176   8.423
27346WAT     H282281   8.401   8.281   8.362
27347WAT      O82282   3.210   7.743   5.571
27347WAT     H182283   3.128   7.792   5.545
27347WAT     H282284   3.208   7.724   5.670
27348WAT      O82285   5.419   2.505   2.437
27348WAT     H182286   5.330   2.510   2.393
27348WAT     H282287   5.464   2.594   2.431
27349WAT      O82288   4.161   5.144   8.775
27349WAT     H182289   4.210   5.190   8.849
27349WAT     H282290   4.113   5.212   8.719
27350WAT      O82291   5.257   4.506   7.594
27350WAT     H182292   5.177   4.449   7.571
27350WAT     H282293   5.334   4.481   7.536
27351WAT      O82294   5.106   3.978   9.408
27351WAT     H182295   5.030   4.036   9.378
27351WAT     H282296   5.177   3.977   9.338
27352WAT      O82297   7.115   1.873   0.260
27352WAT     H182298   7.190   1.939   0.255
27352WAT     H282299   7.151   1.784   0.288
27353WAT      O82300   0.952   7.996   2.833
27353WAT     H182301   1.025   7.984   2.901
27353WAT     H282302   0.990   7.985   2.741
27354WAT      O82303   5.773   4.045   6.658
27354WAT     H182304   5.727   4.125   6.620
27354WAT     H282305   5.828   4.072   6.737
27355WAT      O82306   7.791   6.132   0.594
27355WAT     H182307   7.694   6.140   0.576
27355WAT     H282308   7.829   6.222   0.618
27356WAT      O82309   8.633   4.190   7.343
27356WAT     H182310   8.566   4.117   7.345
27356WAT     H282311   8.607   4.258   7.274
27357WAT      O82312   9.221   9.629   4.673
27357WAT     H182313   9.236   9.582   4.760
27357WAT     H282314   9.214   9.562   4.600
27358WAT      O82315   6.400   0.304   0.536
27358WAT     H182316   6.326   0.247   0.500
27358WAT     H282317   6.462   0.328   0.462
27359WAT      O82318   5.460   8.789   2.513
27359WAT     H182319   5.401   8.817   2.588
27359WAT     H282320   5.502   8.869   2.471
27360WAT      O82321   5.628   0.549   1.017
27360WAT     H182322   5.652   0.465   0.967
27360WAT     H282323   5.633   0.627   0.956
27361WAT      O82324   2.701   6.573   1.953
27361WAT     H182325   2.735   6.655   2.000
27361WAT     H282326   2.779   6.520   1.919
27362WAT      O82327   7.596   5.394   4.961
27362WAT     H182328   7.583   5.346   5.047
27362WAT     H282329   7.646   5.479   4.977
27363WAT      O82330   9.727   2.096   3.848
27363WAT     H182331   9.783   2.014   3.835
27363WAT     H282332   9.751   2.165   3.780
27364WAT      O82333   5.998   5.011   2.529
27364WAT     H182334   6.094   4.986   2.536
27364WAT     H282335   5.982   5.097   2.578
27365WAT      O82336   3.092   4.983   5.519
27365WAT     H182337   3.071   4.903   5.462
27365WAT     H282338   3.082   5.066   5.464
27366WAT      O82339   2.186   0.503   3.421
27366WAT     H182340   2.161   0.411   3.452
27366WAT     H282341   2.265   0.535   3.473
27367WAT      O82342   3.812   6.627   2.488
27367WAT     H182343   3.739   6.685   2.523
27367WAT     H282344   3.896   6.646   2.539
27368WAT      O82345   7.537   3.875   6.857
27368WAT     H182346   7.525   3.943   6.784
27368WAT     H282347   7.619   3.897   6.909
27369WAT      O82348   6.683   5.758   2.811
27369WAT     H182349   6.691   5.737   2.908
27369WAT     H282350   6.607   5.822   2.797
27370WAT      O82351   7.886   1.099   6.530
27370WAT     H182352   7.818   1.170   6.508
27370WAT     H282353   7.903   1.098   6.628
27371WAT      O82354   5.038   8.163   1.254
27371WAT     H182355   5.012   8.120   1.340
27371WAT     H282356   5.115   8.225   1.269
27372WAT      O82357   3.034   8.183   2.989
27372WAT     H182358   2.966   8.237   3.040
27372WAT     H282359   2.991   8.144   2.909
27373WAT      O82360   0.455   1.117   9.596
27373WAT     H182361   0.402   1.091   9.516
27373WAT     H282362   0.397   1.109   9.678
27374WAT      O82363   0.466   7.367   8.171
27374WAT     H182364   0.394   7.424   8.130
27374WAT     H282365   0.439   7.341   8.263
27375WAT      O82366   6.475   1.851   0.761
27375WAT     H182367   6.424   1.843   0.675
27375WAT     H282368   6.571   1.828   0.745
27376WAT      O82369   6.537   1.485   8.585
27376WAT     H182370   6.482   1.451   8.662
27376WAT     H282371   6.586   1.568   8.613
27377WAT      O82372   3.256   4.663   1.783
27377WAT     H182373   3.234   4.617   1.697
27377WAT     H282374   3.346   4.632   1.816
27378WAT      O82375   5.284   9.051   6.825
27378WAT     H182376   5.334   8.991   6.888
27378WAT     H282377   5.344   9.077   6.749
27379WAT      O82378   3.160   2.207   8.353
27379WAT     H182379   3.162   2.174   8.447
27379WAT     H282380   3.182   2.133   8.290
27380WAT      O82381   9.776   7.538   7.719
27380WAT     H182382   9.745   7.560   7.812
27380WAT     H282383   9.700   7.500   7.667
27381WAT      O82384   9.637   1.480   3.571
27381WAT     H182385   9.574   1.423   3.624
27381WAT     H282386   9.685   1.423   3.504
27382WAT      O82387   4.911   1.631   6.866
27382WAT     H182388   4.964   1.652   6.784
27382WAT     H282389   4.963   1.567   6.923
27383WAT      O82390   5.287   4.427   0.981
27383WAT     H182391   5.312   4.361   1.052
27383WAT     H282392   5.368   4.452   0.928
27384WAT      O82393   8.325   2.292   9.055
27384WAT     H182394   8.417   2.266   9.082
27384WAT     H282395   8.261   2.219   9.080
27385WAT      O82396   2.448   0.264   8.585
27385WAT     H182397   2.416   0.178   8.545
27385WAT     H282398   2.522   0.302   8.528
27386WAT      O82399   3.340   0.798   2.180
27386WAT     H182400   3.408   0.728   2.159
27386WAT     H282401   3.303   0.835   2.095
27387WAT      O82402   1.690   7.316   8.997
27387WAT     H182403   1.787   7.338   9.009
27387WAT     H282404   1.674   7.288   8.902
27388WAT      O82405   4.113   8.704   9.313
27388WAT     H182406   4.032   8.667   9.360
27388WAT     H282407   4.088   8.786   9.262
27389WAT      O82408   4.146   0.850   4.814
27389WAT     H182409   4.240   0.826   4.836
27389WAT     H282410   4.121   0.936   4.860
27390WAT      O82411   1.169   7.360   0.245
27390WAT     H182412   1.161   7.264   0.218
27390WAT     H282413   1.224   7.409   0.178
27391WAT      O82414   4.073   1.389   1.692
27391WAT     H182415   4.124   1.382   1.606
27391WAT     H282416   4.072   1.485   1.722
27392WAT      O82417   7.190   6.647   5.292
27392WAT     H182418   7.174   6.555   5.257
27392WAT     H282419   7.209   6.708   5.215
27393WAT      O82420   8.530   6.036   9.764
27393WAT     H182421   8.611   5.978   9.760
27393WAT     H282422   8.457   5.996   9.708
27394WAT      O82423   3.289   1.680   4.272
27394WAT     H182424   3.367   1.618   4.270
27394WAT     H282425   3.250   1.687   4.180
27395WAT      O82426   5.252   6.410   4.053
27395WAT     H182427   5.307   6.451   3.980
27395WAT     H282428   5.215   6.322   4.022
27396WAT      O82429   9.452   2.809   7.252
27396WAT     H182430   9.363   2.810   7.299
27396WAT     H282431   9.524   2.789   7.318
27397WAT      O82432   6.958   1.946   3.776
27397WAT     H182433   7.013   1.863   3.768
27397WAT     H282434   6.861   1.923   3.761
27398WAT      O82435   6.810   1.782   8.847
27398WAT     H182436   6.794   1.692   8.888
27398WAT     H282437   6.903   1.812   8.868
27399WAT      O82438   4.144   5.320   0.453
27399WAT     H182439   4.110   5.413   0.458
27399WAT     H282440   4.130   5.274   0.541
27400WAT      O82441   0.236   1.433   6.630
27400WAT     H182442   0.166   1.362   6.641
27400WAT     H282443   0.316   1.394   6.584
27401WAT      O82444   4.204   0.842   0.484
27401WAT     H182445   4.137   0.912   0.457
27401WAT     H282446   4.239   0.796   0.403
27402WAT      O82447   4.223   2.405   7.900
27402WAT     H182448   4.262   2.484   7.947
27402WAT     H282449   4.164   2.354   7.963
27403WAT      O82450   1.329   9.397   2.733
27403WAT     H182451   1.359   9.323   2.673
27403WAT     H282452   1.238   9.376   2.769
27404WAT      O82453   2.150   4.760   1.553
27404WAT     H182454   2.166   4.696   1.478
27404WAT     H282455   2.213   4.740   1.628
27405WAT      O82456   8.920   6.693   6.565
27405WAT     H182457   8.920   6.729   6.471
27405WAT     H282458   8.917   6.769   6.630
27406WAT      O82459   4.440   7.529   9.227
27406WAT     H182460   4.405   7.525   9.321
27406WAT     H282461   4.538   7.547   9.229
27407WAT      O82462   1.863   3.768   2.810
27407WAT     H182463   1.774   3.753   2.853
27407WAT     H282464   1.927   3.804   2.878
27408WAT      O82465   0.361   2.181   4.768
27408WAT     H182466   0.329   2.161   4.675
27408WAT     H282467   0.350   2.278   4.787
27409WAT      O82468   5.881   1.647   0.963
27409WAT     H182469   5.874   1.745   0.982
27409WAT     H282470   5.793   1.603   0.982
27410WAT      O82471   6.439   7.523   1.149
27410WAT     H182472   6.445   7.527   1.049
27410WAT     H282473   6.350   7.486   1.176
27411WAT      O82474   5.452   7.351   7.812
27411WAT     H182475   5.499   7.414   7.751
27411WAT     H282476   5.474   7.373   7.907
27412WAT      O82477   1.159   6.787   8.584
27412WAT     H182478   1.137   6.864   8.524
27412WAT     H282479   1.229   6.815   8.650
27413WAT      O82480   2.137   1.133   2.657
27413WAT     H182481   2.058   1.087   2.697
27413WAT     H282482   2.154   1.219   2.706
27414WAT      O82483   8.377   2.306   1.651
27414WAT     H182484   8.402   2.393   1.694
27414WAT     H282485   8.457   2.268   1.605
27415WAT      O82486   8.542   6.424   8.069
27415WAT     H182487   8.594   6.372   8.137
27415WAT     H282488   8.444   6.412   8.085
27416WAT      O82489   8.163   8.131   8.260
27416WAT     H182490   8.140   8.208   8.200
27416WAT     H282491   8.134   8.045   8.217
27417WAT      O82492   5.055   6.800   5.487
27417WAT     H182493   5.136   6.795   5.429
27417WAT     H282494   5.008   6.887   5.472
27418WAT      O82495   0.016   5.693   3.385
27418WAT     H182496   0.016   5.793   3.382
27418WAT     H282497   0.102   5.659   3.346
27419WAT      O82498   7.272   5.214   4.304
27419WAT     H182499   7.257   5.254   4.394
27419WAT     H282500   7.336   5.270   4.253
27420WAT      O82501   7.047   3.103   1.775
27420WAT     H182502   7.010   3.084   1.866
27420WAT     H282503   7.040   3.021   1.718
27421WAT      O82504   8.260   4.434   9.104
27421WAT     H182505   8.252   4.464   9.199
27421WAT     H282506   8.196   4.486   9.047
27422WAT      O82507   5.780   2.331   1.377
27422WAT     H182508   5.851   2.378   1.428
27422WAT     H282509   5.780   2.234   1.400
27423WAT      O82510   0.489   1.071   1.057
27423WAT     H182511   0.462   1.092   0.963
27423WAT     H282512   0.499   1.155   1.109
27424WAT      O82513   7.257   1.450   9.240
27424WAT     H182514   7.345   1.407   9.255
27424WAT     H282515   7.188   1.408   9.299
27425WAT      O82516   3.828   1.952   7.557
27425WAT     H182517   3.779   1.864   7.558
27425WAT     H282518   3.823   1.991   7.465
27426WAT      O82519   3.801   7.175   2.708
27426WAT     H182520   3.897   7.150   2.708
27426WAT     H282521   3.792   7.273   2.694
27427WAT      O82522   0.192   8.641   9.185
27427WAT     H182523   0.128   8.714   9.159
27427WAT     H282524   0.172   8.612   9.279
27428WAT      O82525   8.231   1.710   7.808
27428WAT     H182526   8.260   1.783   7.746
27428WAT     H282527   8.187   1.637   7.755
27429WAT      O82528   1.548   5.116   8.396
27429WAT     H182529   1.483   5.155   8.331
27429WAT     H282530   1.585   5.030   8.359
27430WAT      O82531   1.930   5.204   6.728
27430WAT     H182532   1.933   5.293   6.681
27430WAT     H282533   1.835   5.177   6.743
27431WAT      O82534   2.062   6.203   6.237
27431WAT     H182535   2.127   6.239   6.304
27431WAT     H282536   2.113   6.174   6.155
27432WAT      O82537   0.997   6.161   2.586
27432WAT     H182538   1.004   6.167   2.487
27432WAT     H282539   1.054   6.232   2.628
27433WAT      O82540   3.452   7.343   0.272
27433WAT     H182541   3.379   7.393   0.225
27433WAT     H282542   3.491   7.275   0.210
27434WAT      O82543   1.692   2.601   6.151
27434WAT     H182544   1.603   2.558   6.143
27434WAT     H282545   1.703   2.638   6.244
27435WAT      O82546   0.845   8.974   7.088
27435WAT     H182547   0.810   8.977   7.181
27435WAT     H282548   0.902   8.893   7.076
27436WAT      O82549   1.495   5.714   6.148
27436WAT     H182550   1.586   5.680   6.173
27436WAT     H282551   1.427   5.671   6.207
27437WAT      O82552   1.769   1.729   8.711
27437WAT     H182553   1.752   1.812   8.763
27437WAT     H282554   1.695   1.664   8.726
27438WAT      O82555   2.104   3.093   3.716
27438WAT     H182556   2.116   3.082   3.618
27438WAT     H282557   2.007   3.081   3.739
27439WAT      O82558   6.675   4.688   5.425
27439WAT     H182559   6.628   4.600   5.420
27439WAT     H282560   6.741   4.695   5.350
27440WAT      O82561   6.438   4.661   0.517
27440WAT     H182562   6.409   4.614   0.434
27440WAT     H282563   6.357   4.683   0.572
27441WAT      O82564   4.060   0.512   6.875
27441WAT     H182565   4.122   0.589   6.888
27441WAT     H282566   4.089   0.436   6.934
27442WAT      O82567   7.400   5.833   6.900
27442WAT     H182568   7.316   5.827   6.953
27442WAT     H282569   7.378   5.841   6.802
27443WAT      O82570   5.398   2.184   5.888
27443WAT     H182571   5.493   2.204   5.912
27443WAT     H282572   5.363   2.256   5.828
27444WAT      O82573   3.618   3.835   6.762
27444WAT     H182574   3.564   3.919   6.770
27444WAT     H282575   3.643   3.820   6.666
27445WAT      O82576   1.383   2.330   0.311
27445WAT     H182577   1.289   2.315   0.342
27445WAT     H282578   1.447   2.290   0.378
27446WAT      O82579   7.375   4.167   9.894
27446WAT     H182580   7.415   4.122   9.814
27446WAT     H282581   7.293   4.216   9.866
27447WAT      O82582   5.842   6.554   8.076
27447WAT     H182583   5.833   6.473   8.019
27447WAT     H282584   5.919   6.609   8.043
27448WAT      O82585   6.515   6.497   4.390
27448WAT     H182586   6.535   6.451   4.476
27448WAT     H282587   6.573   6.460   4.318
27449WAT      O82588   0.819   6.954   1.542
27449WAT     H182589   0.813   6.954   1.442
27449WAT     H282590   0.872   7.033   1.572
27450WAT      O82591   1.223   7.641   3.090
27450WAT     H182592   1.156   7.576   3.126
27450WAT     H282593   1.252   7.611   2.999
27451WAT      O82594   3.414   9.424   4.533
27451WAT     H182595   3.444   9.331   4.511
27451WAT     H282596   3.478   9.465   4.599
27452WAT      O82597   5.992   6.192   7.764
27452WAT     H182598   5.940   6.116   7.727
27452WAT     H282599   6.090   6.168   7.765
27453WAT      O82600   7.084   5.439   1.700
27453WAT     H182601   7.153   5.378   1.661
27453WAT     H282602   7.124   5.489   1.776
27454WAT      O82603   3.846   1.818   8.266
27454WAT     H182604   3.795   1.896   8.229
27454WAT     H282605   3.909   1.850   8.337
27455WAT      O82606   9.176   0.752   8.944
27455WAT     H182607   9.182   0.665   8.995
27455WAT     H282608   9.247   0.754   8.874
27456WAT      O82609   5.566   2.176   7.254
27456WAT     H182610   5.574   2.078   7.235
27456WAT     H282611   5.652   2.222   7.232
27457WAT      O82612   0.295   9.464   8.326
27457WAT     H182613   0.369   9.403   8.300
27457WAT     H282614   0.225   9.413   8.376
27458WAT      O82615   0.920   3.149   9.887
27458WAT     H182616   0.958   3.236   9.918
27458WAT     H282617   0.993   3.082   9.877
27459WAT      O82618   3.864   6.732   1.191
27459WAT     H182619   3.956   6.747   1.228
27459WAT     H282620   3.843   6.634   1.192
27460WAT      O82621   1.070   8.651   6.571
27460WAT     H182622   1.167   8.672   6.581
27460WAT     H282623   1.048   8.569   6.624
27461WAT      O82624   2.821   7.230   0.775
27461WAT     H182625   2.901   7.285   0.799
27461WAT     H282626   2.768   7.211   0.857
27462WAT      O82627   3.271   7.877   6.373
27462WAT     H182628   3.207   7.943   6.411
27462WAT     H282629   3.313   7.824   6.447
27463WAT      O82630   2.306   7.624   6.064
27463WAT     H182631   2.208   7.645   6.068
27463WAT     H282632   2.318   7.526   6.051
27464WAT      O82633   8.479   3.651   9.582
27464WAT     H182634   8.568   3.692   9.604
27464WAT     H282635   8.446   3.599   9.661
27465WAT      O82636   3.429   4.042   9.836
27465WAT     H182637   3.430   3.945   9.811
27465WAT     H282638   3.334   4.074   9.843
27466WAT      O82639   1.673   2.674   7.141
27466WAT     H182640   1.606   2.716   7.203
27466WAT     H282641   1.680   2.576   7.161
27467WAT      O82642   5.451   0.718   6.482
27467WAT     H182643   5.537   0.692   6.439
27467WAT     H282644   5.375   0.700   6.420
27468WAT      O82645   5.445   0.801   7.383
27468WAT     H182646   5.493   0.733   7.438
27468WAT     H282647   5.348   0.802   7.408
27469WAT      O82648   5.491   2.463   3.335
27469WAT     H182649   5.570   2.406   3.358
27469WAT     H282650   5.426   2.461   3.411
27470WAT      O82651   5.985   3.634   8.574
27470WAT     H182652   6.001   3.701   8.647
27470WAT     H282653   5.967   3.544   8.615
27471WAT      O82654   3.340   1.076   6.147
27471WAT     H182655   3.281   1.066   6.067
27471WAT     H282656   3.347   1.173   6.172
27472WAT      O82657   5.475   1.916   2.150
27472WAT     H182658   5.489   1.948   2.057
27472WAT     H282659   5.492   1.817   2.154
27473WAT      O82660   2.326   4.709   4.912
27473WAT     H182661   2.283   4.642   4.851
27473WAT     H282662   2.413   4.673   4.945
27474WAT      O82663   5.348   6.193   2.663
27474WAT     H182664   5.418   6.124   2.685
27474WAT     H282665   5.330   6.249   2.744
27475WAT      O82666   9.870   2.919   4.168
27475WAT     H182667   9.787   2.975   4.163
27475WAT     H282668   9.939   2.967   4.221
27476WAT      O82669   1.737   8.613   5.905
27476WAT     H182670   1.809   8.551   5.872
27476WAT     H282671   1.775   8.704   5.920
27477WAT      O82672   7.581   9.716   0.882
27477WAT     H182673   7.582   9.627   0.837
27477WAT     H282674   7.491   9.758   0.870
27478WAT      O82675   8.384   4.990   0.062
27478WAT     H182676   8.316   5.047   0.017
27478WAT     H282677   8.474   5.031   0.051
27479WAT      O82678   5.579   7.559   8.979
27479WAT     H182679   5.644   7.568   8.904
27479WAT     H282680   5.494   7.607   8.956
27480WAT      O82681   6.422   0.162   8.916
27480WAT     H182682   6.492   0.138   8.983
27480WAT     H282683   6.464   0.171   8.826
27481WAT      O82684   2.099   5.013   7.851
27481WAT     H182685   2.040   5.047   7.924
27481WAT     H282686   2.189   4.992   7.888
27482WAT      O82687   2.974   2.253   7.176
27482WAT     H182688   2.928   2.168   7.201
27482WAT     H282689   3.043   2.235   7.107
27483WAT      O82690   1.168   5.238   0.056
27483WAT     H182691   1.250   5.251   0.001
27483WAT     H282692   1.192   5.242   0.153
27484WAT      O82693   2.160   9.647   0.988
27484WAT     H182694   2.145   9.629   1.085
27484WAT     H282695   2.229   9.718   0.977
27485WAT      O82696   9.307   7.454   7.665
27485WAT     H182697   9.235   7.474   7.599
27485WAT     H282698   9.311   7.527   7.733
27486WAT      O82699   0.124   3.459   7.697
27486WAT     H182700   0.193   3.387   7.707
27486WAT     H282701   0.085   3.454   7.605
27487WAT      O82702   2.006   5.928   1.964
27487WAT     H182703   1.926   5.910   2.022
27487WAT     H282704   2.083   5.872   1.994
27488WAT      O82705   4.836   7.538   6.334
27488WAT     H182706   4.753   7.592   6.318
27488WAT     H282707   4.809   7.443   6.355
27489WAT      O82708   1.323   6.668   2.754
27489WAT     H182709   1.289   6.741   2.813
27489WAT     H282710   1.370   6.708   2.675
27490WAT      O82711   7.929   0.599   4.870
27490WAT     H182712   7.948   0.613   4.967
27490WAT     H282713   8.014   0.610   4.817
27491WAT      O82714   3.102   3.557   2.636
27491WAT     H182715   3.124   3.618   2.711
27491WAT     H282716   3.051   3.478   2.671
27492WAT      O82717   8.162   2.623   6.864
27492WAT     H182718   8.115   2.613   6.952
27492WAT     H282719   8.170   2.720   6.841
27493WAT      O82720   0.929   1.681   4.899
27493WAT     H182721   0.969   1.622   4.828
27493WAT     H282722   0.893   1.764   4.856
27494WAT      O82723   2.978   2.478   1.734
27494WAT     H182724   2.957   2.496   1.638
27494WAT     H282725   2.982   2.379   1.749
27495WAT      O82726   8.876   5.108   2.725
27495WAT     H182727   8.826   5.022   2.711
27495WAT     H282728   8.963   5.105   2.675
27496WAT      O82729   8.399   4.467   4.399
27496WAT     H182730   8.407   4.566   4.408
27496WAT     H282731   8.351   4.445   4.314
27497WAT      O82732   2.880   4.058   6.992
27497WAT     H182733   2.907   4.149   6.960
27497WAT     H282734   2.952   4.020   7.049
27498WAT      O82735   8.417   4.735   4.225
27498WAT     H182736   8.327   4.762   4.258
27498WAT     H282737   8.426   4.760   4.128
27499WAT      O82738   0.389   0.211   1.218
27499WAT     H182739   0.486   0.190   1.204
27499WAT     H282740   0.342   0.130   1.252
27500WAT      O82741   7.822   3.290   2.994
27500WAT     H182742   7.777   3.214   2.948
27500WAT     H282743   7.784   3.301   3.086
27501WAT      O82744   8.629   4.222   4.211
27501WAT     H182745   8.629   4.130   4.250
27501WAT     H282746   8.659   4.288   4.281
27502WAT      O82747   2.276   3.374   3.127
27502WAT     H182748   2.249   3.287   3.085
27502WAT     H282749   2.301   3.359   3.223
27503WAT      O82750   2.963   2.403   6.749
27503WAT     H182751   2.947   2.304   6.748
27503WAT     H282752   2.887   2.448   6.796
27504WAT      O82753   0.223   6.668   3.782
27504WAT     H182754   0.268   6.694   3.697
27504WAT     H282755   0.126   6.650   3.765
27505WAT      O82756   6.346   7.190   1.294
27505WAT     H182757   6.282   7.233   1.229
27505WAT     H282758   6.297   7.165   1.378
27506WAT      O82759   6.606   0.867   0.254
27506WAT     H182760   6.626   0.790   0.193
27506WAT     H282761   6.521   0.911   0.226
27507WAT      O82762   2.250   2.213   1.189
27507WAT     H182763   2.280   2.182   1.279
27507WAT     H282764   2.177   2.153   1.156
27508WAT      O82765   0.731   3.256   1.876
27508WAT     H182766   0.717   3.198   1.796
27508WAT     H282767   0.691   3.212   1.957
27509WAT      O82768   8.330   9.599   9.720
27509WAT     H182769   8.384   9.677   9.689
27509WAT     H282770   8.298   9.546   9.641
27510WAT      O82771   2.322   3.760   7.677
27510WAT     H182772   2.331   3.849   7.633
27510WAT     H282773   2.409   3.734   7.719
27511WAT      O82774   5.341   0.415   9.053
27511WAT     H182775   5.247   0.402   9.086
27511WAT     H282776   5.347   0.500   9.002
27512WAT      O82777   2.019   2.680   8.281
27512WAT     H182778   2.066   2.734   8.211
27512WAT     H282779   1.962   2.740   8.337
27513WAT      O82780   6.470   6.946   2.749
27513WAT     H182781   6.453   6.857   2.708
27513WAT     H282782   6.564   6.950   2.783
27514WAT      O82783   0.488   1.278   7.728
27514WAT     H182784   0.441   1.339   7.791
27514WAT     H282785   0.423   1.210   7.693
27515WAT      O82786   5.742   5.093   5.506
27515WAT     H182787   5.720   5.037   5.426
27515WAT     H282788   5.669   5.083   5.574
27516WAT      O82789   2.307   5.916   6.756
27516WAT     H182790   2.335   5.979   6.828
27516WAT     H282791   2.371   5.922   6.679
27517WAT      O82792   5.758   7.123   7.449
27517WAT     H182793   5.725   7.076   7.532
27517WAT     H282794   5.858   7.131   7.453
27518WAT      O82795   1.255   1.995   7.698
27518WAT     H182796   1.296   1.904   7.712
27518WAT     H282797   1.160   1.984   7.668
27519WAT      O82798   8.741   9.453   9.785
27519WAT     H182799   8.789   9.490   9.866
27519WAT     H282800   8.748   9.518   9.710
27520WAT      O82801   3.868   3.428   2.927
27520WAT     H182802   3.849   3.347   2.984
27520WAT     H282803   3.819   3.420   2.841
27521WAT      O82804   0.715   8.571   4.026
27521WAT     H182805   0.652   8.550   3.951
27521WAT     H282806   0.776   8.645   3.998
27522WAT      O82807   0.467   4.698   7.550
27522WAT     H182808   0.517   4.611   7.555
27522WAT     H282809   0.370   4.680   7.530
27523WAT      O82810   0.134   3.618   4.350
27523WAT     H182811   0.141   3.717   4.363
27523WAT     H282812   0.081   3.599   4.267
27524WAT      O82813   0.294   8.607   7.638
27524WAT     H182814   0.347   8.683   7.602
27524WAT     H282815   0.228   8.577   7.570
27525WAT      O82816   3.822   9.546   3.051
27525WAT     H182817   3.892   9.607   3.089
27525WAT     H282818   3.849   9.520   2.958
27526WAT      O82819   5.251   4.442   8.887
27526WAT     H182820   5.307   4.485   8.816
27526WAT     H282821   5.217   4.513   8.949
27527WAT      O82822   9.379   0.881   1.172
27527WAT     H182823   9.378   0.785   1.143
27527WAT     H282824   9.317   0.893   1.250
27528WAT      O82825   5.666   4.694   1.325
27528WAT     H182826   5.662   4.596   1.306
27528WAT     H282827   5.751   4.732   1.289
27529WAT      O82828   4.687   0.461   0.043
27529WAT     H182829   4.764   0.466  -0.021
27529WAT     H282830   4.701   0.384   0.105
27530WAT      O82831   4.508   5.914   8.840
27530WAT     H182832   4.456   5.995   8.867
27530WAT     H282833   4.605   5.937   8.835
27531WAT      O82834   6.756   5.244   4.666
27531WAT     H182835   6.839   5.251   4.611
27531WAT     H282836   6.778   5.202   4.754
27532WAT      O82837   7.568   7.283   5.868
27532WAT     H182838   7.527   7.373   5.855
27532WAT     H282839   7.536   7.221   5.796
27533WAT      O82840   4.648   4.955   6.055
27533WAT     H182841   4.551   4.937   6.069
27533WAT     H282842   4.687   4.996   6.138
27534WAT      O82843   3.869   5.806   4.515
27534WAT     H182844   3.909   5.866   4.446
27534WAT     H282845   3.919   5.719   4.517
27535WAT      O82846   7.170   3.592   9.888
27535WAT     H182847   7.168   3.559   9.793
27535WAT     H282848   7.200   3.687   9.890
27536WAT      O82849   6.904   0.521   0.395
27536WAT     H182850   6.901   0.533   0.296
27536WAT     H282851   6.906   0.611   0.439
27537WAT      O82852   9.107   2.266   8.123
27537WAT     H182853   9.143   2.359   8.126
27537WAT     H282854   9.007   2.269   8.122
27538WAT      O82855   8.430   0.188   2.929
27538WAT     H182856   8.525   0.219   2.918
27538WAT     H282857   8.427   0.113   2.995
27539WAT      O82858   4.575   4.199   3.264
27539WAT     H182859   4.631   4.262   3.319
27539WAT     H282860   4.620   4.183   3.176
27540WAT      O82861   8.495   1.612   7.038
27540WAT     H182862   8.533   1.532   6.990
27540WAT     H282863   8.569   1.676   7.058
27541WAT      O82864   2.848   4.222   3.543
27541WAT     H182865   2.857   4.211   3.444
27541WAT     H282866   2.877   4.314   3.570
27542WAT      O82867   7.427   0.800   0.307
27542WAT     H182868   7.414   0.829   0.212
27542WAT     H282869   7.337   0.790   0.351
27543WAT      O82870   0.214   6.630   8.452
27543WAT     H182871   0.166   6.555   8.406
27543WAT     H282872   0.224   6.707   8.388
27544WAT      O82873   7.584   9.075   6.099
27544WAT     H182874   7.641   9.075   6.017
27544WAT     H282875   7.488   9.069   6.073
27545WAT      O82876   5.290   6.719   4.779
27545WAT     H182877   5.385   6.750   4.785
27545WAT     H282878   5.282   6.628   4.819
27546WAT      O82879   9.116   3.561   2.580
27546WAT     H182880   9.074   3.519   2.500
27546WAT     H282881   9.197   3.612   2.551
27547WAT      O82882   2.461   3.406   7.762
27547WAT     H182883   2.424   3.349   7.689
27547WAT     H282884   2.454   3.357   7.849
27548WAT      O82885   6.483   7.707   2.955
27548WAT     H182886   6.406   7.724   3.017
27548WAT     H282887   6.550   7.781   2.964
27549WAT      O82888   6.245   2.842   8.851
27549WAT     H182889   6.253   2.923   8.792
27549WAT     H282890   6.219   2.871   8.943
27550WAT      O82891   4.644   7.653   6.807
27550WAT     H182892   4.584   7.700   6.872
27550WAT     H282893   4.739   7.666   6.835
27551WAT      O82894   1.064   1.848   5.351
27551WAT     H182895   1.117   1.890   5.425
27551WAT     H282896   0.967   1.865   5.366
27552WAT      O82897   2.869   3.212   7.124
27552WAT     H182898   2.847   3.305   7.153
27552WAT     H282899   2.966   3.195   7.137
27553WAT      O82900   9.540   1.117   4.068
27553WAT     H182901   9.451   1.133   4.027
27553WAT     H282902   9.530   1.106   4.167
27554WAT      O82903   9.759   4.259   5.375
27554WAT     H182904   9.774   4.358   5.382
27554WAT     H282905   9.800   4.213   5.454
27555WAT      O82906   2.447   2.612   9.175
27555WAT     H182907   2.493   2.523   9.176
27555WAT     H282908   2.412   2.632   9.267
27556WAT      O82909   2.130   6.022   5.498
27556WAT     H182910   2.031   6.015   5.513
27556WAT     H282911   2.150   6.105   5.446
27557WAT      O82912   8.567   0.391   2.727
27557WAT     H182913   8.515   0.333   2.663
27557WAT     H282914   8.626   0.333   2.783
27558WAT      O82915   8.037   9.586   6.430
27558WAT     H182916   7.986   9.500   6.425
27558WAT     H282917   8.021   9.630   6.518
27559WAT      O82918   5.251   1.549   5.950
27559WAT     H182919   5.189   1.611   5.902
27559WAT     H282920   5.204   1.464   5.971
27560WAT      O82921   9.788   3.607   6.819
27560WAT     H182922   9.741   3.689   6.851
27560WAT     H282923   9.874   3.597   6.869
27561WAT      O82924   1.721   1.946   8.559
27561WAT     H182925   1.676   2.002   8.628
27561WAT     H282926   1.758   1.863   8.601
27562WAT      O82927   3.738   8.077   8.066
27562WAT     H182928   3.680   8.029   8.000
27562WAT     H282929   3.698   8.167   8.085
27563WAT      O82930   8.999   5.892   1.580
27563WAT     H182931   9.017   5.870   1.484
27563WAT     H282932   9.078   5.866   1.636
27564WAT      O82933   4.762   2.523   7.647
27564WAT     H182934   4.736   2.437   7.603
27564WAT     H282935   4.855   2.548   7.620
27565WAT      O82936   4.585   0.160   6.659
27565WAT     H182937   4.525   0.082   6.642
27565WAT     H282938   4.661   0.131   6.718
27566WAT      O82939   1.741   7.910   7.273
27566WAT     H182940   1.692   7.827   7.299
27566WAT     H282941   1.674   7.982   7.253
27567WAT      O82942   2.338   5.032   6.938
27567WAT     H182943   2.418   4.982   6.907
27567WAT     H282944   2.318   5.009   7.033
27568WAT      O82945   2.623   1.127   8.960
27568WAT     H182946   2.643   1.086   9.048
27568WAT     H282947   2.627   1.227   8.967
27569WAT      O82948   5.635   5.259   9.077
27569WAT     H182949   5.616   5.201   9.156
27569WAT     H282950   5.564   5.330   9.070
27570WAT      O82951   2.671   5.305   9.167
27570WAT     H182952   2.599   5.294   9.098
27570WAT     H282953   2.761   5.304   9.123
27571WAT      O82954   0.499   3.912   8.486
27571WAT     H182955   0.537   4.004   8.494
27571WAT     H282956   0.419   3.914   8.426
27572WAT      O82957   9.016   8.618   3.999
27572WAT     H182958   9.104   8.647   3.962
27572WAT     H282959   8.995   8.671   4.081
27573WAT      O82960   9.388   7.422   1.598
27573WAT     H182961   9.334   7.346   1.562
27573WAT     H282962   9.370   7.504   1.545
27574WAT      O82963   2.278   6.284   4.048
27574WAT     H182964   2.215   6.357   4.072
27574WAT     H282965   2.352   6.279   4.115
27575WAT      O82966   6.653   8.398   2.106
27575WAT     H182967   6.664   8.352   2.194
27575WAT     H282968   6.688   8.339   2.033
27576WAT      O82969   2.661   6.693   5.676
27576WAT     H182970   2.598   6.621   5.705
27576WAT     H282971   2.611   6.780   5.669
27577WAT      O82972   6.390   4.055   0.475
27577WAT     H182973   6.322   3.998   0.520
27577WAT     H282974   6.410   4.135   0.531
27578WAT      O82975   4.865   5.754   2.428
27578WAT     H182976   4.941   5.815   2.404
27578WAT     H282977   4.782   5.785   2.381
27579WAT      O82978   3.694   2.143   9.711
27579WAT     H182979   3.650   2.152   9.622
27579WAT     H282980   3.766   2.073   9.706
27580WAT      O82981   7.275   8.199   6.142
27580WAT     H182982   7.362   8.195   6.192
27580WAT     H282983   7.211   8.133   6.182
27581WAT      O82984   4.965   4.765   7.883
27581WAT     H182985   4.999   4.859   7.879
27581WAT     H282986   4.865   4.766   7.877
27582WAT      O82987   4.357   1.207   5.884
27582WAT     H182988   4.406   1.266   5.948
27582WAT     H282989   4.389   1.226   5.791
27583WAT      O82990   6.377   0.871   0.712
27583WAT     H182991   6.288   0.840   0.677
27583WAT     H282992   6.441   0.882   0.636
27584WAT      O82993   8.719   9.592   9.141
27584WAT     H182994   8.640   9.604   9.081
27584WAT     H282995   8.715   9.501   9.182
27585WAT      O82996   3.327   1.908   3.232
27585WAT     H182997   3.351   1.811   3.232
27585WAT     H282998   3.246   1.923   3.288
27586WAT      O82999   3.847   0.071   6.978
27586WAT     H183000   3.893   0.027   6.901
27586WAT     H283001   3.902   0.057   7.061
27587WAT      O83002   8.106   6.632   0.178
27587WAT     H183003   8.155   6.549   0.205
27587WAT     H283004   8.090   6.630   0.079
27588WAT      O83005   3.198   6.587   7.566
27588WAT     H183006   3.277   6.626   7.518
27588WAT     H283007   3.201   6.487   7.560
27589WAT      O83008   7.226   3.836   0.940
27589WAT     H183009   7.260   3.861   0.850
27589WAT     H283010   7.303   3.808   0.998
27590WAT      O83011   4.004   3.279   6.887
27590WAT     H183012   4.064   3.354   6.915
27590WAT     H283013   4.059   3.205   6.849
27591WAT      O83014   5.314   4.844   2.963
27591WAT     H183015   5.276   4.803   2.881
27591WAT     H283016   5.362   4.928   2.939
27592WAT      O83017   0.939   7.664   8.667
27592WAT     H183018   0.889   7.685   8.751
27592WAT     H283019   1.002   7.739   8.646
27593WAT      O83020   3.348   5.254   2.282
27593WAT     H183021   3.447   5.269   2.284
27593WAT     H283022   3.312   5.275   2.191
27594WAT      O83023   7.542   4.509   2.079
27594WAT     H183024   7.587   4.592   2.044
27594WAT     H283025   7.524   4.519   2.176
27595WAT      O83026   5.707   7.695   5.693
27595WAT     H183027   5.769   7.626   5.729
27595WAT     H283028   5.758   7.758   5.634
27596WAT      O83029   5.682   7.535   4.636
27596WAT     H183030   5.596   7.517   4.684
27596WAT     H283031   5.713   7.450   4.592
27597WAT      O83032   9.633   2.144   1.215
27597WAT     H183033   9.583   2.073   1.165
27597WAT     H283034   9.662   2.215   1.151
27598WAT      O83035   8.702   3.920   4.897
27598WAT     H183036   8.701   3.821   4.913
27598WAT     H283037   8.609   3.956   4.903
27599WAT      O83038   3.556   7.147   4.642
27599WAT     H183039   3.518   7.067   4.595
27599WAT     H283040   3.637   7.180   4.594
27600WAT      O83041   9.027   7.712   9.821
27600WAT     H183042   8.938   7.738   9.859
27600WAT     H283043   9.074   7.794   9.788
27601WAT      O83044   3.999   1.643   0.606
27601WAT     H183045   3.984   1.738   0.633
27601WAT     H283046   4.076   1.606   0.659
27602WAT      O83047   8.529   6.079   8.775
27602WAT     H183048   8.588   6.160   8.772
27602WAT     H283049   8.471   6.084   8.857
27603WAT      O83050   4.426   8.177   3.049
27603WAT     H183051   4.510   8.148   3.094
27603WAT     H283052   4.405   8.116   2.973
27604WAT      O83053   6.483   2.219   6.898
27604WAT     H183054   6.560   2.178   6.945
27604WAT     H283055   6.436   2.283   6.959
27605WAT      O83056   5.706   4.641   9.313
27605WAT     H183057   5.659   4.664   9.399
27605WAT     H283058   5.709   4.722   9.255
27606WAT      O83059   7.194   0.191   8.821
27606WAT     H183060   7.233   0.156   8.736
27606WAT     H283061   7.265   0.198   8.891
27607WAT      O83062   6.886   1.593   4.097
27607WAT     H183063   6.823   1.620   4.024
27607WAT     H283064   6.955   1.663   4.110
27608WAT      O83065   7.612   2.419   5.790
27608WAT     H183066   7.595   2.367   5.874
27608WAT     H283067   7.609   2.517   5.811
27609WAT      O83068   8.506   0.196   1.915
27609WAT     H183069   8.540   0.242   1.997
27609WAT     H283070   8.556   0.111   1.901
27610WAT      O83071   7.165   6.265   4.432
27610WAT     H183072   7.214   6.352   4.431
27610WAT     H283073   7.101   6.261   4.356
27611WAT      O83074   7.834   0.214   5.155
27611WAT     H183075   7.897   0.283   5.191
27611WAT     H283076   7.887   0.137   5.119
27612WAT      O83077   7.380   5.242   6.055
27612WAT     H183078   7.415   5.194   5.974
27612WAT     H283079   7.286   5.215   6.071
27613WAT      O83080   7.672   6.579   9.681
27613WAT     H183081   7.575   6.583   9.655
27613WAT     H283082   7.718   6.510   9.626
27614WAT      O83083   6.242   2.522   1.517
27614WAT     H183084   6.178   2.512   1.441
27614WAT     H283085   6.298   2.439   1.525
27615WAT      O83086   8.187   4.965   4.833
27615WAT     H183087   8.226   4.894   4.891
27615WAT     H283088   8.122   4.924   4.768
27616WAT      O83089   3.070   9.706   9.580
27616WAT     H183090   3.167   9.697   9.558
27616WAT     H283091   3.056   9.685   9.677
27617WAT      O83092   7.318   0.517   1.168
27617WAT     H183093   7.273   0.584   1.109
27617WAT     H283094   7.254   0.489   1.240
27618WAT      O83095   6.518   0.463   3.057
27618WAT     H183096   6.432   0.414   3.042
27618WAT     H283097   6.537   0.466   3.155
27619WAT      O83098   3.709   0.576   5.139
27619WAT     H183099   3.621   0.570   5.185
27619WAT     H283100   3.782   0.551   5.203
27620WAT      O83101   7.561   2.302   4.166
27620WAT     H183102   7.639   2.296   4.105
27620WAT     H283103   7.477   2.280   4.116
27621WAT      O83104   0.527   5.242   4.940
27621WAT     H183105   0.471   5.291   4.874
27621WAT     H283106   0.594   5.186   4.892
27622WAT      O83107   1.714   2.418   7.184
27622WAT     H183108   1.669   2.423   7.095
27622WAT     H283109   1.691   2.332   7.229
27623WAT      O83110   5.715   9.319   9.759
27623WAT     H183111   5.624   9.279   9.747
27623WAT     H283112   5.783   9.266   9.708
27624WAT      O83113   4.760   2.033   3.402
27624WAT     H183114   4.734   2.110   3.344
27624WAT     H283115   4.860   2.027   3.407
27625WAT      O83116   0.936   8.481   7.004
27625WAT     H183117   0.909   8.544   7.077
27625WAT     H283118   0.875   8.401   7.005
27626WAT      O83119   8.260   6.178   1.785
27626WAT     H183120   8.248   6.082   1.760
27626WAT     H283121   8.234   6.191   1.881
27627WAT      O83122   9.872   8.054   4.899
27627WAT     H183123   9.962   8.091   4.878
27627WAT     H283124   9.801   8.118   4.868
27628WAT      O83125   2.523   8.375   7.487
27628WAT     H183126   2.605   8.431   7.475
27628WAT     H283127   2.546   8.279   7.476
27629WAT      O83128   7.746   9.221   4.649
27629WAT     H183129   7.789   9.311   4.649
27629WAT     H283130   7.774   9.171   4.567
27630WAT      O83131   8.279   4.199   5.159
27630WAT     H183132   8.221   4.122   5.132
27630WAT     H283133   8.248   4.282   5.113
27631WAT      O83134   1.870   3.729   3.271
27631WAT     H183135   1.777   3.700   3.246
27631WAT     H283136   1.913   3.773   3.192
27632WAT      O83137   0.653   6.913   1.953
27632WAT     H183138   0.621   6.822   1.979
27632WAT     H283139   0.735   6.904   1.897
27633WAT      O83140   5.734   8.632   8.406
27633WAT     H183141   5.695   8.604   8.318
27633WAT     H283142   5.718   8.561   8.474
27634WAT      O83143   3.669   8.067   2.034
27634WAT     H183144   3.673   8.156   2.080
27634WAT     H283145   3.603   8.071   1.959
27635WAT      O83146   4.955   4.369   3.609
27635WAT     H183147   4.957   4.323   3.520
27635WAT     H283148   4.892   4.447   3.605
27636WAT      O83149   7.556   6.229   1.571
27636WAT     H183150   7.481   6.246   1.636
27636WAT     H283151   7.549   6.136   1.536
27637WAT      O83152   3.254   5.524   0.375
27637WAT     H183153   3.237   5.620   0.354
27637WAT     H283154   3.349   5.501   0.352
27638WAT      O83155   4.289   6.825   8.174
27638WAT     H183156   4.238   6.851   8.092
27638WAT     H283157   4.377   6.872   8.176
27639WAT      O83158   6.552   6.421   5.328
27639WAT     H183159   6.579   6.510   5.292
27639WAT     H283160   6.610   6.350   5.288
27640WAT      O83161   9.097   9.318   7.031
27640WAT     H183162   9.191   9.349   7.048
27640WAT     H283163   9.051   9.382   6.970
27641WAT      O83164   3.934   4.266   8.582
27641WAT     H183165   4.002   4.227   8.644
27641WAT     H283166   3.847   4.278   8.631
27642WAT      O83167   2.014   3.819   3.031
27642WAT     H183168   2.041   3.913   3.050
27642WAT     H283169   2.093   3.759   3.039
27643WAT      O83170   0.643   3.492   3.497
27643WAT     H183171   0.628   3.408   3.445
27643WAT     H283172   0.600   3.483   3.587
27644WAT      O83173   5.493   7.429   8.053
27644WAT     H183174   5.432   7.483   8.111
27644WAT     H283175   5.586   7.462   8.063
27645WAT      O83176   5.804   4.126   7.440
27645WAT     H183177   5.725   4.064   7.439
27645WAT     H283178   5.780   4.210   7.488
27646WAT      O83179   8.524   5.115   5.765
27646WAT     H183180   8.438   5.065   5.777
27646WAT     H283181   8.594   5.074   5.823
27647WAT      O83182   9.608   1.527   6.517
27647WAT     H183183   9.640   1.458   6.452
27647WAT     H283184   9.511   1.513   6.535
27648WAT      O83185   6.768   0.688   6.644
27648WAT     H183186   6.816   0.735   6.718
27648WAT     H283187   6.781   0.590   6.652
27649WAT      O83188   7.406   0.403   6.143
27649WAT     H183189   7.442   0.493   6.120
27649WAT     H283190   7.421   0.385   6.240
27650WAT      O83191   2.878   8.900   7.661
27650WAT     H183192   2.779   8.885   7.666
27650WAT     H283193   2.915   8.851   7.582
27651WAT      O83194   4.097   2.789   3.761
27651WAT     H183195   4.074   2.713   3.701
27651WAT     H283196   4.197   2.802   3.761
27652WAT      O83197   9.488   0.031   3.262
27652WAT     H183198   9.528  -0.055   3.232
27652WAT     H283199   9.539   0.108   3.222
27653WAT      O83200   1.914   1.429   6.854
27653WAT     H183201   1.880   1.336   6.862
27653WAT     H283202   1.950   1.445   6.762
27654WAT      O83203   5.882   4.952   8.958
27654WAT     H183204   5.973   4.992   8.964
27654WAT     H283205   5.842   4.973   8.869
27655WAT      O83206   2.664   7.486   9.642
27655WAT     H183207   2.590   7.522   9.698
27655WAT     H283208   2.741   7.460   9.700
27656WAT      O83209   8.369   7.364   3.134
27656WAT     H183210   8.361   7.264   3.123
27656WAT     H283211   8.297   7.396   3.196
27657WAT      O83212   5.964   6.585   0.166
27657WAT     H183213   5.981   6.652   0.094
27657WAT     H283214   5.866   6.564   0.169
27658WAT      O83215   5.213   2.657   0.904
27658WAT     H183216   5.277   2.583   0.885
27658WAT     H283217   5.231   2.696   0.994
27659WAT      O83218   0.076   7.682   2.507
27659WAT     H183219   0.116   7.773   2.520
27659WAT     H283220   0.145   7.620   2.470
27660WAT      O83221   2.951   2.817   2.317
27660WAT     H183222   3.032   2.824   2.375
27660WAT     H283223   2.898   2.736   2.342
27661WAT      O83224   7.125   4.230   9.806
27661WAT     H183225   7.116   4.328   9.788
27661WAT     H283226   7.114   4.179   9.720
27662WAT      O83227   6.310   9.080   6.731
27662WAT     H183228   6.241   9.097   6.801
27662WAT     H283229   6.319   9.162   6.673
27663WAT      O83230   8.856   1.331   4.959
27663WAT     H183231   8.835   1.345   5.056
27663WAT     H283232   8.955   1.334   4.945
27664WAT      O83233   6.121   8.854   9.174
27664WAT     H183234   6.126   8.819   9.080
27664WAT     H283235   6.051   8.926   9.179
27665WAT      O83236   8.971   6.609   7.239
27665WAT     H183237   8.921   6.567   7.163
27665WAT     H283238   8.911   6.673   7.288
27666WAT      O83239   8.113   3.346   7.425
27666WAT     H183240   8.038   3.340   7.360
27666WAT     H283241   8.199   3.328   7.378
27667WAT      O83242   8.149   7.588   7.759
27667WAT     H183243   8.145   7.685   7.735
27667WAT     H283244   8.239   7.552   7.738
27668WAT      O83245   4.458   1.800   2.666
27668WAT     H183246   4.493   1.706   2.665
27668WAT     H283247   4.531   1.864   2.644
27669WAT      O83248   8.064   5.574   1.505
27669WAT     H183249   7.992   5.530   1.451
27669WAT     H283250   8.047   5.673   1.509
27670WAT      O83251   7.723   5.102   5.825
27670WAT     H183252   7.787   5.123   5.752
27670WAT     H283253   7.630   5.099   5.788
27671WAT      O83254   4.328   3.931   7.017
27671WAT     H183255   4.333   3.881   7.104
27671WAT     H283256   4.412   3.983   7.003
27672WAT      O83257   1.012   3.018   4.871
27672WAT     H183258   1.060   2.960   4.806
27672WAT     H283259   0.952   3.081   4.821
27673WAT      O83260   5.260   3.055   0.967
27673WAT     H183261   5.249   3.139   1.020
27673WAT     H283262   5.219   2.978   1.016
27674WAT      O83263   1.356   8.705   8.623
27674WAT     H183264   1.427   8.770   8.594
27674WAT     H283265   1.266   8.741   8.600
27675WAT      O83266   2.879   5.767   0.596
27675WAT     H183267   2.935   5.685   0.585
27675WAT     H283268   2.785   5.741   0.617
27676WAT      O83269   0.035   8.058   9.689
27676WAT     H183270  -0.042   8.061   9.625
27676WAT     H283271   0.075   8.150   9.697
27677WAT      O83272   8.876   8.200   6.915
27677WAT     H183273   8.918   8.287   6.943
27677WAT     H283274   8.937   8.124   6.941
27678WAT      O83275   9.059   0.887   5.697
27678WAT     H183276   9.033   0.831   5.619
27678WAT     H283277   9.147   0.855   5.733
27679WAT      O83278   4.349   0.642   6.869
27679WAT     H183279   4.306   0.727   6.902
27679WAT     H283280   4.389   0.658   6.779
27680WAT      O83281   5.808   4.480   8.400
27680WAT     H183282   5.871   4.512   8.471
27680WAT     H283283   5.854   4.483   8.312
27681WAT      O83284   7.552   8.662   1.272
27681WAT     H183285   7.576   8.681   1.367
27681WAT     H283286   7.632   8.627   1.224
27682WAT      O83287   5.800   2.031   5.763
27682WAT     H183288   5.801   1.967   5.840
27682WAT     H283289   5.856   2.111   5.786
27683WAT      O83290   7.198   4.062   2.439
27683WAT     H183291   7.161   4.154   2.449
27683WAT     H283292   7.224   4.026   2.528
27684WAT      O83293   6.869   5.348   0.697
27684WAT     H183294   6.795   5.361   0.763
27684WAT     H283295   6.886   5.250   0.683
27685WAT      O83296   7.300   7.729   2.672
27685WAT     H183297   7.233   7.781   2.620
27685WAT     H283298   7.318   7.641   2.627
27686WAT      O83299   5.812   5.221   1.695
27686WAT     H183300   5.735   5.237   1.758
27686WAT     H283301   5.890   5.277   1.724
27687WAT      O83302   0.730   3.195   0.232
27687WAT     H183303   0.758   3.119   0.290
27687WAT     H283304   0.809   3.229   0.181
27688WAT      O83305   4.501   7.542   5.127
27688WAT     H183306   4.563   7.530   5.049
27688WAT     H283307   4.545   7.508   5.210
27689WAT      O83308   4.457   6.762   7.280
27689WAT     H183309   4.477   6.859   7.272
27689WAT     H283310   4.360   6.746   7.263
27690WAT      O83311   1.163   8.149   6.857
27690WAT     H183312   1.244   8.098   6.829
27690WAT     H283313   1.118   8.186   6.776
27691WAT      O83314   2.510   0.695   8.564
27691WAT     H183315   2.503   0.794   8.552
27691WAT     H283316   2.594   0.673   8.613
27692WAT      O83317   7.836   0.866   4.812
27692WAT     H183318   7.746   0.900   4.784
27692WAT     H283319   7.839   0.766   4.800
27693WAT      O83320   2.127   2.253   0.615
27693WAT     H183321   2.047   2.278   0.561
27693WAT     H283322   2.177   2.179   0.569
27694WAT      O83323   1.695   1.661   8.017
27694WAT     H183324   1.788   1.637   8.043
27694WAT     H283325   1.635   1.583   8.034
27695WAT      O83326   3.503   8.605   0.310
27695WAT     H183327   3.424   8.568   0.358
27695WAT     H283328   3.473   8.676   0.246
27696WAT      O83329   4.329   1.277   6.950
27696WAT     H183330   4.262   1.343   6.985
27696WAT     H283331   4.411   1.279   7.008
27697WAT      O83332   5.808   6.918   3.254
27697WAT     H183333   5.760   6.996   3.214
27697WAT     H283334   5.756   6.884   3.332
27698WAT      O83335   9.471   7.560   5.214
27698WAT     H183336   9.391   7.578   5.271
27698WAT     H283337   9.529   7.642   5.212
27699WAT      O83338   4.096   3.137   4.277
27699WAT     H183339   4.053   3.213   4.324
27699WAT     H283340   4.066   3.050   4.318
27700WAT      O83341   6.671   3.265   0.571
27700WAT     H183342   6.644   3.334   0.639
27700WAT     H283343   6.753   3.296   0.524
27701WAT      O83344   5.398   4.502   9.312
27701WAT     H183345   5.364   4.554   9.234
27701WAT     H283346   5.465   4.558   9.362
27702WAT      O83347   8.915   9.425   3.925
27702WAT     H183348   9.000   9.392   3.886
27702WAT     H283349   8.867   9.483   3.859
27703WAT      O83350   2.511   1.356   1.431
27703WAT     H183351   2.482   1.260   1.430
27703WAT     H283352   2.548   1.381   1.342
27704WAT      O83353   1.194   8.268   7.107
27704WAT     H183354   1.116   8.249   7.167
27704WAT     H283355   1.180   8.224   7.019
27705WAT      O83356   0.613   7.027   4.945
27705WAT     H183357   0.554   6.966   4.893
27705WAT     H283358   0.566   7.115   4.959
27706WAT      O83359   3.090   7.463   0.853
27706WAT     H183360   3.114   7.407   0.932
27706WAT     H283361   3.138   7.550   0.857
27707WAT      O83362   5.814   1.633   7.116
27707WAT     H183363   5.882   1.698   7.082
27707WAT     H283364   5.722   1.666   7.095
27708WAT      O83365   2.589   7.305   5.610
27708WAT     H183366   2.533   7.371   5.661
27708WAT     H283367   2.529   7.247   5.554
27709WAT      O83368   0.415   2.416   5.223
27709WAT     H183369   0.439   2.320   5.208
27709WAT     H283370   0.317   2.424   5.239
27710WAT      O83371   0.191   3.146   9.136
27710WAT     H183372   0.120   3.151   9.207
27710WAT     H283373   0.153   3.178   9.049
27711WAT      O83374   3.716   8.242   0.831
27711WAT     H183375   3.808   8.203   0.826
27711WAT     H283376   3.689   8.250   0.926
27712WAT      O83377   1.848   0.964   0.773
27712WAT     H183378   1.817   0.892   0.835
27712WAT     H283379   1.863   0.926   0.682
27713WAT      O83380   2.950   8.126   0.420
27713WAT     H183381   3.001   8.077   0.349
27713WAT     H283382   2.978   8.092   0.510
27714WAT      O83383   0.121   6.945   3.897
27714WAT     H183384   0.068   6.965   3.815
27714WAT     H283385   0.217   6.931   3.873
27715WAT      O83386   6.658   5.914   4.055
27715WAT     H183387   6.722   5.983   4.089
27715WAT     H283388   6.693   5.823   4.077
27716WAT      O83389   4.581   4.714   2.115
27716WAT     H183390   4.525   4.696   2.195
27716WAT     H283391   4.669   4.753   2.143
27717WAT      O83392   4.083   1.336   3.968
27717WAT     H183393   4.146   1.302   4.037
27717WAT     H283394   4.001   1.279   3.965
27718WAT      O83395   6.405   0.580   0.146
27718WAT     H183396   6.401   0.644   0.069
27718WAT     H283397   6.376   0.490   0.115
27719WAT      O83398   4.533   4.350   9.104
27719WAT     H183399   4.463   4.325   9.037
27719WAT     H283400   4.593   4.272   9.120
27720WAT      O83401   7.856   4.102   2.457
27720WAT     H183402   7.919   4.175   2.484
27720WAT     H283403   7.838   4.108   2.359
27721WAT      O83404   5.846   9.050   5.805
27721WAT     H183405   5.859   9.149   5.807
27721WAT     H283406   5.832   9.017   5.898
27722WAT      O83407   0.696   5.547   1.005
27722WAT     H183408   0.701   5.448   1.018
27722WAT     H283409   0.748   5.593   1.076
27723WAT      O83410   6.869   9.098   3.924
27723WAT     H183411   6.967   9.104   3.907
27723WAT     H283412   6.851   9.120   4.020
27724WAT      O83413   9.117   4.274   8.344
27724WAT     H183414   9.067   4.191   8.321
27724WAT     H283415   9.053   4.346   8.370
27725WAT      O83416   6.650   3.805   6.437
27725WAT     H183417   6.612   3.740   6.504
27725WAT     H283418   6.671   3.756   6.352
27726WAT      O83419   1.805   1.334   1.235
27726WAT     H183420   1.796   1.423   1.278
27726WAT     H283421   1.801   1.344   1.136
27727WAT      O83422   8.918   7.855   6.145
27727WAT     H183423   8.922   7.756   6.160
27727WAT     H283424   8.977   7.902   6.210
27728WAT      O83425   0.048   8.159   5.836
27728WAT     H183426   0.008   8.245   5.803
27728WAT     H283427  -0.025   8.092   5.849
27729WAT      O83428   1.121   3.212   4.560
27729WAT     H183429   1.041   3.171   4.603
27729WAT     H283430   1.093   3.262   4.478
27730WAT      O83431   3.230   5.890   3.760
27730WAT     H183432   3.272   5.952   3.826
27730WAT     H283433   3.254   5.796   3.782
27731WAT      O83434   3.628   9.823   2.802
27731WAT     H183435   3.687   9.902   2.785
27731WAT     H283436   3.535   9.855   2.821
27732WAT      O83437   9.309   8.223   2.845
27732WAT     H183438   9.399   8.193   2.877
27732WAT     H283439   9.312   8.237   2.746
27733WAT      O83440   7.926   5.104   6.890
27733WAT     H183441   7.951   5.188   6.842
27733WAT     H283442   7.953   5.025   6.835
27734WAT      O83443   2.583   9.525   3.757
27734WAT     H183444   2.591   9.624   3.747
27734WAT     H283445   2.556   9.503   3.851
27735WAT      O83446   8.131   4.790   7.111
27735WAT     H183447   8.127   4.856   7.036
27735WAT     H283448   8.223   4.789   7.150
27736WAT      O83449   7.754   5.611   4.991
27736WAT     H183450   7.849   5.598   4.961
27736WAT     H283451   7.707   5.672   4.928
27737WAT      O83452   7.960   5.321   6.726
27737WAT     H183453   7.957   5.415   6.760
27737WAT     H283454   8.014   5.318   6.642
27738WAT      O83455   4.837   0.604   2.896
27738WAT     H183456   4.930   0.569   2.907
27738WAT     H283457   4.772   0.529   2.902
27739WAT      O83458   1.890   2.966   0.028
27739WAT     H183459   1.836   2.948   0.110
27739WAT     H283460   1.970   3.021   0.053
27740WAT      O83461   1.686   6.325   3.406
27740WAT     H183462   1.595   6.326   3.364
27740WAT     H283463   1.753   6.294   3.338
27741WAT      O83464   9.679   9.550   7.809
27741WAT     H183465   9.724   9.607   7.878
27741WAT     H283466   9.638   9.470   7.854
27742WAT      O83467   0.346   3.972   7.074
27742WAT     H183468   0.438   3.941   7.052
27742WAT     H283469   0.325   3.949   7.169
27743WAT      O83470   2.431   9.506   1.596
27743WAT     H183471   2.435   9.600   1.562
27743WAT     H283472   2.398   9.505   1.690
27744WAT      O83473   4.459   8.004   4.496
27744WAT     H183474   4.399   8.016   4.417
27744WAT     H283475   4.472   8.092   4.542
27745WAT      O83476   1.356   9.054   4.905
27745WAT     H183477   1.285   9.121   4.886
27745WAT     H283478   1.317   8.977   4.955
27746WAT      O83479   8.997   8.997   5.061
27746WAT     H183480   8.922   8.996   5.128
27746WAT     H283481   9.001   8.908   5.015
27747WAT      O83482   4.252   7.119   2.071
27747WAT     H183483   4.335   7.063   2.073
27747WAT     H283484   4.205   7.106   1.984
27748WAT      O83485   5.459   5.446   8.327
27748WAT     H183486   5.538   5.467   8.269
27748WAT     H283487   5.381   5.502   8.299
27749WAT      O83488   7.717   0.100   4.388
27749WAT     H183489   7.631   0.057   4.414
27749WAT     H283490   7.744   0.166   4.458
27750WAT      O83491   0.836   3.927   4.056
27750WAT     H183492   0.740   3.956   4.056
27750WAT     H283493   0.892   3.996   4.012
27751WAT      O83494   5.655   6.389   9.337
27751WAT     H183495   5.588   6.450   9.380
27751WAT     H283496   5.627   6.367   9.244
27752WAT      O83497   9.050   6.992   7.460
27752WAT     H183498   9.099   6.976   7.546
27752WAT     H283499   9.099   7.059   7.405
27753WAT      O83500   9.767   6.994   1.304
27753WAT     H183501   9.709   7.026   1.380
27753WAT     H283502   9.709   6.964   1.229
27754WAT      O83503   5.038   5.995   5.447
27754WAT     H183504   5.026   5.897   5.466
27754WAT     H283505   4.955   6.032   5.408
27755WAT      O83506   3.810   5.389   1.145
27755WAT     H183507   3.854   5.338   1.219
27755WAT     H283508   3.811   5.487   1.166
27756WAT      O83509   5.283   8.823   0.825
27756WAT     H183510   5.254   8.798   0.917
27756WAT     H283511   5.219   8.785   0.758
27757WAT      O83512   5.261   2.677   3.820
27757WAT     H183513   5.321   2.757   3.818
27757WAT     H283514   5.166   2.706   3.829
27758WAT      O83515   4.003   4.914   3.253
27758WAT     H183516   3.943   4.991   3.229
27758WAT     H283517   3.948   4.831   3.262
27759WAT      O83518   4.600   9.037   3.209
27759WAT     H183519   4.675   9.004   3.151
27759WAT     H283520   4.583   8.971   3.282
27760WAT      O83521   7.506   6.968   7.926
27760WAT     H183522   7.555   6.920   7.998
27760WAT     H283523   7.441   7.033   7.966
27761WAT      O83524   9.374   2.019   4.314
27761WAT     H183525   9.293   2.045   4.261
27761WAT     H283526   9.456   2.042   4.262
27762WAT      O83527   3.012   9.011   9.868
27762WAT     H183528   3.009   8.928   9.924
27762WAT     H283529   3.044   8.988   9.776
27763WAT      O83530   7.842   7.276   6.585
27763WAT     H183531   7.810   7.350   6.525
27763WAT     H283532   7.891   7.208   6.531
27764WAT      O83533   8.942   0.782   0.462
27764WAT     H183534   8.865   0.720   0.475
27764WAT     H283535   8.914   0.875   0.483
27765WAT      O83536   4.774   0.203   3.614
27765WAT     H183537   4.676   0.198   3.597
27765WAT     H283538   4.801   0.299   3.625
27766WAT      O83539   7.329   2.312   5.327
27766WAT     H183540   7.331   2.350   5.234
27766WAT     H283541   7.317   2.386   5.393
27767WAT      O83542   4.743   2.977   5.945
27767WAT     H183543   4.838   2.999   5.967
27767WAT     H283544   4.685   2.994   6.025
27768WAT      O83545   0.110   5.617   3.608
27768WAT     H183546   0.062   5.647   3.525
27768WAT     H283547   0.071   5.531   3.640
27769WAT      O83548   5.595   3.098   7.537
27769WAT     H183549   5.691   3.122   7.549
27769WAT     H283550   5.563   3.133   7.449
27770WAT      O83551   1.476   4.635   9.890
27770WAT     H183552   1.548   4.568   9.908
27770WAT     H283553   1.388   4.599   9.922
27771WAT      O83554   9.000   9.197   8.118
27771WAT     H183555   8.984   9.101   8.141
27771WAT     H283556   8.951   9.220   8.034
27772WAT      O83557   3.410   5.263   7.833
27772WAT     H183558   3.476   5.335   7.855
27772WAT     H283559   3.323   5.283   7.877
27773WAT      O83560   1.523   5.682   3.677
27773WAT     H183561   1.445   5.688   3.615
27773WAT     H283562   1.515   5.599   3.733
27774WAT      O83563   7.559   0.508   3.627
27774WAT     H183564   7.546   0.448   3.548
27774WAT     H283565   7.544   0.603   3.599
27775WAT      O83566   9.715   7.083   9.676
27775WAT     H183567   9.736   6.994   9.716
27775WAT     H283568   9.647   7.129   9.733
27776WAT      O83569   7.655   6.278   8.479
27776WAT     H183570   7.632   6.239   8.389
27776WAT     H283571   7.684   6.373   8.468
27777WAT      O83572   8.567   4.152   5.129
27777WAT     H183573   8.619   4.233   5.102
27777WAT     H283574   8.470   4.167   5.114
27778WAT      O83575   0.535   5.080   5.402
27778WAT     H183576   0.532   5.178   5.424
27778WAT     H283577   0.567   5.069   5.307
27779WAT      O83578   4.499   6.352   8.142
27779WAT     H183579   4.549   6.266   8.153
27779WAT     H283580   4.410   6.332   8.102
27780WAT      O83581   4.945   3.500   7.281
27780WAT     H183582   4.946   3.510   7.381
27780WAT     H283583   4.979   3.410   7.256
27781WAT      O83584   4.415   7.171   0.145
27781WAT     H183585   4.502   7.149   0.102
27781WAT     H283586   4.341   7.166   0.077
27782WAT      O83587   6.793   1.301   8.059
27782WAT     H183588   6.852   1.332   8.134
27782WAT     H283589   6.732   1.375   8.031
27783WAT      O83590   4.670   5.524   7.278
27783WAT     H183591   4.748   5.460   7.283
27783WAT     H283592   4.630   5.535   7.369
27784WAT      O83593   4.627   9.341   7.478
27784WAT     H183594   4.565   9.414   7.451
27784WAT     H283595   4.621   9.266   7.412
27785WAT      O83596   7.435   1.061   5.352
27785WAT     H183597   7.490   1.021   5.278
27785WAT     H283598   7.366   1.121   5.313
27786WAT      O83599   5.935   4.949   2.272
27786WAT     H183600   5.983   4.866   2.245
27786WAT     H283601   5.958   4.971   2.367
27787WAT      O83602   3.301   9.005   4.455
27787WAT     H183603   3.225   9.061   4.422
27787WAT     H283604   3.306   8.921   4.401
27788WAT      O83605   6.893   1.636   8.500
27788WAT     H183606   6.879   1.731   8.526
27788WAT     H283607   6.815   1.605   8.445
27789WAT      O83608   4.377   3.058   0.253
27789WAT     H183609   4.423   2.978   0.294
27789WAT     H283610   4.388   3.055   0.154
27790WAT      O83611   5.479   3.246   0.856
27790WAT     H183612   5.417   3.186   0.906
27790WAT     H283613   5.450   3.251   0.760
27791WAT      O83614   2.361   7.863   3.295
27791WAT     H183615   2.409   7.950   3.286
27791WAT     H283616   2.411   7.792   3.245
27792WAT      O83617   6.520   5.953   9.809
27792WAT     H183618   6.564   6.016   9.873
27792WAT     H283619   6.441   5.911   9.852
27793WAT      O83620   1.671   8.254   7.989
27793WAT     H183621   1.754   8.216   7.950
27793WAT     H283622   1.693   8.338   8.040
27794WAT      O83623   8.745   4.036   4.582
27794WAT     H183624   8.789   3.949   4.602
27794WAT     H283625   8.688   4.063   4.660
27795WAT      O83626   2.004   6.656   9.079
27795WAT     H183627   1.930   6.610   9.031
27795WAT     H283628   1.968   6.730   9.135
27796WAT      O83629   4.859   6.915   6.853
27796WAT     H183630   4.761   6.932   6.860
27796WAT     H283631   4.876   6.816   6.850
27797WAT      O83632   5.963   5.031   7.317
27797WAT     H183633   6.037   5.064   7.258
27797WAT     H283634   5.939   4.937   7.292
27798WAT      O83635   4.100   7.342   1.713
27798WAT     H183636   4.059   7.254   1.738
27798WAT     H283637   4.182   7.326   1.658
27799WAT      O83638   7.297   5.293   1.622
27799WAT     H183639   7.292   5.362   1.549
27799WAT     H283640   7.374   5.231   1.604
27800WAT      O83641   3.813   8.370   3.052
27800WAT     H183642   3.898   8.409   3.088
27800WAT     H283643   3.834   8.294   2.991
27801WAT      O83644   4.024   6.948   0.501
27801WAT     H183645   4.043   6.854   0.473
27801WAT     H283646   3.940   6.980   0.456
27802WAT      O83647   8.265   6.242   7.897
27802WAT     H183648   8.204   6.182   7.846
27802WAT     H283649   8.336   6.277   7.836
27803WAT      O83650   9.199   4.030   7.347
27803WAT     H183651   9.293   4.033   7.314
27803WAT     H283652   9.137   4.055   7.273
27804WAT      O83653   6.710   8.888   9.238
27804WAT     H183654   6.697   8.868   9.141
27804WAT     H283655   6.806   8.874   9.263
27805WAT      O83656   9.223   9.323   4.461
27805WAT     H183657   9.311   9.369   4.460
27805WAT     H283658   9.153   9.383   4.421
27806WAT      O83659   1.539   4.965   6.680
27806WAT     H183660   1.450   4.922   6.668
27806WAT     H283661   1.589   4.966   6.593
27807WAT      O83662   0.228   9.714   7.038
27807WAT     H183663   0.258   9.763   6.956
27807WAT     H283664   0.158   9.647   7.012
27808WAT      O83665   4.273   0.066   4.650
27808WAT     H183666   4.270   0.045   4.553
27808WAT     H283667   4.248  -0.015   4.703
27809WAT      O83668   0.186   7.449   6.145
27809WAT     H183669   0.271   7.409   6.180
27809WAT     H283670   0.190   7.548   6.154
27810WAT      O83671   1.610   1.031   4.107
27810WAT     H183672   1.573   1.121   4.083
27810WAT     H283673   1.593   0.967   4.032
27811WAT      O83674   5.588   1.436   9.787
27811WAT     H183675   5.561   1.465   9.695
27811WAT     H283676   5.522   1.472   9.853
27812WAT      O83677   1.318   3.651   0.737
27812WAT     H183678   1.417   3.647   0.746
27812WAT     H283679   1.285   3.742   0.764
27813WAT      O83680   3.006   4.280   8.477
27813WAT     H183681   3.029   4.222   8.398
27813WAT     H283682   2.938   4.234   8.533
27814WAT      O83683   4.681   2.336   6.812
27814WAT     H183684   4.742   2.300   6.741
27814WAT     H283685   4.682   2.274   6.890
27815WAT      O83686   3.593   3.834   0.722
27815WAT     H183687   3.552   3.811   0.810
27815WAT     H283688   3.575   3.931   0.702
27816WAT      O83689   9.043   4.635   5.933
27816WAT     H183690   9.041   4.691   6.016
27816WAT     H283691   8.996   4.548   5.950
27817WAT      O83692   5.665   6.874   6.075
27817WAT     H183693   5.672   6.862   5.976
27817WAT     H283694   5.756   6.868   6.116
27818WAT      O83695   4.035   5.169   6.673
27818WAT     H183696   4.070   5.259   6.699
27818WAT     H283697   4.052   5.104   6.748
27819WAT      O83698   2.526   5.753   1.503
27819WAT     H183699   2.445   5.768   1.447
27819WAT     H283700   2.505   5.772   1.598
27820WAT      O83701   4.606   8.653   7.204
27820WAT     H183702   4.612   8.595   7.123
27820WAT     H283703   4.592   8.597   7.285
27821WAT      O83704   0.846   8.282   9.860
27821WAT     H183705   0.917   8.276   9.790
27821WAT     H283706   0.760   8.312   9.818
27822WAT      O83707   1.377   3.785   6.520
27822WAT     H183708   1.373   3.760   6.423
27822WAT     H283709   1.284   3.783   6.558
27823WAT      O83710   7.775   6.707   4.170
27823WAT     H183711   7.749   6.801   4.190
27823WAT     H283712   7.861   6.685   4.216
27824WAT      O83713   6.099   3.104   6.325
27824WAT     H183714   6.039   3.066   6.254
27824WAT     H283715   6.129   3.195   6.298
27825WAT      O83716   8.546   6.763   8.180
27825WAT     H183717   8.529   6.861   8.193
27825WAT     H283718   8.513   6.735   8.090
27826WAT      O83719   3.793   4.943   2.893
27826WAT     H183720   3.736   4.959   2.974
27826WAT     H283721   3.769   5.010   2.822
27827WAT      O83722   1.116   3.189   2.588
27827WAT     H183723   1.174   3.140   2.523
27827WAT     H283724   1.110   3.136   2.674
27828WAT      O83725   8.597   6.121   2.279
27828WAT     H183726   8.689   6.095   2.251
27828WAT     H283727   8.601   6.205   2.334
27829WAT      O83728   5.081   3.729   8.994
27829WAT     H183729   4.994   3.680   8.988
27829WAT     H283730   5.066   3.826   8.973
27830WAT      O83731   1.990   0.924   3.048
27830WAT     H183732   2.085   0.954   3.057
27830WAT     H283733   1.988   0.824   3.036
27831WAT      O83734   2.704   8.310   5.246
27831WAT     H183735   2.633   8.360   5.296
27831WAT     H283736   2.790   8.361   5.250
27832WAT      O83737   4.904   5.859   0.775
27832WAT     H183738   4.953   5.933   0.729
27832WAT     H283739   4.812   5.889   0.798
27833WAT      O83740   9.107   8.109   7.866
27833WAT     H183741   9.054   8.193   7.873
27833WAT     H283742   9.168   8.114   7.787
27834WAT      O83743   0.506   3.042   0.259
27834WAT     H183744   0.523   2.945   0.242
27834WAT     H283745   0.585   3.095   0.230
27835WAT      O83746   0.888   4.810   6.026
27835WAT     H183747   0.942   4.727   6.036
27835WAT     H283748   0.801   4.799   6.074
27836WAT      O83749   6.007   1.245   2.658
27836WAT     H183750   6.046   1.198   2.578
27836WAT     H283751   5.909   1.259   2.644
27837WAT      O83752   8.485   3.753   2.885
27837WAT     H183753   8.415   3.783   2.949
27837WAT     H283754   8.576   3.773   2.923
27838WAT      O83755   9.075   7.735   8.023
27838WAT     H183756   9.034   7.652   7.985
27838WAT     H283757   9.025   7.815   7.990
27839WAT      O83758   3.217   4.733   8.906
27839WAT     H183759   3.316   4.724   8.893
27839WAT     H283760   3.184   4.812   8.855
27840WAT      O83761   8.231   6.876   6.191
27840WAT     H183762   8.222   6.817   6.271
27840WAT     H283763   8.233   6.820   6.108
27841WAT      O83764   5.405   5.778   5.236
27841WAT     H183765   5.419   5.852   5.171
27841WAT     H283766   5.367   5.814   5.321
27842WAT      O83767   2.618   3.275   8.635
27842WAT     H183768   2.560   3.339   8.684
27842WAT     H283769   2.564   3.226   8.567
27843WAT      O83770   2.266   1.936   7.433
27843WAT     H183771   2.290   1.927   7.336
27843WAT     H283772   2.166   1.940   7.442
27844WAT      O83773   4.638   5.051   1.957
27844WAT     H183774   4.694   4.999   1.892
27844WAT     H283775   4.692   5.128   1.992
27845WAT      O83776   2.634   3.399   1.383
27845WAT     H183777   2.730   3.372   1.376
27845WAT     H283778   2.621   3.457   1.464
27846WAT      O83779   4.621   6.236   8.702
27846WAT     H183780   4.699   6.193   8.748
27846WAT     H283781   4.603   6.190   8.615
27847WAT      O83782   6.453   6.851   8.890
27847WAT     H183783   6.478   6.925   8.829
27847WAT     H283784   6.362   6.868   8.929
27848WAT      O83785   8.935   8.621   8.843
27848WAT     H183786   8.953   8.716   8.870
27848WAT     H283787   9.003   8.593   8.775
27849WAT      O83788   3.132   4.255   0.508
27849WAT     H183789   3.126   4.238   0.410
27849WAT     H283790   3.208   4.317   0.527
27850WAT      O83791   7.653   3.673   8.316
27850WAT     H183792   7.613   3.613   8.386
27850WAT     H283793   7.701   3.748   8.360
27851WAT      O83794   0.824   8.156   8.913
27851WAT     H183795   0.912   8.169   8.959
27851WAT     H283796   0.839   8.153   8.814
27852WAT      O83797   8.380   3.284   2.434
27852WAT     H183798   8.320   3.352   2.476
27852WAT     H283799   8.432   3.236   2.506
27853WAT      O83800   7.827   3.428   6.833
27853WAT     H183801   7.770   3.507   6.812
27853WAT     H283802   7.917   3.459   6.864
27854WAT      O83803   5.765   3.040   0.820
27854WAT     H183804   5.769   3.049   0.720
27854WAT     H283805   5.824   2.965   0.849
27855WAT      O83806   3.378   6.328   2.121
27855WAT     H183807   3.471   6.311   2.088
27855WAT     H283808   3.377   6.326   2.220
27856WAT      O83809   2.327   8.015   6.757
27856WAT     H183810   2.426   8.004   6.759
27856WAT     H283811   2.284   7.925   6.759
27857WAT      O83812   6.701   5.010   7.002
27857WAT     H183813   6.732   4.978   6.912
27857WAT     H283814   6.772   5.066   7.043
27858WAT      O83815   2.032   5.072   8.925
27858WAT     H183816   1.994   4.985   8.956
27858WAT     H283817   2.122   5.086   8.966
27859WAT      O83818   4.597   5.833   8.444
27859WAT     H183819   4.591   5.740   8.406
27859WAT     H283820   4.660   5.833   8.521
27860WAT      O83821   7.149   5.516   7.358
27860WAT     H183822   7.204   5.472   7.287
27860WAT     H283823   7.167   5.614   7.358
27861WAT      O83824   1.743   4.787   3.997
27861WAT     H183825   1.697   4.854   4.055
27861WAT     H283826   1.688   4.771   3.915
27862WAT      O83827   2.887   6.817   9.026
27862WAT     H183828   2.839   6.890   9.074
27862WAT     H283829   2.975   6.801   9.070
27863WAT      O83830   7.604   2.342   1.682
27863WAT     H183831   7.647   2.376   1.765
27863WAT     H283832   7.510   2.377   1.676
27864WAT      O83833   9.766   9.203   7.810
27864WAT     H183834   9.672   9.219   7.841
27864WAT     H283835   9.827   9.271   7.851
27865WAT      O83836   9.477   7.002   5.525
27865WAT     H183837   9.523   6.938   5.463
27865WAT     H283838   9.382   6.975   5.537
27866WAT      O83839   1.384   0.727   4.669
27866WAT     H183840   1.326   0.793   4.717
27866WAT     H283841   1.330   0.646   4.645
27867WAT      O83842   9.054   5.908   4.502
27867WAT     H183843   9.059   5.906   4.602
27867WAT     H283844   8.960   5.927   4.473
27868WAT      O83845   0.473   8.841   0.757
27868WAT     H183846   0.450   8.798   0.845
27868WAT     H283847   0.437   8.784   0.683
27869WAT      O83848   2.612   6.435   2.974
27869WAT     H183849   2.537   6.417   3.037
27869WAT     H283850   2.655   6.348   2.949
27870WAT      O83851   2.947   0.245   1.864
27870WAT     H183852   2.950   0.165   1.924
27870WAT     H283853   2.852   0.275   1.853
27871WAT      O83854   2.962   7.827   7.729
27871WAT     H183855   2.923   7.809   7.639
27871WAT     H283856   2.892   7.867   7.788
27872WAT      O83857   3.478   9.628   3.643
27872WAT     H183858   3.421   9.704   3.674
27872WAT     H283859   3.548   9.663   3.580
27873WAT      O83860   1.737   8.545   0.905
27873WAT     H183861   1.774   8.616   0.845
27873WAT     H283862   1.647   8.517   0.872
27874WAT      O83863   1.210   8.176   6.427
27874WAT     H183864   1.294   8.171   6.480
27874WAT     H283865   1.202   8.096   6.367
27875WAT      O83866   6.299   0.222   6.384
27875WAT     H183867   6.266   0.136   6.345
27875WAT     H283868   6.279   0.297   6.322
27876WAT      O83869   7.964   9.507   4.475
27876WAT     H183870   7.961   9.472   4.568
27876WAT     H283871   7.993   9.603   4.476
27877WAT      O83872   2.898   8.583   4.385
27877WAT     H183873   2.963   8.530   4.331
27877WAT     H283874   2.893   8.545   4.478
27878WAT      O83875   3.688   6.590   4.114
27878WAT     H183876   3.639   6.626   4.193
27878WAT     H283877   3.763   6.652   4.090
27879WAT      O83878   6.938   4.632   0.047
27879WAT     H183879   7.001   4.598  -0.024
27879WAT     H283880   6.928   4.563   0.119
27880WAT      O83881   0.423   5.178   7.090
27880WAT     H183882   0.423   5.084   7.125
27880WAT     H283883   0.432   5.176   6.990
27881WAT      O83884   7.213   5.657   0.006
27881WAT     H183885   7.218   5.579  -0.056
27881WAT     H283886   7.119   5.692   0.009
27882WAT      O83887   7.465   1.648   6.360
27882WAT     H183888   7.449   1.733   6.410
27882WAT     H283889   7.383   1.591   6.363
27883WAT      O83890   9.707   6.253   8.166
27883WAT     H183891   9.691   6.188   8.240
27883WAT     H283892   9.805   6.254   8.144
27884WAT      O83893   4.992   8.587   5.010
27884WAT     H183894   4.983   8.583   4.910
27884WAT     H283895   5.088   8.607   5.033
27885WAT      O83896   3.226   1.051   0.878
27885WAT     H183897   3.174   0.990   0.818
27885WAT     H283898   3.253   1.133   0.826
27886WAT      O83899   4.409   9.715   9.375
27886WAT     H183900   4.496   9.696   9.330
27886WAT     H283901   4.377   9.806   9.348
27887WAT      O83902   4.918   2.503   5.009
27887WAT     H183903   4.932   2.418   5.059
27887WAT     H283904   4.822   2.531   5.017
27888WAT      O83905   3.144   2.058   8.887
27888WAT     H183906   3.171   2.089   8.796
27888WAT     H283907   3.149   2.135   8.951
27889WAT      O83908   7.538   9.832   3.165
27889WAT     H183909   7.484   9.908   3.131
27889WAT     H283910   7.565   9.850   3.260
27890WAT      O83911   2.023   4.578   6.119
27890WAT     H183912   1.980   4.596   6.030
27890WAT     H283913   1.952   4.562   6.187
27891WAT      O83914   0.129   4.618   0.804
27891WAT     H183915   0.204   4.679   0.830
27891WAT     H283916   0.069   4.604   0.882
27892WAT      O83917   5.692   9.619   5.705
27892WAT     H183918   5.781   9.664   5.698
27892WAT     H283919   5.655   9.631   5.797
27893WAT      O83920   9.848   6.036   6.681
27893WAT     H183921   9.908   6.042   6.761
27893WAT     H283922   9.766   6.090   6.696
27894WAT      O83923   3.850   4.189   3.989
27894WAT     H183924   3.877   4.131   3.912
27894WAT     H283925   3.825   4.280   3.955
27895WAT      O83926   5.311   0.931   2.175
27895WAT     H183927   5.359   0.914   2.089
27895WAT     H283928   5.349   0.872   2.247
27896WAT      O83929   9.629   7.103   8.057
27896WAT     H183930   9.635   7.180   8.120
27896WAT     H283931   9.565   7.125   7.983
27897WAT      O83932   4.531   0.295   8.392
27897WAT     H183933   4.576   0.217   8.348
27897WAT     H283934   4.505   0.362   8.322
27898WAT      O83935   0.678   5.069   4.796
27898WAT     H183936   0.706   4.981   4.757
27898WAT     H283937   0.758   5.128   4.804
27899WAT      O83938   2.111   3.106   0.103
27899WAT     H183939   2.179   3.173   0.074
27899WAT     H283940   2.040   3.150   0.157
27900WAT      O83941   5.575   3.778   3.305
27900WAT     H183942   5.664   3.796   3.347
27900WAT     H283943   5.588   3.725   3.221
27901WAT      O83944   0.513   7.233   7.954
27901WAT     H183945   0.593   7.174   7.960
27901WAT     H283946   0.494   7.273   8.044
27902WAT      O83947   3.687   0.843   3.697
27902WAT     H183948   3.622   0.777   3.659
27902WAT     H283949   3.747   0.797   3.762
27903WAT      O83950   9.509   3.544   3.409
27903WAT     H183951   9.548   3.594   3.331
27903WAT     H283952   9.421   3.585   3.434
27904WAT      O83953   5.403   0.771   9.604
27904WAT     H183954   5.442   0.860   9.581
27904WAT     H283955   5.427   0.749   9.699
27905WAT      O83956   8.184   4.836   8.203
27905WAT     H183957   8.116   4.769   8.175
27905WAT     H283958   8.258   4.839   8.135
27906WAT      O83959   7.290   5.414   4.496
27906WAT     H183960   7.276   5.460   4.407
27906WAT     H283961   7.256   5.474   4.569
27907WAT      O83962   2.811   0.218   6.130
27907WAT     H183963   2.741   0.150   6.110
27907WAT     H283964   2.875   0.181   6.197
27908WAT      O83965   7.955   5.970   9.826
27908WAT     H183966   7.931   5.888   9.878
27908WAT     H283967   7.963   6.048   9.887
27909WAT      O83968   0.692   2.721   5.820
27909WAT     H183969   0.660   2.629   5.801
27909WAT     H283970   0.696   2.735   5.919
27910WAT      O83971   8.705   7.393   5.759
27910WAT     H183972   8.702   7.492   5.747
27910WAT     H283973   8.801   7.362   5.761
27911WAT      O83974   1.950   1.922   1.658
27911WAT     H183975   1.982   1.983   1.731
27911WAT     H283976   1.945   1.973   1.572
27912WAT      O83977   7.314   1.050   3.761
27912WAT     H183978   7.354   0.971   3.806
27912WAT     H283979   7.289   1.119   3.830
27913WAT      O83980   8.482   8.225   6.184
27913WAT     H183981   8.558   8.287   6.203
27913WAT     H283982   8.498   8.137   6.229
27914WAT      O83983   6.687   9.058   2.950
27914WAT     H183984   6.736   9.035   2.866
27914WAT     H283985   6.717   8.998   3.024
27915WAT      O83986   5.486   7.632   7.719
27915WAT     H183987   5.548   7.670   7.650
27915WAT     H283988   5.498   7.682   7.805
27916WAT      O83989   4.880   1.057   0.535
27916WAT     H183990   4.847   1.060   0.441
27916WAT     H283991   4.871   1.147   0.577
27917WAT      O83992   2.632   6.315   7.551
27917WAT     H183993   2.563   6.376   7.511
27917WAT     H283994   2.649   6.341   7.646
27918WAT      O83995   7.877   6.319   8.215
27918WAT     H183996   7.963   6.271   8.199
27918WAT     H283997   7.800   6.255   8.207
27919WAT      O83998   8.867   6.598   1.567
27919WAT     H183999   8.952   6.564   1.528
27919WAT     H284000   8.844   6.687   1.525
27920WAT      O84001   4.955   4.672   0.558
27920WAT     H184002   4.904   4.690   0.474
27920WAT     H284003   5.052   4.693   0.543
27921WAT      O84004   9.846   7.536   9.700
27921WAT     H184005   9.843   7.469   9.625
27921WAT     H284006   9.932   7.587   9.694
27922WAT      O84007   9.889   1.804   6.873
27922WAT     H184008   9.945   1.721   6.875
27922WAT     H284009   9.834   1.809   6.956
27923WAT      O84010   9.185   4.001   0.942
27923WAT     H184011   9.129   4.068   0.990
27923WAT     H284012   9.212   3.928   1.005
27924WAT      O84013   8.049   0.877   4.444
27924WAT     H184014   8.089   0.921   4.524
27924WAT     H284015   7.950   0.870   4.455
27925WAT      O84016   9.048   9.509   8.959
27925WAT     H184017   9.058   9.556   9.047
27925WAT     H284018   9.137   9.475   8.930
27926WAT      O84019   9.550   9.066   9.260
27926WAT     H184020   9.554   9.098   9.165
27926WAT     H284021   9.539   9.145   9.321
27927WAT      O84022   9.166   6.564   7.860
27927WAT     H184023   9.235   6.635   7.843
27927WAT     H284024   9.114   6.587   7.942
27928WAT      O84025   4.791   8.999   1.832
27928WAT     H184026   4.887   8.992   1.804
27928WAT     H284027   4.787   9.033   1.926
27929WAT      O84028   8.795   3.149   0.261
27929WAT     H184029   8.824   3.093   0.184
27929WAT     H284030   8.750   3.232   0.227
27930WAT      O84031   8.386   3.620   0.753
27930WAT     H184032   8.379   3.589   0.847
27930WAT     H284033   8.474   3.591   0.714
27931WAT      O84034   4.607   8.464   9.305
27931WAT     H184035   4.577   8.488   9.397
27931WAT     H284036   4.527   8.457   9.245
27932WAT      O84037   5.428   6.317   1.782
27932WAT     H184038   5.478   6.282   1.703
27932WAT     H284039   5.476   6.397   1.819
27933WAT      O84040   7.165   1.214   3.962
27933WAT     H184041   7.075   1.246   3.992
27933WAT     H284042   7.231   1.289   3.971
27934WAT      O84043   8.052   5.491   4.323
27934WAT     H184044   8.083   5.517   4.232
27934WAT     H284045   7.955   5.465   4.319
27935WAT      O84046   6.655   7.448   7.256
27935WAT     H184047   6.679   7.524   7.316
27935WAT     H284048   6.556   7.437   7.255
27936WAT      O84049   4.927   1.932   8.309
27936WAT     H184050   4.976   2.012   8.276
27936WAT     H284051   4.941   1.855   8.247
27937WAT      O84052   7.351   7.386   3.955
27937WAT     H184053   7.297   7.370   4.037
27937WAT     H284054   7.373   7.484   3.949
27938WAT      O84055   9.167   2.104   9.355
27938WAT     H184056   9.235   2.093   9.282
27938WAT     H284057   9.196   2.053   9.436
27939WAT      O84058   6.320   6.817   4.668
27939WAT     H184059   6.349   6.870   4.588
27939WAT     H284060   6.389   6.824   4.739
27940WAT      O84061   0.389   5.900   8.661
27940WAT     H184062   0.375   5.850   8.575
27940WAT     H284063   0.355   5.993   8.652
27941WAT      O84064   7.989   3.857   9.588
27941WAT     H184065   7.909   3.894   9.636
27941WAT     H284066   8.055   3.930   9.574
27942WAT      O84067   0.244   6.150   1.955
27942WAT     H184068   0.243   6.062   2.003
27942WAT     H284069   0.288   6.218   2.014
27943WAT      O84070   3.386   5.960   9.120
27943WAT     H184071   3.289   5.967   9.143
27943WAT     H284072   3.435   6.039   9.155
27944WAT      O84073   0.796   7.708   6.514
27944WAT     H184074   0.824   7.649   6.590
27944WAT     H284075   0.833   7.671   6.429
27945WAT      O84076   9.690   9.243   2.815
27945WAT     H184077   9.789   9.232   2.823
27945WAT     H284078   9.665   9.244   2.718
27946WAT      O84079   7.721   6.719   3.542
27946WAT     H184080   7.628   6.741   3.571
27946WAT     H284081   7.786   6.758   3.607
27947WAT      O84082   0.201   5.757   7.167
27947WAT     H184083   0.231   5.711   7.251
27947WAT     H284084   0.254   5.723   7.089
27948WAT      O84085   3.423   7.392   9.641
27948WAT     H184086   3.341   7.416   9.694
27948WAT     H284087   3.482   7.472   9.634
27949WAT      O84088   0.091   9.656   1.149
27949WAT     H184089   0.048   9.626   1.234
27949WAT     H284090   0.152   9.733   1.168
27950WAT      O84091   8.916   4.216   6.126
27950WAT     H184092   8.866   4.177   6.204
27950WAT     H284093   9.014   4.216   6.146
27951WAT      O84094   4.098   1.278   4.330
27951WAT     H184095   4.140   1.301   4.418
27951WAT     H284096   4.031   1.348   4.305
27952WAT      O84097   2.971   6.597   1.747
27952WAT     H184098   2.915   6.632   1.671
27952WAT     H284099   2.918   6.530   1.799
27953WAT      O84100   9.646   5.275   8.932
27953WAT     H184101   9.733   5.322   8.949
27953WAT     H284102   9.649   5.184   8.974
27954WAT      O84103   7.643   5.347   2.323
27954WAT     H184104   7.565   5.389   2.276
27954WAT     H284105   7.715   5.415   2.336
27955WAT      O84106   5.529   1.891   6.534
27955WAT     H184107   5.550   1.793   6.536
27955WAT     H284108   5.434   1.904   6.504
27956WAT      O84109   8.313   1.483   5.808
27956WAT     H184110   8.377   1.525   5.872
27956WAT     H284111   8.304   1.541   5.727
27957WAT      O84112   3.301   9.832   5.097
27957WAT     H184113   3.313   9.735   5.072
27957WAT     H284114   3.377   9.885   5.061
27958WAT      O84115   7.452   8.100   8.007
27958WAT     H184116   7.549   8.086   7.989
27958WAT     H284117   7.402   8.014   7.995
27959WAT      O84118   9.662   4.347   7.015
27959WAT     H184119   9.690   4.442   7.009
27959WAT     H284120   9.564   4.339   6.997
27960WAT      O84121   5.139   4.625   7.288
27960WAT     H184122   5.109   4.635   7.383
27960WAT     H284123   5.108   4.537   7.252
27961WAT      O84124   2.429   2.009   9.853
27961WAT     H184125   2.390   2.046   9.937
27961WAT     H284126   2.360   2.010   9.781
27962WAT      O84127   9.735   3.499   2.951
27962WAT     H184128   9.687   3.481   2.865
27962WAT     H284129   9.715   3.426   3.017
27963WAT      O84130   9.810   9.035   0.126
27963WAT     H184131   9.718   9.021   0.164
27963WAT     H284132   9.878   9.012   0.195
27964WAT      O84133   6.923   0.752   9.001
27964WAT     H184134   6.890   0.834   9.047
27964WAT     H284135   6.846   0.702   8.962
27965WAT      O84136   6.521   2.563   8.558
27965WAT     H184137   6.438   2.597   8.516
27965WAT     H284138   6.559   2.633   8.619
27966WAT      O84139   1.729   3.457   4.493
27966WAT     H184140   1.629   3.460   4.492
27966WAT     H284141   1.762   3.433   4.401
27967WAT      O84142   6.342   3.352   5.653
27967WAT     H184143   6.308   3.440   5.619
27967WAT     H284144   6.433   3.335   5.615
27968WAT      O84145   4.034   4.372   4.565
27968WAT     H184146   4.012   4.285   4.610
27968WAT     H284147   4.132   4.374   4.546
27969WAT      O84148   6.152   8.526   5.502
27969WAT     H184149   6.087   8.597   5.476
27969WAT     H284150   6.179   8.474   5.421
27970WAT      O84151   1.111   5.640   1.184
27970WAT     H184152   1.183   5.708   1.200
27970WAT     H284153   1.152   5.557   1.145
27971WAT      O84154   5.322   1.136   1.947
27971WAT     H184155   5.328   1.037   1.949
27971WAT     H284156   5.329   1.173   2.040
27972WAT      O84157   6.368   9.009   1.991
27972WAT     H184158   6.466   8.994   1.981
27972WAT     H284159   6.342   8.998   2.087
27973WAT      O84160   8.945   4.568   4.563
27973WAT     H184161   8.993   4.566   4.475
27973WAT     H284162   8.990   4.506   4.627
27974WAT      O84163   0.791   5.869   5.727
27974WAT     H184164   0.819   5.783   5.770
27974WAT     H284165   0.725   5.916   5.785
27975WAT      O84166   7.657   1.694   5.665
27975WAT     H184167   7.666   1.743   5.751
27975WAT     H284168   7.595   1.745   5.604
27976WAT      O84169   8.943   9.042   6.467
27976WAT     H184170   8.868   9.062   6.404
27976WAT     H284171   8.974   9.127   6.510
27977WAT      O84172   2.720   9.674   2.006
27977WAT     H184173   2.746   9.591   1.956
27977WAT     H284174   2.724   9.656   2.104
27978WAT      O84175   9.722   5.697   0.925
27978WAT     H184176   9.703   5.751   1.007
27978WAT     H284177   9.705   5.600   0.944
27979WAT      O84178   1.237   6.790   5.926
27979WAT     H184179   1.214   6.775   6.022
27979WAT     H284180   1.309   6.859   5.919
27980WAT      O84181   6.836   2.709   4.214
27980WAT     H184182   6.823   2.741   4.120
27980WAT     H284183   6.748   2.683   4.254
27981WAT      O84184   5.620   0.655   4.521
27981WAT     H184185   5.653   0.570   4.480
27981WAT     H284186   5.528   0.674   4.487
27982WAT      O84187   2.685   7.582   0.959
27982WAT     H184188   2.741   7.658   0.926
27982WAT     H284189   2.615   7.617   1.021
27983WAT      O84190   0.354   2.799   8.246
27983WAT     H184191   0.280   2.769   8.308
27983WAT     H284192   0.324   2.786   8.151
27984WAT      O84193   5.500   4.307   2.148
27984WAT     H184194   5.581   4.354   2.114
27984WAT     H284195   5.506   4.297   2.248
27985WAT      O84196   0.978   8.499   8.544
27985WAT     H184197   0.949   8.427   8.607
27985WAT     H284198   1.024   8.458   8.465
27986WAT      O84199   7.834   5.616   0.702
27986WAT     H184200   7.895   5.553   0.654
27986WAT     H284201   7.841   5.707   0.661
27987WAT      O84202   0.666   9.084   1.961
27987WAT     H184203   0.743   9.077   1.897
27987WAT     H284204   0.608   9.162   1.935
27988WAT      O84205   5.936   9.691   9.433
27988WAT     H184206   5.923   9.790   9.429
27988WAT     H284207   6.029   9.668   9.404
27989WAT      O84208   8.366   4.535   0.346
27989WAT     H184209   8.339   4.605   0.412
27989WAT     H284210   8.373   4.575   0.255
27990WAT      O84211   6.006   6.462   7.719
27990WAT     H184212   6.049   6.527   7.782
27990WAT     H284213   6.009   6.370   7.759
27991WAT      O84214   6.640   5.837   9.438
27991WAT     H184215   6.723   5.827   9.494
27991WAT     H284216   6.559   5.833   9.497
27992WAT      O84217   4.204   0.391   0.314
27992WAT     H184218   4.149   0.373   0.232
27992WAT     H284219   4.213   0.490   0.326
27993WAT      O84220   0.442   2.123   2.289
27993WAT     H184221   0.422   2.142   2.193
27993WAT     H284222   0.455   2.024   2.301
27994WAT      O84223   2.032   3.417   8.275
27994WAT     H184224   2.035   3.360   8.357
27994WAT     H284225   1.956   3.388   8.217
27995WAT      O84226   5.356   5.108   6.356
27995WAT     H184227   5.279   5.163   6.389
27995WAT     H284228   5.411   5.163   6.293
27996WAT      O84229   9.693   0.014   0.479
27996WAT     H184230   9.749   0.086   0.520
27996WAT     H284231   9.599   0.047   0.467
27997WAT      O84232   0.746   8.176   7.200
27997WAT     H184233   0.775   8.220   7.115
27997WAT     H284234   0.700   8.243   7.258
27998WAT      O84235   3.574   1.600   3.454
27998WAT     H184236   3.654   1.540   3.447
27998WAT     H284237   3.602   1.688   3.493
27999WAT      O84238   4.751   5.512   6.668
27999WAT     H184239   4.804   5.469   6.740
27999WAT     H284240   4.662   5.466   6.659
28000WAT      O84241   2.039   5.479   9.214
28000WAT     H184242   2.071   5.386   9.233
28000WAT     H284243   1.984   5.479   9.131
28001WAT      O84244   6.325   8.179   7.055
28001WAT     H184245   6.356   8.096   7.008
28001WAT     H284246   6.230   8.167   7.083
28002WAT      O84247   2.178   2.348   4.491
28002WAT     H184248   2.123   2.270   4.520
28002WAT     H284249   2.204   2.403   4.571
28003WAT      O84250   9.157   9.590   8.595
28003WAT     H184251   9.089   9.519   8.574
28003WAT     H284252   9.110   9.676   8.615
28004WAT      O84253   9.798   3.919   7.687
28004WAT     H184254   9.760   3.841   7.737
28004WAT     H284255   9.723   3.979   7.657
28005WAT      O84256   2.499   6.195   7.899
28005WAT     H184257   2.525   6.098   7.902
28005WAT     H284258   2.460   6.221   7.987
28006WAT      O84259   2.925   2.348   0.322
28006WAT     H184260   2.838   2.306   0.350
28006WAT     H284261   2.986   2.354   0.401
28007WAT      O84262   9.161   5.347   9.075
28007WAT     H184263   9.256   5.377   9.065
28007WAT     H284264   9.142   5.275   9.008
28008WAT      O84265   9.877   8.359   7.670
28008WAT     H184266   9.829   8.422   7.610
28008WAT     H284267   9.857   8.381   7.765
28009WAT      O84268   3.632   5.180   7.357
28009WAT     H184269   3.726   5.174   7.391
28009WAT     H284270   3.585   5.256   7.402
28010WAT      O84271   0.747   2.529   7.226
28010WAT     H184272   0.797   2.609   7.194
28010WAT     H284273   0.804   2.478   7.291
28011WAT      O84274   2.032   7.799   4.098
28011WAT     H184275   2.012   7.808   4.000
28011WAT     H284276   2.000   7.880   4.147
28012WAT      O84277   1.326   7.046   5.711
28012WAT     H184278   1.253   7.049   5.643
28012WAT     H284279   1.292   7.085   5.797
28013WAT      O84280   5.539   3.134   2.677
28013WAT     H184281   5.620   3.174   2.721
28013WAT     H284282   5.557   3.122   2.579
28014WAT      O84283   3.771   6.353   8.636
28014WAT     H184284   3.796   6.446   8.607
28014WAT     H284285   3.755   6.296   8.556
28015WAT      O84286   8.744   3.395   9.315
28015WAT     H184287   8.667   3.332   9.307
28015WAT     H284288   8.744   3.459   9.238
28016WAT      O84289   6.392   3.214   8.859
28016WAT     H184290   6.414   3.178   8.769
28016WAT     H284291   6.298   3.190   8.884
28017WAT      O84292   7.566   8.985   7.352
28017WAT     H184293   7.635   8.939   7.297
28017WAT     H284294   7.492   8.921   7.373
28018WAT      O84295   2.405   6.671   9.868
28018WAT     H184296   2.497   6.646   9.901
28018WAT     H284297   2.408   6.762   9.828
28019WAT      O84298   9.337   1.552   4.502
28019WAT     H184299   9.353   1.623   4.433
28019WAT     H284300   9.417   1.494   4.509
28020WAT      O84301   6.819   6.967   6.151
28020WAT     H184302   6.802   6.997   6.245
28020WAT     H284303   6.733   6.963   6.101
28021WAT      O84304   1.266   8.082   2.575
28021WAT     H184305   1.294   8.162   2.522
28021WAT     H284306   1.166   8.073   2.572
28022WAT      O84307   3.673   2.084   5.905
28022WAT     H184308   3.748   2.049   5.850
28022WAT     H284309   3.587   2.077   5.853
28023WAT      O84310   1.847   9.010   8.270
28023WAT     H184311   1.913   8.977   8.203
28023WAT     H284312   1.795   9.086   8.230
28024WAT      O84313   2.534   3.646   5.839
28024WAT     H184314   2.596   3.642   5.761
28024WAT     H284315   2.536   3.738   5.879
28025WAT      O84316   1.700   9.825   4.931
28025WAT     H184317   1.674   9.867   5.018
28025WAT     H284318   1.649   9.740   4.919
28026WAT      O84319   7.817   3.908   8.914
28026WAT     H184320   7.729   3.888   8.958
28026WAT     H284321   7.884   3.840   8.942
28027WAT      O84322   2.716   8.429   8.346
28027WAT     H184323   2.618   8.429   8.325
28027WAT     H284324   2.748   8.523   8.353
28028WAT      O84325   6.834   5.106   0.376
28028WAT     H184326   6.897   5.143   0.307
28028WAT     H284327   6.882   5.095   0.463
28029WAT      O84328   9.003   9.454   4.404
28029WAT     H184329   8.936   9.511   4.450
28029WAT     H284330   8.974   9.439   4.309
28030WAT      O84331   6.260   7.505   5.760
28030WAT     H184332   6.192   7.452   5.809
28030WAT     H284333   6.302   7.571   5.823
28031WAT      O84334   2.780   8.329   1.941
28031WAT     H184335   2.701   8.324   2.002
28031WAT     H284336   2.823   8.419   1.950
28032WAT      O84337   8.542   2.974   7.559
28032WAT     H184338   8.461   2.997   7.613
28032WAT     H284339   8.513   2.925   7.476
28033WAT      O84340   1.580   7.406   3.312
28033WAT     H184341   1.574   7.417   3.411
28033WAT     H284342   1.666   7.360   3.289
28034WAT      O84343   9.169   2.940   1.169
28034WAT     H184344   9.247   2.969   1.113
28034WAT     H284345   9.130   3.020   1.215
28035WAT      O84346   0.843   1.707   2.562
28035WAT     H184347   0.856   1.801   2.593
28035WAT     H284348   0.768   1.665   2.614
28036WAT      O84349   8.568   4.329   5.844
28036WAT     H184350   8.606   4.390   5.774
28036WAT     H284351   8.630   4.252   5.858
28037WAT      O84352   2.434   2.695   8.922
28037WAT     H184353   2.371   2.631   8.878
28037WAT     H284354   2.418   2.695   9.021
28038WAT      O84355   7.667   1.968   3.238
28038WAT     H184356   7.753   2.007   3.205
28038WAT     H284357   7.639   1.895   3.176
28039WAT      O84358   1.633   4.051   2.845
28039WAT     H184359   1.550   4.104   2.860
28039WAT     H284360   1.693   4.060   2.924
28040WAT      O84361   6.080   2.554   8.096
28040WAT     H184362   5.986   2.579   8.121
28040WAT     H284363   6.097   2.460   8.123
28041WAT      O84364   5.438   6.829   8.118
28041WAT     H184365   5.464   6.778   8.200
28041WAT     H284366   5.498   6.908   8.108
28042WAT      O84367   7.290   2.860   8.481
28042WAT     H184368   7.289   2.787   8.549
28042WAT     H284369   7.333   2.827   8.397
28043WAT      O84370   6.386   0.154   8.260
28043WAT     H184371   6.458   0.086   8.274
28043WAT     H284372   6.300   0.108   8.239
28044WAT      O84373   4.958   1.194   4.340
28044WAT     H184374   4.870   1.224   4.304
28044WAT     H284375   4.946   1.108   4.389
28045WAT      O84376   2.400   5.667   4.396
28045WAT     H184377   2.435   5.629   4.482
28045WAT     H284378   2.475   5.703   4.342
28046WAT      O84379   3.723   3.443   3.847
28046WAT     H184380   3.753   3.431   3.752
28046WAT     H284381   3.733   3.357   3.896
28047WAT      O84382   3.744   0.393   8.316
28047WAT     H184383   3.683   0.436   8.383
28047WAT     H284384   3.756   0.455   8.238
28048WAT      O84385   7.031   8.256   3.069
28048WAT     H184386   6.990   8.283   2.982
28048WAT     H284387   7.083   8.171   3.056
28049WAT      O84388   7.605   7.904   0.935
28049WAT     H184389   7.588   8.002   0.947
28049WAT     H284390   7.702   7.890   0.913
28050WAT      O84391   3.584   1.790   5.111
28050WAT     H184392   3.600   1.693   5.093
28050WAT     H284393   3.486   1.806   5.125
28051WAT      O84394   8.867   2.650   6.255
28051WAT     H184395   8.865   2.749   6.269
28051WAT     H284396   8.859   2.631   6.157
28052WAT      O84397   9.510   4.242   4.653
28052WAT     H184398   9.582   4.181   4.620
28052WAT     H284399   9.440   4.252   4.583
28053WAT      O84400   5.900   0.512   4.967
28053WAT     H184401   5.997   0.534   4.963
28053WAT     H284402   5.881   0.431   4.912
28054WAT      O84403   0.741   0.187   2.530
28054WAT     H184404   0.700   0.096   2.542
28054WAT     H284405   0.790   0.212   2.614
28055WAT      O84406   8.066   6.939   2.905
28055WAT     H184407   8.110   6.923   2.993
28055WAT     H284408   8.098   6.871   2.839
28056WAT      O84409   5.312   7.483   1.672
28056WAT     H184410   5.251   7.415   1.632
28056WAT     H284411   5.331   7.555   1.605
28057WAT      O84412   5.603   5.319   5.337
28057WAT     H184413   5.630   5.270   5.254
28057WAT     H284414   5.663   5.294   5.412
28058WAT      O84415   1.135   6.398   3.029
28058WAT     H184416   1.104   6.423   2.938
28058WAT     H284417   1.235   6.401   3.032
28059WAT      O84418   4.886   2.613   9.119
28059WAT     H184419   4.814   2.580   9.180
28059WAT     H284420   4.964   2.643   9.174
28060WAT      O84421   8.404   6.284   5.006
28060WAT     H184422   8.379   6.368   5.054
28060WAT     H284423   8.367   6.286   4.913
28061WAT      O84424   4.794   3.094   0.393
28061WAT     H184425   4.710   3.064   0.439
28061WAT     H284426   4.849   3.014   0.370
28062WAT      O84427   0.366   7.694   8.162
28062WAT     H184428   0.334   7.605   8.130
28062WAT     H284429   0.288   7.757   8.168
28063WAT      O84430   1.412   4.762   6.211
28063WAT     H184431   1.364   4.780   6.125
28063WAT     H284432   1.367   4.812   6.285
28064WAT      O84433   8.276   9.169   1.230
28064WAT     H184434   8.317   9.082   1.256
28064WAT     H284435   8.176   9.162   1.235
28065WAT      O84436   2.807   3.015   8.327
28065WAT     H184437   2.766   2.927   8.308
28065WAT     H284438   2.822   3.024   8.426
28066WAT      O84439   7.827   9.350   9.277
28066WAT     H184440   7.782   9.421   9.332
28066WAT     H284441   7.762   9.276   9.260
28067WAT      O84442   2.088   5.251   1.490
28067WAT     H184443   2.121   5.306   1.567
28067WAT     H284444   2.143   5.169   1.481
28068WAT      O84445   1.175   5.735   4.924
28068WAT     H184446   1.202   5.827   4.894
28068WAT     H284447   1.248   5.670   4.902
28069WAT      O84448   7.416   0.993   6.249
28069WAT     H184449   7.409   1.085   6.211
28069WAT     H284450   7.505   0.981   6.292
28070WAT      O84451   5.090   3.086   4.030
28070WAT     H184452   5.000   3.107   4.067
28070WAT     H284453   5.140   3.029   4.094
28071WAT      O84454   4.991   9.272   7.821
28071WAT     H184455   4.947   9.274   7.731
28071WAT     H284456   5.069   9.333   7.822
28072WAT      O84457   6.379   6.732   6.130
28072WAT     H184458   6.375   6.705   6.034
28072WAT     H284459   6.290   6.720   6.172
28073WAT      O84460   9.724   1.352   5.588
28073WAT     H184461   9.727   1.263   5.633
28073WAT     H284462   9.643   1.402   5.619
28074WAT      O84463   1.141   0.966   8.402
28074WAT     H184464   1.095   1.053   8.418
28074WAT     H284465   1.131   0.908   8.483
28075WAT      O84466   1.144   5.671   2.232
28075WAT     H184467   1.092   5.756   2.246
28075WAT     H284468   1.107   5.623   2.152
28076WAT      O84469   4.088   2.406   3.307
28076WAT     H184470   4.033   2.423   3.225
28076WAT     H284471   4.180   2.378   3.281
28077WAT      O84472   1.053   5.858   4.445
28077WAT     H184473   1.036   5.825   4.352
28077WAT     H284474   1.021   5.790   4.511
28078WAT      O84475   0.161   4.332   7.995
28078WAT     H184476   0.197   4.342   8.088
28078WAT     H284477   0.104   4.250   7.990
28079WAT      O84478   6.563   7.284   0.203
28079WAT     H184479   6.594   7.363   0.254
28079WAT     H284480   6.532   7.313   0.112
28080WAT      O84481   2.578   2.729   6.277
28080WAT     H184482   2.640   2.806   6.291
28080WAT     H284483   2.555   2.688   6.366
28081WAT      O84484   1.410   4.367   5.147
28081WAT     H184485   1.390   4.439   5.214
28081WAT     H284486   1.325   4.330   5.111
28082WAT      O84487   9.611   7.444   6.852
28082WAT     H184488   9.630   7.540   6.874
28082WAT     H284489   9.689   7.406   6.803
28083WAT      O84490   4.769   6.393   3.972
28083WAT     H184491   4.812   6.416   3.884
28083WAT     H284492   4.800   6.457   4.042
28084WAT      O84493   8.750   0.854   4.552
28084WAT     H184494   8.792   0.796   4.622
28084WAT     H284495   8.812   0.928   4.528
28085WAT      O84496   6.346   0.394   3.516
28085WAT     H184497   6.332   0.330   3.592
28085WAT     H284498   6.285   0.371   3.441
28086WAT      O84499   4.613   4.995   8.843
28086WAT     H184500   4.546   5.027   8.775
28086WAT     H284501   4.649   4.906   8.815
28087WAT      O84502   9.554   9.673   9.431
28087WAT     H184503   9.646   9.640   9.412
28087WAT     H284504   9.505   9.688   9.345
28088WAT      O84505   9.634   1.320   4.271
28088WAT     H184506   9.632   1.410   4.227
28088WAT     H284507   9.584   1.254   4.215
28089WAT      O84508   1.161   0.306   7.400
28089WAT     H184509   1.133   0.225   7.349
28089WAT     H284510   1.218   0.364   7.342
28090WAT      O84511   4.967   5.905   0.288
28090WAT     H184512   4.897   5.835   0.274
28090WAT     H284513   5.007   5.930   0.200
28091WAT      O84514   9.444   1.930   4.808
28091WAT     H184515   9.444   1.837   4.844
28091WAT     H284516   9.404   1.992   4.875
28092WAT      O84517   8.523   4.316   9.057
28092WAT     H184518   8.511   4.274   8.967
28092WAT     H284519   8.436   4.355   9.088
28093WAT      O84520   6.969   7.299   4.557
28093WAT     H184521   6.927   7.386   4.581
28093WAT     H284522   6.897   7.232   4.536
28094WAT      O84523   7.499   0.414   5.496
28094WAT     H184524   7.449   0.500   5.485
28094WAT     H284525   7.570   0.408   5.426
28095WAT      O84526   3.195   9.822   6.863
28095WAT     H184527   3.154   9.760   6.929
28095WAT     H284528   3.156   9.806   6.772
28096WAT      O84529   5.262   2.375   8.752
28096WAT     H184530   5.307   2.399   8.667
28096WAT     H284531   5.163   2.384   8.741
28097WAT      O84532   3.389   8.005   6.675
28097WAT     H184533   3.298   8.023   6.638
28097WAT     H284534   3.382   7.938   6.749
28098WAT      O84535   4.825   0.190   3.001
28098WAT     H184536   4.738   0.239   2.998
28098WAT     H284537   4.809   0.093   2.981
28099WAT      O84538   4.251   7.372   6.604
28099WAT     H184539   4.254   7.419   6.692
28099WAT     H284540   4.342   7.367   6.564
28100WAT      O84541   0.825   3.669   8.958
28100WAT     H184542   0.820   3.570   8.949
28100WAT     H284543   0.811   3.711   8.868
28101WAT      O84544   1.775   4.844   5.003
28101WAT     H184545   1.855   4.905   4.996
28101WAT     H284546   1.704   4.876   4.940
28102WAT      O84547   6.106   0.610   6.811
28102WAT     H184548   6.201   0.632   6.835
28102WAT     H284549   6.106   0.541   6.739
28103WAT      O84550   1.697   2.275   0.631
28103WAT     H184551   1.643   2.356   0.657
28103WAT     H284552   1.754   2.246   0.708
28104WAT      O84553   5.874   8.429   3.709
28104WAT     H184554   5.912   8.337   3.697
28104WAT     H284555   5.838   8.462   3.622
28105WAT      O84556   5.874   2.608   3.263
28105WAT     H184557   5.818   2.566   3.192
28105WAT     H284558   5.905   2.539   3.327
28106WAT      O84559   3.763   0.584   4.805
28106WAT     H184560   3.778   0.567   4.708
28106WAT     H284561   3.668   0.612   4.820
28107WAT      O84562   8.268   9.117   7.264
28107WAT     H184563   8.241   9.193   7.323
28107WAT     H284564   8.361   9.089   7.285
28108WAT      O84565   6.040   3.752   3.473
28108WAT     H184566   6.058   3.656   3.450
28108WAT     H284567   6.118   3.808   3.446
28109WAT      O84568   7.442   6.188   1.176
28109WAT     H184569   7.358   6.229   1.212
28109WAT     H284570   7.423   6.144   1.089
28110WAT      O84571   6.454   5.780   6.687
28110WAT     H184572   6.412   5.826   6.765
28110WAT     H284573   6.502   5.848   6.631
28111WAT      O84574   9.376   7.620   7.063
28111WAT     H184575   9.344   7.560   6.989
28111WAT     H284576   9.302   7.634   7.129
28112WAT      O84577   4.938   2.347   9.023
28112WAT     H184578   4.919   2.438   9.058
28112WAT     H284579   4.935   2.281   9.098
28113WAT      O84580   7.965   4.405   2.194
28113WAT     H184581   7.914   4.436   2.114
28113WAT     H284582   7.968   4.477   2.262
28114WAT      O84583   8.485   1.999   4.360
28114WAT     H184584   8.408   2.025   4.303
28114WAT     H284585   8.570   2.029   4.316
28115WAT      O84586   4.402   7.925   5.611
28115WAT     H184587   4.304   7.934   5.593
28115WAT     H284588   4.432   8.000   5.669
28116WAT      O84589   0.966   9.118   6.900
28116WAT     H184590   0.988   9.210   6.930
28116WAT     H284591   0.913   9.071   6.970
28117WAT      O84592   9.676   0.417   6.453
28117WAT     H184593   9.706   0.434   6.547
28117WAT     H284594   9.609   0.342   6.453
28118WAT      O84595   8.117   5.337   2.953
28118WAT     H184596   8.102   5.251   3.002
28118WAT     H284597   8.190   5.389   2.997
28119WAT      O84598   0.703   4.234   5.468
28119WAT     H184599   0.674   4.182   5.548
28119WAT     H284600   0.768   4.304   5.495
28120WAT      O84601   4.783   8.673   3.124
28120WAT     H184602   4.811   8.670   3.028
28120WAT     H284603   4.684   8.682   3.129
28121WAT      O84604   8.656   8.505   4.616
28121WAT     H184605   8.686   8.555   4.535
28121WAT     H284606   8.602   8.425   4.588
28122WAT      O84607   2.789   8.819   9.235
28122WAT     H184608   2.695   8.785   9.233
28122WAT     H284609   2.789   8.916   9.259
28123WAT      O84610   6.271   7.174   0.945
28123WAT     H184611   6.222   7.246   0.993
28123WAT     H284612   6.213   7.136   0.873
28124WAT      O84613   2.609   7.398   3.030
28124WAT     H184614   2.590   7.482   3.082
28124WAT     H284615   2.524   7.346   3.020
28125WAT      O84616   8.818   3.458   0.496
28125WAT     H184617   8.897   3.434   0.439
28125WAT     H284618   8.779   3.375   0.535
28126WAT      O84619   8.367   9.748   8.504
28126WAT     H184620   8.331   9.655   8.498
28126WAT     H284621   8.424   9.766   8.424
28127WAT      O84622   7.585   5.709   8.362
28127WAT     H184623   7.597   5.773   8.438
28127WAT     H284624   7.537   5.755   8.287
28128WAT      O84625   7.561   4.893   0.490
28128WAT     H184626   7.545   4.829   0.414
28128WAT     H284627   7.473   4.928   0.523
28129WAT      O84628   1.458   1.581   5.641
28129WAT     H184629   1.551   1.609   5.618
28129WAT     H284630   1.461   1.511   5.712
28130WAT      O84631   5.417   5.354   1.074
28130WAT     H184632   5.426   5.305   1.160
28130WAT     H284633   5.336   5.412   1.077
28131WAT      O84634   2.028   8.426   4.361
28131WAT     H184635   2.124   8.454   4.351
28131WAT     H284636   2.023   8.327   4.370
28132WAT      O84637   0.119   2.462   9.345
28132WAT     H184638   0.190   2.508   9.398
28132WAT     H284639   0.160   2.425   9.261
28133WAT      O84640   2.738   3.157   0.651
28133WAT     H184641   2.710   3.205   0.734
28133WAT     H284642   2.696   3.067   0.649
28134WAT      O84643   8.030   8.233   2.337
28134WAT     H184644   8.085   8.240   2.253
28134WAT     H284645   8.079   8.277   2.412
28135WAT      O84646   4.577   1.745   9.554
28135WAT     H184647   4.579   1.711   9.649
28135WAT     H284648   4.622   1.834   9.550
28136WAT      O84649   5.830   0.228   3.260
28136WAT     H184650   5.848   0.131   3.273
28136WAT     H284651   5.894   0.265   3.192
28137WAT      O84652   2.713   6.777   2.117
28137WAT     H184653   2.790   6.787   2.181
28137WAT     H284654   2.628   6.769   2.169
28138WAT      O84655   7.010   6.693   7.408
28138WAT     H184656   6.915   6.682   7.434
28138WAT     H284657   7.037   6.789   7.416
28139WAT      O84658   0.598   0.382   1.099
28139WAT     H184659   0.667   0.310   1.091
28139WAT     H284660   0.600   0.438   1.016
28140WAT      O84661   6.574   1.781   5.929
28140WAT     H184662   6.547   1.694   5.887
28140WAT     H284663   6.501   1.848   5.917
28141WAT      O84664   6.696   0.803   8.004
28141WAT     H184665   6.711   0.901   8.017
28141WAT     H284666   6.751   0.752   8.070
28142WAT      O84667   4.667   1.425   4.486
28142WAT     H184668   4.730   1.458   4.556
28142WAT     H284669   4.718   1.379   4.414
28143WAT      O84670   0.055   2.443   5.945
28143WAT     H184671   0.074   2.405   5.854
28143WAT     H284672   0.101   2.531   5.954
28144WAT      O84673   1.240   2.417   1.544
28144WAT     H184674   1.269   2.323   1.556
28144WAT     H284675   1.152   2.431   1.590
28145WAT      O84676   7.365   8.512   0.473
28145WAT     H184677   7.450   8.558   0.499
28145WAT     H284678   7.381   8.456   0.392
28146WAT      O84679   0.786   0.363   4.666
28146WAT     H184680   0.807   0.451   4.625
28146WAT     H284681   0.803   0.367   4.765
28147WAT      O84682   7.675   3.221   8.957
28147WAT     H184683   7.643   3.129   8.977
28147WAT     H284684   7.773   3.227   8.977
28148WAT      O84685   4.493   5.399   4.551
28148WAT     H184686   4.475   5.301   4.537
28148WAT     H284687   4.465   5.450   4.470
28149WAT      O84688   9.137   0.312   6.118
28149WAT     H184689   9.096   0.254   6.188
28149WAT     H284690   9.223   0.350   6.151
28150WAT      O84691   1.724   6.703   4.707
28150WAT     H184692   1.690   6.783   4.756
28150WAT     H284693   1.667   6.687   4.626
28151WAT      O84694   0.543   6.166   0.697
28151WAT     H184695   0.484   6.243   0.722
28151WAT     H284696   0.639   6.193   0.707
28152WAT      O84697   9.312   9.380   1.061
28152WAT     H184698   9.404   9.418   1.065
28152WAT     H284699   9.306   9.299   1.119
28153WAT      O84700   0.930   7.045   0.049
28153WAT     H184701   0.940   6.953   0.012
28153WAT     H284702   0.833   7.069   0.053
28154WAT      O84703   5.377   5.998   6.478
28154WAT     H184704   5.450   6.046   6.525
28154WAT     H284705   5.357   5.912   6.526
28155WAT      O84706   3.280   9.509   0.012
28155WAT     H184707   3.352   9.576  -0.008
28155WAT     H284708   3.316   9.417  -0.000
28156WAT      O84709   8.334   1.789   2.642
28156WAT     H184710   8.375   1.842   2.567
28156WAT     H284711   8.404   1.768   2.710
28157WAT      O84712   9.403   9.760   9.207
28157WAT     H184713   9.371   9.754   9.112
28157WAT     H284714   9.328   9.738   9.269
28158WAT      O84715   9.745   2.903   9.386
28158WAT     H184716   9.688   2.869   9.460
28158WAT     H284717   9.841   2.893   9.411
28159WAT      O84718   6.185   2.526   0.264
28159WAT     H184719   6.144   2.460   0.202
28159WAT     H284720   6.273   2.492   0.296
28160WAT      O84721   8.799   2.744   3.864
28160WAT     H184722   8.723   2.796   3.902
28160WAT     H284723   8.809   2.766   3.767
28161WAT      O84724   0.064   6.777   2.958
28161WAT     H184725   0.118   6.742   2.881
28161WAT     H284726   0.080   6.719   3.038
28162WAT      O84727   6.310   0.782   4.858
28162WAT     H184728   6.379   0.795   4.930
28162WAT     H284729   6.352   0.800   4.769
28163WAT      O84730   5.034   4.584   9.016
28163WAT     H184731   5.041   4.663   9.077
28163WAT     H284732   5.069   4.503   9.062
28164WAT      O84733   0.404   1.010   4.736
28164WAT     H184734   0.392   0.994   4.834
28164WAT     H284735   0.328   0.969   4.686
28165WAT      O84736   4.904   7.780   3.437
28165WAT     H184737   4.838   7.845   3.473
28165WAT     H284738   4.855   7.704   3.393
28166WAT      O84739   0.526   0.326   9.828
28166WAT     H184740   0.497   0.366   9.741
28166WAT     H284741   0.625   0.316   9.829
28167WAT      O84742   1.299   4.355   1.708
28167WAT     H184743   1.341   4.272   1.673
28167WAT     H284744   1.368   4.411   1.754
28168WAT      O84745   8.931   5.445   8.717
28168WAT     H184746   9.031   5.433   8.714
28168WAT     H284747   8.900   5.432   8.811
28169WAT      O84748   1.836   2.719   1.267
28169WAT     H184749   1.791   2.770   1.340
28169WAT     H284750   1.795   2.743   1.179
28170WAT      O84751   0.669   2.837   4.831
28170WAT     H184752   0.577   2.841   4.792
28170WAT     H284753   0.662   2.833   4.931
28171WAT      O84754   2.941   9.326   3.794
28171WAT     H184755   3.013   9.301   3.729
28171WAT     H284756   2.857   9.346   3.743
28172WAT      O84757   7.412   9.822   4.205
28172WAT     H184758   7.457   9.880   4.137
28172WAT     H284759   7.331   9.869   4.240
28173WAT      O84760   3.164   8.790   8.324
28173WAT     H184761   3.089   8.833   8.273
28173WAT     H284762   3.231   8.753   8.259
28174WAT      O84763   7.833   8.205   0.937
28174WAT     H184764   7.773   8.165   1.006
28174WAT     H284765   7.825   8.153   0.851
28175WAT      O84766   9.720   1.024   2.074
28175WAT     H184767   9.751   1.080   2.151
28175WAT     H284768   9.731   1.075   1.989
28176WAT      O84769   7.202   3.370   5.253
28176WAT     H184770   7.271   3.399   5.320
28176WAT     H284771   7.129   3.438   5.249
28177WAT      O84772   0.240   1.282   4.146
28177WAT     H184773   0.213   1.375   4.120
28177WAT     H284774   0.301   1.285   4.225
28178WAT      O84775   9.738   0.039   3.982
28178WAT     H184776   9.672  -0.018   3.933
28178WAT     H284777   9.818   0.054   3.924
28179WAT      O84778   8.468   8.842   4.409
28179WAT     H184779   8.414   8.808   4.486
28179WAT     H284780   8.432   8.805   4.324
28180WAT      O84781   2.555   8.927   9.523
28180WAT     H184782   2.524   9.012   9.480
28180WAT     H284783   2.494   8.852   9.497
28181WAT      O84784   1.358   8.175   0.531
28181WAT     H184785   1.307   8.114   0.592
28181WAT     H284786   1.444   8.131   0.504
28182WAT      O84787   5.874   2.922   5.788
28182WAT     H184788   5.927   2.911   5.704
28182WAT     H284789   5.918   2.990   5.846
28183WAT      O84790   2.518   2.752   2.426
28183WAT     H184791   2.448   2.711   2.368
28183WAT     H284792   2.486   2.756   2.520
28184WAT      O84793   0.938   0.977   6.359
28184WAT     H184794   0.986   0.899   6.398
28184WAT     H284795   1.004   1.039   6.316
28185WAT      O84796   5.463   3.085   9.304
28185WAT     H184797   5.540   3.149   9.300
28185WAT     H284798   5.437   3.070   9.400
28186WAT      O84799   3.227   5.160   1.566
28186WAT     H184800   3.252   5.068   1.596
28186WAT     H284801   3.274   5.181   1.480
28187WAT      O84802   9.445   7.936   7.231
28187WAT     H184803   9.501   7.863   7.190
28187WAT     H284804   9.383   7.896   7.298
28188WAT      O84805   7.619   8.757   6.126
28188WAT     H184806   7.712   8.723   6.145
28188WAT     H284807   7.615   8.855   6.145
28189WAT      O84808   9.366   5.101   4.572
28189WAT     H184809   9.406   5.192   4.560
28189WAT     H284810   9.356   5.082   4.670
28190WAT      O84811   6.052   3.284   0.709
28190WAT     H184812   6.065   3.383   0.717
28190WAT     H284813   5.957   3.262   0.732
28191WAT      O84814   5.603   5.008   2.562
28191WAT     H184815   5.565   4.952   2.488
28191WAT     H284816   5.611   5.103   2.531
28192WAT      O84817   3.123   0.760   9.606
28192WAT     H184818   3.091   0.775   9.512
28192WAT     H284819   3.222   0.744   9.605
28193WAT      O84820   0.855   3.129   9.309
28193WAT     H184821   0.859   3.178   9.396
28193WAT     H284822   0.948   3.105   9.280
28194WAT      O84823   4.333   1.643   6.337
28194WAT     H184824   4.328   1.601   6.246
28194WAT     H284825   4.243   1.681   6.361
28195WAT      O84826   6.393   8.286   7.533
28195WAT     H184827   6.428   8.241   7.450
28195WAT     H284828   6.376   8.382   7.513
28196WAT      O84829   8.561   4.930   9.527
28196WAT     H184830   8.582   4.896   9.618
28196WAT     H284831   8.518   5.020   9.534
28197WAT      O84832   6.190   7.543   7.949
28197WAT     H184833   6.171   7.626   8.001
28197WAT     H284834   6.157   7.463   8.000
28198WAT      O84835   8.210   3.950   0.006
28198WAT     H184836   8.254   3.980   0.091
28198WAT     H284837   8.182   3.855   0.015
28199WAT      O84838   4.426   3.661   9.139
28199WAT     H184839   4.393   3.660   9.044
28199WAT     H284840   4.353   3.635   9.201
28200WAT      O84841   6.143   1.607   1.893
28200WAT     H184842   6.121   1.622   1.797
28200WAT     H284843   6.239   1.581   1.901
28201WAT      O84844   2.593   3.840   4.972
28201WAT     H184845   2.651   3.819   4.893
28201WAT     H284846   2.596   3.938   4.991
28202WAT      O84847   2.516   7.487   2.606
28202WAT     H184848   2.543   7.406   2.554
28202WAT     H284849   2.419   7.480   2.630
28203WAT      O84850   8.791   5.759   1.054
28203WAT     H184851   8.710   5.715   1.094
28203WAT     H284852   8.781   5.859   1.060
28204WAT      O84853   0.482   5.384   8.009
28204WAT     H184854   0.410   5.412   8.072
28204WAT     H284855   0.494   5.285   8.012
28205WAT      O84856   5.069   7.383   3.901
28205WAT     H184857   5.120   7.423   3.976
28205WAT     H284858   5.111   7.409   3.814
28206WAT      O84859   9.786   2.961   1.558
28206WAT     H184860   9.883   2.947   1.540
28206WAT     H284861   9.770   2.964   1.657
28207WAT      O84862   6.088   4.758   1.628
28207WAT     H184863   6.186   4.763   1.647
28207WAT     H284864   6.037   4.775   1.712
28208WAT      O84865   9.017   0.560   2.782
28208WAT     H184866   8.932   0.558   2.729
28208WAT     H284867   9.028   0.649   2.825
28209WAT      O84868   7.683   5.272   6.407
28209WAT     H184869   7.649   5.186   6.444
28209WAT     H284870   7.776   5.259   6.373
28210WAT      O84871   7.570   8.654   2.066
28210WAT     H184872   7.571   8.754   2.062
28210WAT     H284873   7.637   8.618   2.001
28211WAT      O84874   4.194   8.897   6.096
28211WAT     H184875   4.161   8.805   6.116
28211WAT     H284876   4.293   8.896   6.083
28212WAT      O84877   5.259   6.987   5.808
28212WAT     H184878   5.166   7.005   5.776
28212WAT     H284879   5.310   6.937   5.739
28213WAT      O84880   5.411   5.245   4.584
28213WAT     H184881   5.412   5.323   4.521
28213WAT     H284882   5.503   5.226   4.617
28214WAT      O84883   1.037   0.145   9.243
28214WAT     H184884   1.136   0.156   9.255
28214WAT     H284885   1.007   0.060   9.285
28215WAT      O84886   2.858   8.053   4.348
28215WAT     H184887   2.951   8.021   4.328
28215WAT     H284888   2.863   8.137   4.401
28216WAT      O84889   5.948   8.458   5.002
28216WAT     H184890   6.045   8.432   5.006
28216WAT     H284891   5.924   8.483   4.908
28217WAT      O84892   0.725   3.922   9.386
28217WAT     H184893   0.804   3.975   9.418
28217WAT     H284894   0.757   3.840   9.339
28218WAT      O84895   2.115   1.084   5.917
28218WAT     H184896   2.197   1.026   5.918
28218WAT     H284897   2.121   1.147   5.840
28219WAT      O84898   2.012   6.202   0.999
28219WAT     H184899   1.926   6.240   1.035
28219WAT     H284900   2.089   6.250   1.041
28220WAT      O84901   7.743   5.818   0.880
28220WAT     H184902   7.643   5.809   0.883
28220WAT     H284903   7.776   5.785   0.792
28221WAT      O84904   6.990   1.702   5.853
28221WAT     H184905   7.083   1.714   5.889
28221WAT     H284906   6.970   1.605   5.842
28222WAT      O84907   7.963   9.553   1.638
28222WAT     H184908   7.987   9.538   1.733
28222WAT     H284909   7.948   9.651   1.622
28223WAT      O84910   7.273   2.119   6.865
28223WAT     H184911   7.244   2.196   6.808
28223WAT     H284912   7.306   2.154   6.953
28224WAT      O84913   6.135   7.713   6.015
28224WAT     H184914   6.089   7.757   6.092
28224WAT     H284915   6.078   7.722   5.933
28225WAT      O84916   9.436   2.180   7.316
28225WAT     H184917   9.516   2.213   7.367
28225WAT     H284918   9.389   2.258   7.275
28226WAT      O84919   6.997   4.088   7.097
28226WAT     H184920   6.982   4.055   7.190
28226WAT     H284921   6.911   4.082   7.045
28227WAT      O84922   9.117   9.502   7.907
28227WAT     H184923   9.034   9.455   7.876
28227WAT     H284924   9.193   9.479   7.847
28228WAT      O84925   3.443   0.551   3.353
28228WAT     H184926   3.448   0.550   3.253
28228WAT     H284927   3.348   0.550   3.382
28229WAT      O84928   1.217   5.788   9.153
28229WAT     H184929   1.277   5.787   9.073
28229WAT     H284930   1.122   5.780   9.124
28230WAT      O84931   1.465   5.330   6.947
28230WAT     H184932   1.521   5.412   6.945
28230WAT     H284933   1.458   5.295   7.040
28231WAT      O84934   4.463   2.730   9.808
28231WAT     H184935   4.397   2.667   9.766
28231WAT     H284936   4.533   2.677   9.855
28232WAT      O84937   5.301   2.442   6.367
28232WAT     H184938   5.238   2.383   6.316
28232WAT     H284939   5.269   2.537   6.363
28233WAT      O84940   2.445   9.193   1.460
28233WAT     H184941   2.508   9.213   1.535
28233WAT     H284942   2.479   9.233   1.375
28234WAT      O84943   6.925   5.372   5.106
28234WAT     H184944   6.830   5.385   5.079
28234WAT     H284945   6.936   5.392   5.204
28235WAT      O84946   3.708   3.682   9.127
28235WAT     H184947   3.726   3.729   9.040
28235WAT     H284948   3.616   3.644   9.126
28236WAT      O84949   0.850   7.813   4.010
28236WAT     H184950   0.776   7.762   3.967
28236WAT     H284951   0.853   7.791   4.108
28237WAT      O84952   3.535   3.898   3.601
28237WAT     H184953   3.441   3.924   3.580
28237WAT     H284954   3.556   3.918   3.696
28238WAT      O84955   0.500   5.823   4.086
28238WAT     H184956   0.500   5.775   3.999
28238WAT     H284957   0.581   5.798   4.139
28239WAT      O84958   7.419   7.584   8.971
28239WAT     H184959   7.338   7.551   8.924
28239WAT     H284960   7.497   7.585   8.908
28240WAT      O84961   3.820   7.042   5.601
28240WAT     H184962   3.761   7.094   5.539
28240WAT     H284963   3.857   6.963   5.552
28241WAT      O84964   6.406   0.700   3.618
28241WAT     H184965   6.449   0.609   3.622
28241WAT     H284966   6.439   0.756   3.694
28242WAT      O84967   0.032   9.277   5.378
28242WAT     H184968  -0.025   9.247   5.301
28242WAT     H284969   0.064   9.197   5.428
28243WAT      O84970   6.463   1.356   6.853
28243WAT     H184971   6.549   1.401   6.828
28243WAT     H284972   6.394   1.425   6.875
28244WAT      O84973   5.251   7.974   5.652
28244WAT     H184974   5.331   7.917   5.668
28244WAT     H284975   5.198   7.982   5.737
28245WAT      O84976   6.701   1.521   6.824
28245WAT     H184977   6.697   1.555   6.918
28245WAT     H284978   6.709   1.597   6.761
28246WAT      O84979   1.022   1.582   5.363
28246WAT     H184980   1.097   1.532   5.406
28246WAT     H284981   1.048   1.678   5.353
28247WAT      O84982   6.317   5.873   8.212
28247WAT     H184983   6.397   5.877   8.152
28247WAT     H284984   6.348   5.874   8.307
28248WAT      O84985   9.026   3.017   6.824
28248WAT     H184986   8.995   2.974   6.739
28248WAT     H284987   9.122   2.996   6.840
28249WAT      O84988   7.239   1.287   4.423
28249WAT     H184989   7.201   1.314   4.334
28249WAT     H284990   7.337   1.311   4.425
28250WAT      O84991   9.495   6.641   3.202
28250WAT     H184992   9.472   6.735   3.226
28250WAT     H284993   9.561   6.641   3.127
28251WAT      O84994   8.080   3.149   8.427
28251WAT     H184995   8.045   3.198   8.507
28251WAT     H284996   8.180   3.149   8.431
28252WAT      O84997   8.577   2.559   2.530
28252WAT     H184998   8.534   2.475   2.562
28252WAT     H284999   8.545   2.581   2.438
28253WAT      O85000   2.623   2.856   9.213
28253WAT     H185001   2.585   2.788   9.149
28253WAT     H285002   2.677   2.809   9.283
28254WAT      O85003   4.494   9.078   2.060
28254WAT     H185004   4.592   9.073   2.079
28254WAT     H285005   4.464   9.173   2.065
28255WAT      O85006   9.385   7.895   0.269
28255WAT     H185007   9.419   7.900   0.175
28255WAT     H285008   9.439   7.957   0.326
28256WAT      O85009   7.810   7.451   5.224
28256WAT     H185010   7.775   7.537   5.187
28256WAT     H285011   7.755   7.424   5.303
28257WAT      O85012   0.493   7.521   5.176
28257WAT     H185013   0.566   7.456   5.200
28257WAT     H285014   0.455   7.496   5.087
28258WAT      O85015   7.005   0.315   7.830
28258WAT     H185016   6.988   0.359   7.742
28258WAT     H285017   7.094   0.270   7.828
28259WAT      O85018   9.812   1.612   8.724
28259WAT     H185019   9.906   1.580   8.713
28259WAT     H285020   9.805   1.669   8.805
28260WAT      O85021   3.716   4.863   4.641
28260WAT     H185022   3.644   4.844   4.574
28260WAT     H285023   3.714   4.792   4.712
28261WAT      O85024   2.162   7.160   3.834
28261WAT     H185025   2.218   7.237   3.867
28261WAT     H285026   2.104   7.127   3.909
28262WAT      O85027   0.931   8.152   9.309
28262WAT     H185028   0.905   8.247   9.292
28262WAT     H285029   0.864   8.091   9.267
28263WAT      O85030   4.939   8.232   3.853
28263WAT     H185031   4.998   8.274   3.923
28263WAT     H285032   4.986   8.234   3.765
28264WAT      O85033   8.893   0.712   8.953
28264WAT     H185034   8.993   0.709   8.946
28264WAT     H285035   8.859   0.789   8.899
28265WAT      O85036   4.631   7.652   8.895
28265WAT     H185037   4.634   7.743   8.937
28265WAT     H285038   4.544   7.608   8.917
28266WAT      O85039   0.623   5.003   5.637
28266WAT     H185040   0.583   5.026   5.549
28266WAT     H285041   0.585   4.916   5.670
28267WAT      O85042   6.398   4.685   8.657
28267WAT     H185043   6.453   4.671   8.739
28267WAT     H285044   6.457   4.691   8.577
28268WAT      O85045   7.957   5.192   5.680
28268WAT     H185046   7.875   5.240   5.648
28268WAT     H285047   8.038   5.234   5.641
28269WAT      O85048   4.508   7.215   7.091
28269WAT     H185049   4.465   7.242   7.177
28269WAT     H285050   4.455   7.141   7.050
28270WAT      O85051   1.479   8.182   0.215
28270WAT     H185052   1.512   8.133   0.295
28270WAT     H285053   1.488   8.281   0.230
28271WAT      O85054   0.497   7.815   9.210
28271WAT     H185055   0.568   7.878   9.176
28271WAT     H285056   0.407   7.849   9.183
28272WAT      O85057   7.366   3.836   7.781
28272WAT     H185058   7.354   3.850   7.879
28272WAT     H285059   7.379   3.925   7.736
28273WAT      O85060   6.713   3.822   8.042
28273WAT     H185061   6.634   3.803   7.984
28273WAT     H285062   6.794   3.834   7.984
28274WAT      O85063   1.426   4.997   8.923
28274WAT     H185064   1.352   5.050   8.882
28274WAT     H285065   1.422   4.903   8.889
28275WAT      O85066   5.130   7.946   3.302
28275WAT     H185067   5.199   7.947   3.374
28275WAT     H285068   5.055   7.885   3.329
28276WAT      O85069   2.631   4.341   5.753
28276WAT     H185070   2.548   4.391   5.729
28276WAT     H285071   2.711   4.389   5.716
28277WAT      O85072   1.228   3.045   9.628
28277WAT     H185073   1.217   3.144   9.618
28277WAT     H285074   1.252   3.005   9.540
28278WAT      O85075   8.022   0.864   1.027
28278WAT     H185076   8.067   0.945   0.990
28278WAT     H285077   7.946   0.837   0.968
28279WAT      O85078   3.386   9.118   0.412
28279WAT     H185079   3.415   9.038   0.466
28279WAT     H285080   3.349   9.187   0.474
28280WAT      O85081   1.530   1.953   2.868
28280WAT     H185082   1.602   2.021   2.882
28280WAT     H285083   1.571   1.863   2.855
28281WAT      O85084   1.478   4.667   9.618
28281WAT     H185085   1.486   4.658   9.717
28281WAT     H285086   1.383   4.649   9.591
28282WAT      O85087   1.347   4.509   6.311
28282WAT     H185088   1.384   4.444   6.245
28282WAT     H285089   1.401   4.593   6.309
28283WAT      O85090   3.077   7.379   4.844
28283WAT     H185091   3.002   7.425   4.892
28283WAT     H285092   3.122   7.444   4.783
28284WAT      O85093   9.574   2.920   2.824
28284WAT     H185094   9.583   2.916   2.725
28284WAT     H285095   9.640   2.857   2.866
28285WAT      O85096   8.601   7.051   1.498
28285WAT     H185097   8.552   7.109   1.433
28285WAT     H285098   8.629   7.105   1.577
28286WAT      O85099   5.608   6.551   5.384
28286WAT     H185100   5.534   6.492   5.414
28286WAT     H285101   5.601   6.640   5.430
28287WAT      O85102   2.125   2.306   8.782
28287WAT     H185103   2.199   2.280   8.719
28287WAT     H285104   2.129   2.249   8.863
28288WAT      O85105   1.850   0.407   1.105
28288WAT     H185106   1.895   0.329   1.150
28288WAT     H285107   1.768   0.432   1.156
28289WAT      O85108   2.231   1.277   0.858
28289WAT     H185109   2.323   1.248   0.831
28289WAT     H285110   2.166   1.252   0.786
28290WAT      O85111   9.079   8.162   7.264
28290WAT     H185112   9.069   8.063   7.274
28290WAT     H285113   9.175   8.184   7.248
28291WAT      O85114   6.306   3.291   3.155
28291WAT     H185115   6.296   3.239   3.070
28291WAT     H285116   6.332   3.385   3.134
28292WAT      O85117   4.876   4.293   9.334
28292WAT     H185118   4.902   4.371   9.391
28292WAT     H285119   4.786   4.260   9.360
28293WAT      O85120   1.743   4.351   9.342
28293WAT     H185121   1.817   4.315   9.286
28293WAT     H285122   1.716   4.441   9.307
28294WAT      O85123   4.354   4.820   8.505
28294WAT     H185124   4.338   4.852   8.411
28294WAT     H285125   4.273   4.771   8.537
28295WAT      O85126   1.745   0.881   5.368
28295WAT     H185127   1.673   0.858   5.302
28295WAT     H285128   1.792   0.964   5.338
28296WAT      O85129   0.844   7.767   3.061
28296WAT     H185130   0.859   7.866   3.055
28296WAT     H285131   0.865   7.725   2.972
28297WAT      O85132   6.883   1.709   1.292
28297WAT     H185133   6.846   1.707   1.199
28297WAT     H285134   6.901   1.803   1.320
28298WAT      O85135   0.710   6.650   4.139
28298WAT     H185136   0.694   6.556   4.169
28298WAT     H285137   0.640   6.677   4.073
28299WAT      O85138   8.972   8.093   9.462
28299WAT     H185139   8.920   8.172   9.431
28299WAT     H285140   8.916   8.040   9.526
28300WAT      O85141   2.952   8.680   9.059
28300WAT     H185142   2.895   8.736   9.120
28300WAT     H285143   2.895   8.644   8.985
28301WAT      O85144   1.543   3.947   2.018
28301WAT     H185145   1.462   3.893   2.039
28301WAT     H285146   1.603   3.895   1.957
28302WAT      O85147   0.813   1.443   5.013
28302WAT     H185148   0.775   1.397   4.933
28302WAT     H285149   0.863   1.524   4.984
28303WAT      O85150   2.213   8.897   3.183
28303WAT     H185151   2.199   8.827   3.254
28303WAT     H285152   2.124   8.925   3.147
28304WAT      O85153   2.292   8.570   8.824
28304WAT     H185154   2.269   8.655   8.778
28304WAT     H285155   2.349   8.514   8.765
28305WAT      O85156   4.621   7.983   5.914
28305WAT     H185157   4.646   7.901   5.863
28305WAT     H285158   4.541   8.026   5.872
28306WAT      O85159   7.867   3.110   6.524
28306WAT     H185160   7.961   3.125   6.552
28306WAT     H285161   7.864   3.087   6.427
28307WAT      O85162   4.297   5.342   2.632
28307WAT     H185163   4.340   5.421   2.589
28307WAT     H285164   4.356   5.310   2.707
28308WAT      O85165   3.998   0.516   9.847
28308WAT     H185166   4.087   0.539   9.807
28308WAT     H285167   3.925   0.552   9.790
28309WAT      O85168   3.292   3.818   6.513
28309WAT     H185169   3.286   3.731   6.464
28309WAT     H285170   3.266   3.803   6.609
28310WAT      O85171   6.464   7.875   4.167
28310WAT     H185172   6.487   7.857   4.262
28310WAT     H285173   6.365   7.865   4.154
28311WAT      O85174   5.741   1.436   9.079
28311WAT     H185175   5.770   1.374   9.006
28311WAT     H285176   5.672   1.499   9.043
28312WAT      O85177   4.636   6.473   6.163
28312WAT     H185178   4.634   6.387   6.215
28312WAT     H285179   4.672   6.455   6.071
28313WAT      O85180   8.751   8.495   0.798
28313WAT     H185181   8.828   8.555   0.820
28313WAT     H285182   8.740   8.427   0.870
28314WAT      O85183   3.413   5.039   1.916
28314WAT     H185184   3.332   4.990   1.883
28314WAT     H285185   3.495   4.986   1.893
28315WAT      O85186   9.662   8.682   3.756
28315WAT     H185187   9.734   8.689   3.686
28315WAT     H285188   9.574   8.666   3.711
28316WAT      O85189   5.828   9.440   6.933
28316WAT     H185190   5.771   9.458   7.013
28316WAT     H285191   5.783   9.372   6.876
28317WAT      O85192   3.839   6.620   8.559
28317WAT     H185193   3.800   6.710   8.583
28317WAT     H285194   3.872   6.622   8.464
28318WAT      O85195   9.136   1.921   1.308
28318WAT     H185196   9.236   1.914   1.308
28318WAT     H285197   9.108   2.000   1.253
28319WAT      O85198   9.621   7.805   5.510
28319WAT     H185199   9.635   7.728   5.572
28319WAT     H285200   9.535   7.851   5.533
28320WAT      O85201   8.777   0.141   4.713
28320WAT     H185202   8.716   0.168   4.639
28320WAT     H285203   8.865   0.189   4.704
28321WAT      O85204   8.051   5.674   3.060
28321WAT     H185205   8.079   5.604   3.125
28321WAT     H285206   8.132   5.716   3.018
28322WAT      O85207   7.368   1.250   6.194
28322WAT     H185208   7.300   1.235   6.266
28322WAT     H285209   7.347   1.336   6.147
28323WAT      O85210   3.076   6.954   1.211
28323WAT     H185211   3.011   7.005   1.155
28323WAT     H285212   3.155   6.929   1.155
28324WAT      O85213   9.280   4.927   5.441
28324WAT     H185214   9.289   4.851   5.377
28324WAT     H285215   9.189   4.926   5.482
28325WAT      O85216   2.363   7.930   9.447
28325WAT     H185217   2.457   7.914   9.477
28325WAT     H285218   2.330   8.016   9.486
28326WAT      O85219   5.779   5.112   7.483
28326WAT     H185220   5.822   5.125   7.573
28326WAT     H285221   5.846   5.074   7.419
28327WAT      O85222   3.792   4.140   0.715
28327WAT     H185223   3.693   4.140   0.701
28327WAT     H285224   3.828   4.232   0.700
28328WAT      O85225   3.035   6.448   5.647
28328WAT     H185226   2.983   6.446   5.732
28328WAT     H285227   2.991   6.390   5.579
28329WAT      O85228   0.965   1.724   4.110
28329WAT     H185229   1.048   1.737   4.056
28329WAT     H285230   0.892   1.688   4.052
28330WAT      O85231   6.044   2.629   3.574
28330WAT     H185232   6.009   2.685   3.649
28330WAT     H285233   5.975   2.622   3.503
28331WAT      O85234   9.486   5.831   2.597
28331WAT     H185235   9.582   5.821   2.570
28331WAT     H285236   9.461   5.928   2.599
28332WAT      O85237   4.830   7.707   6.027
28332WAT     H185238   4.761   7.730   6.097
28332WAT     H285239   4.785   7.696   5.939
28333WAT      O85240   5.164   6.396   4.554
28333WAT     H185241   5.163   6.298   4.576
28333WAT     H285242   5.162   6.408   4.455
28334WAT      O85243   5.934   0.900   0.230
28334WAT     H185244   5.845   0.944   0.222
28334WAT     H285245   5.922   0.808   0.268
28335WAT      O85246   7.673   7.908   1.575
28335WAT     H185247   7.659   7.830   1.515
28335WAT     H285248   7.623   7.987   1.538
28336WAT      O85249   3.024   3.091   6.395
28336WAT     H185250   3.095   3.161   6.390
28336WAT     H285251   3.057   3.014   6.451
28337WAT      O85252   5.693   8.180   2.483
28337WAT     H185253   5.628   8.222   2.546
28337WAT     H285254   5.781   8.227   2.491
28338WAT      O85255   0.620   9.573   3.269
28338WAT     H185256   0.580   9.663   3.257
28338WAT     H285257   0.554   9.503   3.242
28339WAT      O85258   6.763   0.238   3.592
28339WAT     H185259   6.832   0.184   3.639
28339WAT     H285260   6.807   0.295   3.522
28340WAT      O85261   6.554   4.669   8.422
28340WAT     H185262   6.462   4.653   8.387
28340WAT     H285263   6.609   4.586   8.411
28341WAT      O85264   9.045   2.271   0.719
28341WAT     H185265   9.010   2.336   0.650
28341WAT     H285266   9.099   2.321   0.787
28342WAT      O85267   5.395   1.153   7.694
28342WAT     H185268   5.459   1.090   7.648
28342WAT     H285269   5.385   1.126   7.789
28343WAT      O85270   0.464   5.921   0.908
28343WAT     H185271   0.505   5.898   0.820
28343WAT     H285272   0.457   5.838   0.965
28344WAT      O85273   1.819   3.107   2.630
28344WAT     H185274   1.737   3.134   2.680
28344WAT     H285275   1.818   3.008   2.617
28345WAT      O85276   1.914   8.732   0.777
28345WAT     H185277   1.916   8.701   0.682
28345WAT     H285278   1.851   8.809   0.786
28346WAT      O85279   8.759   6.338   0.090
28346WAT     H185280   8.694   6.362   0.162
28346WAT     H285281   8.805   6.421   0.058
28347WAT      O85282   8.575   7.568   2.450
28347WAT     H185283   8.584   7.578   2.549
28347WAT     H285284   8.662   7.537   2.412
28348WAT      O85285   8.010   6.536   7.777
28348WAT     H185286   7.982   6.476   7.851
28348WAT     H285287   7.974   6.502   7.690
28349WAT      O85288   2.508   4.259   7.994
28349WAT     H185289   2.418   4.223   8.019
28349WAT     H285290   2.561   4.276   8.077
28350WAT      O85291   2.847   0.519   7.668
28350WAT     H185292   2.759   0.567   7.658
28350WAT     H285293   2.851   0.444   7.602
28351WAT      O85294   6.485   1.134   8.205
28351WAT     H185295   6.547   1.112   8.130
28351WAT     H285296   6.487   1.062   8.274
28352WAT      O85297   6.591   0.672   5.596
28352WAT     H185298   6.559   0.716   5.680
28352WAT     H285299   6.553   0.579   5.590
28353WAT      O85300   3.892   5.451   0.259
28353WAT     H185301   3.849   5.428   0.346
28353WAT     H285302   3.863   5.542   0.229
28354WAT      O85303   2.326   6.212   5.332
28354WAT     H185304   2.403   6.259   5.374
28354WAT     H285305   2.354   6.119   5.305
28355WAT      O85306   7.479   9.569   9.496
28355WAT     H185307   7.510   9.576   9.591
28355WAT     H285308   7.395   9.623   9.485
28356WAT      O85309   3.458   8.952   3.456
28356WAT     H185310   3.496   8.866   3.422
28356WAT     H285311   3.533   9.012   3.486
28357WAT      O85312   3.723   8.096   6.329
28357WAT     H185313   3.811   8.072   6.286
28357WAT     H285314   3.649   8.071   6.267
28358WAT      O85315   7.126   3.742   8.791
28358WAT     H185316   7.150   3.774   8.883
28358WAT     H285317   7.206   3.700   8.749
28359WAT      O85318   6.944   5.819   4.729
28359WAT     H185319   6.987   5.802   4.818
28359WAT     H285320   7.015   5.825   4.659
28360WAT      O85321   0.568   1.669   9.329
28360WAT     H185322   0.640   1.613   9.287
28360WAT     H285323   0.573   1.660   9.428
28361WAT      O85324   3.415   9.773   5.543
28361WAT     H185325   3.453   9.772   5.635
28361WAT     H285326   3.489   9.783   5.476
28362WAT      O85327   0.018   9.311   1.995
28362WAT     H185328   0.067   9.229   1.967
28362WAT     H285329   0.047   9.389   1.938
28363WAT      O85330   8.019   9.388   9.827
28363WAT     H185331   8.017   9.475   9.779
28363WAT     H285332   8.113   9.356   9.835
28364WAT      O85333   1.507   8.456   4.127
28364WAT     H185334   1.537   8.361   4.140
28364WAT     H285335   1.587   8.517   4.130
28365WAT      O85336   6.060   3.003   4.989
28365WAT     H185337   6.030   2.932   5.053
28365WAT     H285338   5.991   3.014   4.917
28366WAT      O85339   5.463   3.555   8.606
28366WAT     H185340   5.467   3.523   8.700
28366WAT     H285341   5.552   3.593   8.580
28367WAT      O85342   9.508   1.772   5.544
28367WAT     H185343   9.587   1.763   5.484
28367WAT     H285344   9.428   1.802   5.492
28368WAT      O85345   8.434   3.268   4.927
28368WAT     H185346   8.488   3.233   4.850
28368WAT     H285347   8.485   3.254   5.012
28369WAT      O85348   7.932   1.952   2.757
28369WAT     H185349   7.992   2.027   2.727
28369WAT     H285350   7.839   1.969   2.723
28370WAT      O85351   4.092   3.934   9.066
28370WAT     H185352   4.189   3.955   9.058
28370WAT     H285353   4.063   3.877   8.989
28371WAT      O85354   0.376   0.108   9.861
28371WAT     H185355   0.435   0.188   9.862
28371WAT     H285356   0.427   0.029   9.826
28372WAT      O85357   1.849   8.600   9.404
28372WAT     H185358   1.880   8.691   9.432
28372WAT     H285359   1.799   8.607   9.317
28373WAT      O85360   4.538   7.543   0.954
28373WAT     H185361   4.550   7.521   1.051
28373WAT     H285362   4.591   7.625   0.932
28374WAT      O85363   0.330   1.627   9.176
28374WAT     H185364   0.419   1.648   9.217
28374WAT     H285365   0.272   1.582   9.244
28375WAT      O85366   3.004   8.983   3.680
28375WAT     H185367   2.986   8.965   3.777
28375WAT     H285368   2.937   9.049   3.646
28376WAT      O85369   5.258   0.044   7.037
28376WAT     H185370   5.317  -0.036   7.039
28376WAT     H285371   5.285   0.108   7.108
28377WAT      O85372   9.040   4.558   6.268
28377WAT     H185373   9.091   4.629   6.317
28377WAT     H285374   9.053   4.470   6.314
28378WAT      O85375   2.666   6.812   0.582
28378WAT     H185376   2.579   6.830   0.629
28378WAT     H285377   2.713   6.898   0.564
28379WAT      O85378   7.294   5.278   3.872
28379WAT     H185379   7.321   5.210   3.941
28379WAT     H285380   7.343   5.259   3.787
28380WAT      O85381   1.933   4.686   8.039
28380WAT     H185382   2.016   4.686   8.095
28380WAT     H285383   1.957   4.697   7.943
28381WAT      O85384   9.342   4.213   1.725
28381WAT     H185385   9.269   4.258   1.673
28381WAT     H285386   9.425   4.210   1.670
28382WAT      O85387   7.226   1.496   2.225
28382WAT     H185388   7.168   1.528   2.150
28382WAT     H285389   7.265   1.575   2.273
28383WAT      O85390   3.387   9.200   3.734
28383WAT     H185391   3.297   9.223   3.696
28383WAT     H285392   3.386   9.107   3.770
28384WAT      O85393   8.601   6.876   9.099
28384WAT     H185394   8.593   6.853   9.196
28384WAT     H285395   8.523   6.837   9.049
28385WAT      O85396   8.169   6.569   3.007
28385WAT     H185397   8.200   6.481   3.042
28385WAT     H285398   8.240   6.638   3.020
28386WAT      O85399   8.104   9.753   2.283
28386WAT     H185400   8.056   9.841   2.287
28386WAT     H285401   8.046   9.683   2.325
28387WAT      O85402   7.296   0.852   4.902
28387WAT     H185403   7.296   0.951   4.918
28387WAT     H285404   7.355   0.807   4.968
28388WAT      O85405   3.689   4.390   1.951
28388WAT     H185406   3.676   4.474   1.900
28388WAT     H285407   3.721   4.318   1.890
28389WAT      O85408   8.243   6.064   0.054
28389WAT     H185409   8.308   6.007   0.004
28389WAT     H285410   8.188   6.117  -0.011
28390WAT      O85411   6.818   8.942   1.123
28390WAT     H185412   6.857   9.034   1.130
28390WAT     H285413   6.800   8.906   1.215
28391WAT      O85414   8.718   5.260   0.229
28391WAT     H185415   8.751   5.305   0.312
28391WAT     H285416   8.622   5.234   0.241
28392WAT      O85417   1.244   2.120   3.112
28392WAT     H185418   1.194   2.112   3.027
28392WAT     H285419   1.315   2.191   3.103
28393WAT      O85420   6.165   0.720   0.569
28393WAT     H185421   6.102   0.787   0.529
28393WAT     H285422   6.242   0.705   0.507
28394WAT      O85423   9.257   9.137   9.758
28394WAT     H185424   9.159   9.123   9.776
28394WAT     H285425   9.281   9.094   9.671
28395WAT      O85426   8.755   4.141   5.923
28395WAT     H185427   8.800   4.142   5.833
28395WAT     H285428   8.824   4.147   5.995
28396WAT      O85429   5.501   3.178   7.310
28396WAT     H185430   5.572   3.199   7.243
28396WAT     H285431   5.430   3.121   7.267
28397WAT      O85432   2.250   8.492   7.998
28397WAT     H185433   2.185   8.552   8.046
28397WAT     H285434   2.199   8.428   7.940
28398WAT      O85435   2.425   3.630   8.119
28398WAT     H185436   2.523   3.625   8.099
28398WAT     H285437   2.392   3.722   8.098
28399WAT      O85438   9.198   5.100   6.092
28399WAT     H185439   9.271   5.144   6.144
28399WAT     H285440   9.208   5.121   5.995
28400WAT      O85441   4.181   9.727   9.717
28400WAT     H185442   4.216   9.797   9.655
28400WAT     H285443   4.118   9.667   9.669
28401WAT      O85444   9.791   8.210   9.426
28401WAT     H185445   9.693   8.204   9.407
28401WAT     H285446   9.809   8.293   9.478
28402WAT      O85447   9.571   5.830   3.086
28402WAT     H185448   9.594   5.736   3.061
28402WAT     H285449   9.486   5.857   3.040
28403WAT      O85450   4.849   2.891   7.897
28403WAT     H185451   4.836   2.868   7.993
28403WAT     H285452   4.947   2.902   7.879
28404WAT      O85453   9.200   9.508   9.818
28404WAT     H185454   9.267   9.451   9.866
28404WAT     H285455   9.138   9.450   9.766
28405WAT      O85456   8.946   2.793   1.175
28405WAT     H185457   8.969   2.702   1.209
28405WAT     H285458   9.030   2.846   1.164
28406WAT      O85459   4.149   5.766   7.637
28406WAT     H185460   4.236   5.802   7.670
28406WAT     H285461   4.090   5.841   7.610
28407WAT      O85462   1.998   5.878   4.495
28407WAT     H185463   1.950   5.852   4.412
28407WAT     H285464   2.096   5.861   4.484
28408WAT      O85465   1.628   0.702   4.129
28408WAT     H185466   1.533   0.731   4.113
28408WAT     H285467   1.642   0.689   4.228
28409WAT      O85468   0.413   4.104   9.109
28409WAT     H185469   0.314   4.097   9.097
28409WAT     H285470   0.443   4.195   9.077
28410WAT      O85471   9.325   3.494   8.315
28410WAT     H185472   9.378   3.574   8.343
28410WAT     H285473   9.353   3.466   8.223
28411WAT      O85474   9.544   0.639   3.257
28411WAT     H185475   9.573   0.722   3.305
28411WAT     H285476   9.470   0.596   3.308
28412WAT      O85477   1.884   7.069   3.907
28412WAT     H185478   1.882   6.981   3.859
28412WAT     H285479   1.922   7.055   3.999
28413WAT      O85480   1.966   6.787   1.938
28413WAT     H185481   1.962   6.836   2.025
28413WAT     H285482   2.037   6.716   1.943
28414WAT      O85483   3.810   9.548   8.197
28414WAT     H185484   3.820   9.647   8.187
28414WAT     H285485   3.845   9.503   8.115
28415WAT      O85486   4.566   1.755   7.039
28415WAT     H185487   4.646   1.814   7.029
28415WAT     H285488   4.596   1.660   7.049
28416WAT      O85489   5.967   4.730   3.168
28416WAT     H185490   5.893   4.732   3.234
28416WAT     H285491   6.004   4.637   3.161
28417WAT      O85492   9.652   2.617   5.895
28417WAT     H185493   9.686   2.526   5.870
28417WAT     H285494   9.695   2.686   5.836
28418WAT      O85495   6.740   2.081   6.925
28418WAT     H185496   6.793   2.017   6.980
28418WAT     H285497   6.724   2.043   6.834
28419WAT      O85498   6.938   2.346   0.862
28419WAT     H185499   6.900   2.299   0.942
28419WAT     H285500   7.006   2.288   0.818
28420WAT      O85501   7.223   0.486   6.434
28420WAT     H185502   7.212   0.387   6.441
28420WAT     H285503   7.318   0.508   6.412
28421WAT      O85504   2.565   0.593   5.607
28421WAT     H185505   2.555   0.638   5.696
28421WAT     H285506   2.661   0.589   5.582
28422WAT      O85507   1.690   5.822   3.516
28422WAT     H185508   1.624   5.769   3.569
28422WAT     H285509   1.723   5.899   3.572
28423WAT      O85510   4.428   6.709   5.566
28423WAT     H185511   4.497   6.641   5.588
28423WAT     H285512   4.442   6.742   5.472
28424WAT      O85513   2.306   3.134   5.709
28424WAT     H185514   2.266   3.051   5.670
28424WAT     H285515   2.406   3.128   5.706
28425WAT      O85516   6.633   1.869   0.151
28425WAT     H185517   6.612   1.876   0.248
28425WAT     H285518   6.722   1.911   0.132
28426WAT      O85519   4.557   5.053   1.302
28426WAT     H185520   4.496   5.005   1.364
28426WAT     H285521   4.644   5.072   1.348
28427WAT      O85522   7.343   9.139   8.994
28427WAT     H185523   7.319   9.112   8.900
28427WAT     H285524   7.437   9.172   8.996
28428WAT      O85525   0.651   5.830   6.938
28428WAT     H185526   0.607   5.794   7.020
28428WAT     H285527   0.737   5.782   6.922
28429WAT      O85528   7.766   7.650   5.642
28429WAT     H185529   7.793   7.555   5.658
28429WAT     H285530   7.780   7.703   5.726
28430WAT      O85531   0.102   4.292   2.533
28430WAT     H185532   0.189   4.304   2.485
28430WAT     H285533   0.064   4.202   2.511
28431WAT      O85534   8.762   6.643   0.426
28431WAT     H185535   8.726   6.602   0.510
28431WAT     H285536   8.697   6.628   0.352
28432WAT      O85537   9.233   8.420   9.056
28432WAT     H185538   9.138   8.391   9.073
28432WAT     H285539   9.249   8.427   8.958
28433WAT      O85540   2.414   9.147   3.068
28433WAT     H185541   2.405   9.230   3.013
28433WAT     H285542   2.394   9.067   3.012
28434WAT      O85543   3.148   4.738   2.280
28434WAT     H185544   3.193   4.827   2.296
28434WAT     H285545   3.051   4.745   2.303
28435WAT      O85546   6.356   0.362   3.979
28435WAT     H185547   6.399   0.324   3.897
28435WAT     H285548   6.258   0.343   3.976
28436WAT      O85549   3.398   7.532   3.610
28436WAT     H185550   3.480   7.480   3.587
28436WAT     H285551   3.339   7.538   3.529
28437WAT      O85552   7.377   4.206   5.809
28437WAT     H185553   7.450   4.250   5.756
28437WAT     H285554   7.311   4.165   5.746
28438WAT      O85555   8.754   0.713   7.384
28438WAT     H185556   8.688   0.779   7.419
28438WAT     H285557   8.715   0.668   7.303
28439WAT      O85558   8.628   2.220   1.183
28439WAT     H185559   8.697   2.252   1.119
28439WAT     H285560   8.549   2.186   1.133
28440WAT      O85561   1.411   9.580   8.813
28440WAT     H185562   1.352   9.548   8.887
28440WAT     H285563   1.391   9.529   8.730
28441WAT      O85564   1.385   5.896   5.734
28441WAT     H185565   1.356   5.807   5.698
28441WAT     H285566   1.338   5.969   5.685
28442WAT      O85567   3.650   0.710   6.327
28442WAT     H185568   3.557   0.746   6.328
28442WAT     H285569   3.703   0.753   6.399
28443WAT      O85570   8.201   5.484   9.799
28443WAT     H185571   8.272   5.555   9.807
28443WAT     H285572   8.111   5.527   9.798
28444WAT      O85573   6.068   1.567   4.702
28444WAT     H185574   6.073   1.478   4.748
28444WAT     H285575   6.097   1.639   4.765
28445WAT      O85576   8.176   3.529   5.475
28445WAT     H185577   8.134   3.538   5.565
28445WAT     H285578   8.122   3.579   5.408
28446WAT      O85579   2.714   2.938   6.335
28446WAT     H185580   2.756   2.955   6.424
28446WAT     H285581   2.779   2.958   6.262
28447WAT      O85582   4.232   8.475   2.769
28447WAT     H185583   4.232   8.390   2.717
28447WAT     H285584   4.172   8.542   2.725
28448WAT      O85585   9.735   9.677   8.915
28448WAT     H185586   9.670   9.607   8.886
28448WAT     H285587   9.828   9.649   8.888
28449WAT      O85588   3.746   5.274   9.743
28449WAT     H185589   3.657   5.244   9.708
28449WAT     H285590   3.759   5.237   9.835
28450WAT      O85591   5.649   4.029   2.199
28450WAT     H185592   5.565   4.012   2.147
28450WAT     H285593   5.630   4.026   2.297
28451WAT      O85594   4.740   3.690   5.750
28451WAT     H185595   4.777   3.663   5.839
28451WAT     H285596   4.641   3.682   5.752
28452WAT      O85597   7.903   1.844   7.222
28452WAT     H185598   7.868   1.756   7.256
28452WAT     H285599   7.883   1.915   7.288
28453WAT      O85600   9.132   1.240   2.497
28453WAT     H185601   9.194   1.252   2.574
28453WAT     H285602   9.091   1.328   2.473
28454WAT      O85603   8.840   7.590   5.174
28454WAT     H185604   8.757   7.560   5.128
28454WAT     H285605   8.890   7.653   5.115
28455WAT      O85606   1.901   3.449   2.218
28455WAT     H185607   1.941   3.411   2.135
28455WAT     H285608   1.953   3.530   2.246
28456WAT      O85609   6.236   5.306   5.104
28456WAT     H185610   6.143   5.308   5.065
28456WAT     H285611   6.298   5.355   5.043
28457WAT      O85612   0.007   8.731   0.121
28457WAT     H185613  -0.011   8.827   0.099
28457WAT     H285614  -0.075   8.690   0.161
28458WAT      O85615   4.226   3.432   1.707
28458WAT     H185616   4.246   3.529   1.722
28458WAT     H285617   4.161   3.400   1.776
28459WAT      O85618   2.175   2.925   6.156
28459WAT     H185619   2.198   2.984   6.079
28459WAT     H285620   2.121   2.977   6.223
28460WAT      O85621   5.967   9.503   2.195
28460WAT     H185622   5.929   9.596   2.192
28460WAT     H285623   6.057   9.503   2.153
28461WAT      O85624   8.385   3.451   6.795
28461WAT     H185625   8.307   3.389   6.806
28461WAT     H285626   8.372   3.532   6.851
28462WAT      O85627   8.405   7.092   4.765
28462WAT     H185628   8.474   7.056   4.702
28462WAT     H285629   8.314   7.080   4.725
28463WAT      O85630   8.051   3.535   5.737
28463WAT     H185631   8.033   3.437   5.727
28463WAT     H285632   8.006   3.569   5.820
28464WAT      O85633   9.642   4.208   4.970
28464WAT     H185634   9.726   4.183   5.018
28464WAT     H285635   9.666   4.247   4.880
28465WAT      O85636   3.841   6.257   7.086
28465WAT     H185637   3.755   6.306   7.102
28465WAT     H285638   3.831   6.162   7.116
28466WAT      O85639   1.349   3.684   1.103
28466WAT     H185640   1.250   3.701   1.107
28466WAT     H285641   1.388   3.735   1.026
28467WAT      O85642   2.985   7.522   8.631
28467WAT     H185643   2.898   7.572   8.622
28467WAT     H285644   3.033   7.553   8.713
28468WAT      O85645   3.304   1.797   7.513
28468WAT     H185646   3.236   1.818   7.443
28468WAT     H285647   3.286   1.853   7.594
28469WAT      O85648   3.543   6.393   0.974
28469WAT     H185649   3.628   6.416   0.926
28469WAT     H285650   3.465   6.406   0.913
28470WAT      O85651   5.344   4.007   0.552
28470WAT     H185652   5.349   4.101   0.521
28470WAT     H285653   5.395   3.997   0.637
28471WAT      O85654   6.619   4.053   7.238
28471WAT     H185655   6.579   3.990   7.305
28471WAT     H285656   6.692   4.106   7.283
28472WAT      O85657   4.320   0.365   6.784
28472WAT     H185658   4.325   0.464   6.773
28472WAT     H285659   4.237   0.330   6.739
28473WAT      O85660   4.742   6.928   8.430
28473WAT     H185661   4.725   7.026   8.441
28473WAT     H285662   4.719   6.900   8.337
28474WAT      O85663   0.339   3.247   8.192
28474WAT     H185664   0.390   3.300   8.124
28474WAT     H285665   0.367   3.151   8.188
28475WAT      O85666   0.139   3.336   8.472
28475WAT     H185667   0.156   3.406   8.403
28475WAT     H285668   0.134   3.380   8.562
28476WAT      O85669   4.213   2.573   2.225
28476WAT     H185670   4.136   2.541   2.169
28476WAT     H285671   4.190   2.663   2.263
28477WAT      O85672   4.691   1.100   7.160
28477WAT     H185673   4.761   1.115   7.229
28477WAT     H285674   4.663   1.004   7.162
28478WAT      O85675   6.627   3.601   6.910
28478WAT     H185676   6.671   3.536   6.849
28478WAT     H285677   6.696   3.655   6.957
28479WAT      O85678   0.806   6.155   9.630
28479WAT     H185679   0.766   6.170   9.720
28479WAT     H285680   0.735   6.166   9.560
28480WAT      O85681   9.188   6.608   1.483
28480WAT     H185682   9.280   6.573   1.463
28480WAT     H285683   9.165   6.587   1.578
28481WAT      O85684   8.732   0.616   0.528
28481WAT     H185685   8.750   0.538   0.589
28481WAT     H285686   8.658   0.593   0.466
28482WAT      O85687   2.841   5.147   8.907
28482WAT     H185688   2.901   5.188   8.976
28482WAT     H285689   2.748   5.180   8.921
28483WAT      O85690   2.835   6.786   6.861
28483WAT     H185691   2.856   6.776   6.764
28483WAT     H285692   2.845   6.882   6.888
28484WAT      O85693   6.430   4.237   0.676
28484WAT     H185694   6.527   4.216   0.690
28484WAT     H285695   6.381   4.220   0.762
28485WAT      O85696   6.407   7.616   8.321
28485WAT     H185697   6.476   7.627   8.250
28485WAT     H285698   6.445   7.564   8.397
28486WAT      O85699   7.823   3.197   0.294
28486WAT     H185700   7.848   3.150   0.379
28486WAT     H285701   7.794   3.129   0.226
28487WAT      O85702   8.031   5.810   2.407
28487WAT     H185703   8.061   5.854   2.322
28487WAT     H285704   8.057   5.714   2.407
28488WAT      O85705   8.006   4.833   1.633
28488WAT     H185706   8.027   4.916   1.685
28488WAT     H285707   8.018   4.851   1.536
28489WAT      O85708   7.395   9.581   3.480
28489WAT     H185709   7.415   9.521   3.402
28489WAT     H285710   7.440   9.545   3.562
28490WAT      O85711   5.339   4.206   9.041
28490WAT     H185712   5.282   4.282   9.008
28490WAT     H285713   5.435   4.235   9.043
28491WAT      O85714   5.057   5.122   5.583
28491WAT     H185715   5.061   5.035   5.631
28491WAT     H285716   4.973   5.128   5.530
28492WAT      O85717   6.395   9.274   6.583
28492WAT     H185718   6.484   9.285   6.628
28492WAT     H285719   6.386   9.343   6.510
28493WAT      O85720   1.875   7.264   6.675
28493WAT     H185721   1.931   7.298   6.751
28493WAT     H285722   1.896   7.316   6.593
28494WAT      O85723   2.971   0.618   0.019
28494WAT     H185724   2.979   0.686  -0.054
28494WAT     H285725   2.917   0.657   0.095
28495WAT      O85726   8.731   9.259   3.514
28495WAT     H185727   8.667   9.270   3.590
28495WAT     H285728   8.820   9.231   3.548
28496WAT      O85729   4.814   3.089   7.442
28496WAT     H185730   4.723   3.110   7.406
28496WAT     H285731   4.814   3.103   7.541
28497WAT      O85732   1.040   6.608   0.147
28497WAT     H185733   1.106   6.551   0.098
28497WAT     H285734   1.081   6.641   0.232
28498WAT      O85735   3.827   5.182   5.129
28498WAT     H185736   3.914   5.194   5.081
28498WAT     H285737   3.835   5.216   5.223
28499WAT      O85738   6.231   8.868   5.009
28499WAT     H185739   6.152   8.836   5.062
28499WAT     H285740   6.307   8.805   5.021
28500WAT      O85741   0.991   9.466   0.134
28500WAT     H185742   0.965   9.518   0.052
28500WAT     H285743   1.013   9.372   0.107
28501WAT      O85744   8.958   3.516   6.636
28501WAT     H185745   8.902   3.568   6.571
28501WAT     H285746   9.006   3.442   6.587
28502WAT      O85747   6.285   4.793   4.774
28502WAT     H185748   6.292   4.890   4.799
28502WAT     H285749   6.350   4.773   4.701
28503WAT      O85750   2.078   8.239   2.869
28503WAT     H185751   2.110   8.150   2.835
28503WAT     H285752   1.988   8.258   2.830
28504WAT      O85753   8.095   0.836   5.822
28504WAT     H185754   8.002   0.842   5.858
28504WAT     H285755   8.116   0.918   5.769
28505WAT      O85756   6.391   2.226   5.956
28505WAT     H185757   6.423   2.303   5.901
28505WAT     H285758   6.436   2.142   5.925
28506WAT      O85759   5.777   1.867   9.590
28506WAT     H185760   5.776   1.965   9.611
28506WAT     H285761   5.755   1.815   9.672
28507WAT      O85762   4.116   6.527   5.252
28507WAT     H185763   4.142   6.507   5.347
28507WAT     H285764   4.068   6.614   5.249
28508WAT      O85765   3.870   5.315   0.830
28508WAT     H185766   3.848   5.337   0.925
28508WAT     H285767   3.786   5.291   0.781
28509WAT      O85768   1.846   8.851   5.909
28509WAT     H185769   1.872   8.914   5.982
28509WAT     H285770   1.788   8.899   5.843
28510WAT      O85771   7.316   3.239   7.925
28510WAT     H185772   7.282   3.274   8.012
28510WAT     H285773   7.328   3.139   7.932
28511WAT      O85774   5.482   2.721   0.058
28511WAT     H185775   5.506   2.812   0.090
28511WAT     H285776   5.427   2.674   0.127
28512WAT      O85777   4.308   4.499   0.967
28512WAT     H185778   4.313   4.504   1.067
28512WAT     H285779   4.217   4.469   0.940
28513WAT      O85780   0.516   4.931   7.433
28513WAT     H185781   0.494   4.845   7.479
28513WAT     H285782   0.600   4.969   7.473
28514WAT      O85783   8.332   0.100   8.156
28514WAT     H185784   8.297   0.184   8.196
28514WAT     H285785   8.266   0.065   8.089
28515WAT      O85786   4.513   1.371   8.683
28515WAT     H185787   4.491   1.429   8.762
28515WAT     H285788   4.436   1.372   8.619
28516WAT      O85789   9.444   7.888   1.889
28516WAT     H185790   9.395   7.906   1.804
28516WAT     H285791   9.472   7.792   1.892
28517WAT      O85792   8.016   5.452   0.559
28517WAT     H185793   7.987   5.357   0.564
28517WAT     H285794   8.084   5.463   0.486
28518WAT      O85795   1.728   3.032   5.346
28518WAT     H185796   1.741   2.933   5.354
28518WAT     H285797   1.816   3.078   5.346
28519WAT      O85798   1.424   5.951   6.008
28519WAT     H185799   1.408   5.938   5.911
28519WAT     H285800   1.444   5.863   6.051
28520WAT      O85801   8.220   8.582   2.941
28520WAT     H185802   8.224   8.578   3.041
28520WAT     H285803   8.303   8.540   2.903
28521WAT      O85804   9.054   4.645   1.444
28521WAT     H185805   8.973   4.596   1.414
28521WAT     H285806   9.054   4.737   1.405
28522WAT      O85807   7.093   6.516   3.144
28522WAT     H185808   7.026   6.565   3.199
28522WAT     H285809   7.085   6.545   3.049
28523WAT      O85810   1.431   5.806   4.290
28523WAT     H185811   1.516   5.776   4.332
28523WAT     H285812   1.389   5.878   4.346
28524WAT      O85813   3.359   9.346   2.611
28524WAT     H185814   3.276   9.364   2.665
28524WAT     H285815   3.334   9.337   2.514
28525WAT      O85816   8.890   4.740   5.173
28525WAT     H185817   8.968   4.728   5.111
28525WAT     H285818   8.883   4.836   5.199
28526WAT      O85819   0.147   8.839   0.537
28526WAT     H185820   0.140   8.744   0.507
28526WAT     H285821   0.243   8.863   0.551
28527WAT      O85822   9.330   2.149   0.694
28527WAT     H185823   9.333   2.085   0.771
28527WAT     H285824   9.236   2.179   0.679
28528WAT      O85825   0.117   8.100   1.384
28528WAT     H185826   0.123   8.107   1.484
28528WAT     H285827   0.039   8.042   1.359
28529WAT      O85828   6.500   4.259   4.395
28529WAT     H185829   6.453   4.342   4.363
28529WAT     H285830   6.459   4.228   4.480
28530WAT      O85831   5.548   5.957   9.519
28530WAT     H185832   5.630   6.011   9.498
28530WAT     H285833   5.574   5.865   9.548
28531WAT      O85834   1.637   9.074   5.873
28531WAT     H185835   1.552   9.067   5.821
28531WAT     H285836   1.651   9.168   5.904
28532WAT      O85837   8.063   5.917   8.228
28532WAT     H185838   8.152   5.907   8.273
28532WAT     H285839   8.058   5.856   8.150
28533WAT      O85840   1.930   1.796   8.204
28533WAT     H185841   1.943   1.893   8.184
28533WAT     H285842   1.840   1.782   8.244
28534WAT      O85843   3.122   4.525   1.322
28534WAT     H185844   3.078   4.448   1.368
28534WAT     H285845   3.139   4.598   1.389
28535WAT      O85846   7.780   0.030   0.831
28535WAT     H185847   7.732   0.116   0.815
28535WAT     H285848   7.722  -0.030   0.887
28536WAT      O85849   3.379   8.208   9.499
28536WAT     H185850   3.432   8.140   9.448
28536WAT     H285851   3.399   8.300   9.463
28537WAT      O85852   2.228   3.367   2.191
28537WAT     H185853   2.258   3.393   2.100
28537WAT     H285854   2.166   3.289   2.185
28538WAT      O85855   8.765   2.838   3.086
28538WAT     H185856   8.680   2.889   3.098
28538WAT     H285857   8.842   2.898   3.109
28539WAT      O85858   2.256   1.810   8.586
28539WAT     H185859   2.185   1.872   8.619
28539WAT     H285860   2.217   1.718   8.575
28540WAT      O85861   1.137   8.505   8.176
28540WAT     H185862   1.147   8.420   8.229
28540WAT     H285863   1.045   8.541   8.188
28541WAT      O85864   3.832   5.036   4.334
28541WAT     H185865   3.836   4.953   4.278
28541WAT     H285866   3.884   5.022   4.418
28542WAT      O85867   0.234   9.768   4.942
28542WAT     H185868   0.329   9.787   4.966
28542WAT     H285869   0.192   9.851   4.904
28543WAT      O85870   5.038   2.091   2.835
28543WAT     H185871   5.080   2.031   2.767
28543WAT     H285872   4.946   2.117   2.804
28544WAT      O85873   5.335   8.885   2.749
28544WAT     H185874   5.353   8.831   2.831
28544WAT     H285875   5.351   8.982   2.769
28545WAT      O85876   7.241   6.942   3.260
28545WAT     H185877   7.257   6.869   3.193
28545WAT     H285878   7.154   6.926   3.306
28546WAT      O85879   5.604   3.573   3.113
28546WAT     H185880   5.532   3.546   3.178
28546WAT     H285881   5.661   3.493   3.092
28547WAT      O85882   6.888   8.799   6.226
28547WAT     H185883   6.988   8.799   6.223
28547WAT     H285884   6.852   8.851   6.149
28548WAT      O85885   3.850   7.923   0.932
28548WAT     H185886   3.794   7.895   1.010
28548WAT     H285887   3.793   7.926   0.850
28549WAT      O85888   8.802   1.929   6.532
28549WAT     H185889   8.775   1.993   6.460
28549WAT     H285890   8.870   1.865   6.496
28550WAT      O85891   8.549   5.207   6.738
28550WAT     H185892   8.595   5.118   6.735
28550WAT     H285893   8.597   5.267   6.802
28551WAT      O85894   7.581   6.495   1.739
28551WAT     H185895   7.494   6.448   1.724
28551WAT     H285896   7.599   6.557   1.662
28552WAT      O85897   8.546   9.513   8.230
28552WAT     H185898   8.569   9.457   8.309
28552WAT     H285899   8.446   9.516   8.218
28553WAT      O85900   5.505   3.608   2.757
28553WAT     H185901   5.573   3.660   2.807
28553WAT     H285902   5.441   3.672   2.713
28554WAT      O85903   1.674   6.261   7.613
28554WAT     H185904   1.771   6.264   7.634
28554WAT     H285905   1.637   6.170   7.634
28555WAT      O85906   3.381   5.505   4.011
28555WAT     H185907   3.474   5.538   4.025
28555WAT     H285908   3.383   5.416   3.965
28556WAT      O85909   5.266   1.282   9.816
28556WAT     H185910   5.191   1.305   9.754
28556WAT     H285911   5.304   1.366   9.855
28557WAT      O85912   7.961   9.258   1.557
28557WAT     H185913   7.936   9.354   1.575
28557WAT     H285914   7.942   9.202   1.637
28558WAT      O85915   8.307   3.884   0.714
28558WAT     H185916   8.332   3.911   0.621
28558WAT     H285917   8.342   3.792   0.733
28559WAT      O85918   7.929   5.193   8.961
28559WAT     H185919   7.846   5.172   9.013
28559WAT     H285920   7.904   5.222   8.869
28560WAT      O85921   9.581   4.650   0.350
28560WAT     H185922   9.641   4.581   0.309
28560WAT     H285923   9.486   4.619   0.345
28561WAT      O85924   1.295   0.095   7.101
28561WAT     H185925   1.358   0.120   7.174
28561WAT     H285926   1.202   0.095   7.136
28562WAT      O85927   1.087   0.622   4.198
28562WAT     H185928   0.993   0.616   4.163
28562WAT     H285929   1.119   0.530   4.223
28563WAT      O85930   8.291   6.705   9.687
28563WAT     H185931   8.326   6.756   9.608
28563WAT     H285932   8.296   6.763   9.768
28564WAT      O85933   4.550   0.401   8.697
28564WAT     H185934   4.566   0.372   8.603
28564WAT     H285935   4.455   0.432   8.707
28565WAT      O85936   3.404   1.431   9.071
28565WAT     H185937   3.503   1.438   9.080
28565WAT     H285938   3.370   1.361   9.135
28566WAT      O85939   8.774   4.856   2.607
28566WAT     H185940   8.818   4.770   2.633
28566WAT     H285941   8.757   4.856   2.508
28567WAT      O85942   6.419   2.476   0.439
28567WAT     H185943   6.512   2.502   0.415
28567WAT     H285944   6.419   2.384   0.479
28568WAT      O85945   5.518   5.917   0.316
28568WAT     H185946   5.496   5.983   0.388
28568WAT     H285947   5.599   5.949   0.266
28569WAT      O85948   0.909   3.723   7.426
28569WAT     H185949   0.953   3.737   7.515
28569WAT     H285950   0.973   3.675   7.365
28570WAT      O85951   7.289   2.233   4.052
28570WAT     H185952   7.257   2.156   4.106
28570WAT     H285953   7.222   2.307   4.055
28571WAT      O85954   0.127   2.090   3.549
28571WAT     H185955   0.177   2.143   3.481
28571WAT     H285956   0.146   1.993   3.537
28572WAT      O85957   7.453   6.831   7.689
28572WAT     H185958   7.382   6.898   7.669
28572WAT     H285959   7.495   6.854   7.777
28573WAT      O85960   4.276   2.504   3.735
28573WAT     H185961   4.372   2.531   3.736
28573WAT     H285962   4.266   2.417   3.784
28574WAT      O85963   2.393   9.653   0.456
28574WAT     H185964   2.463   9.586   0.477
28574WAT     H285965   2.366   9.645   0.360
28575WAT      O85966   0.866   4.323   7.670
28575WAT     H185967   0.926   4.332   7.750
28575WAT     H285968   0.818   4.236   7.675
28576WAT      O85969   7.024   7.098   0.786
28576WAT     H185970   7.100   7.130   0.842
28576WAT     H285971   6.947   7.073   0.845
28577WAT      O85972   6.449   7.640   3.837
28577WAT     H185973   6.406   7.635   3.747
28577WAT     H285974   6.397   7.584   3.902
28578WAT      O85975   3.507   3.787   1.999
28578WAT     H185976   3.408   3.769   1.996
28578WAT     H285977   3.534   3.807   2.093
28579WAT      O85978   5.797   7.610   7.630
28579WAT     H185979   5.727   7.541   7.614
28579WAT     H285980   5.881   7.566   7.661
28580WAT      O85981   6.896   3.646   9.627
28580WAT     H185982   6.989   3.608   9.630
28580WAT     H285983   6.834   3.584   9.676
28581WAT      O85984   1.058   0.569   1.754
28581WAT     H185985   0.981   0.616   1.711
28581WAT     H285986   1.049   0.470   1.740
28582WAT      O85987   7.682   4.171   9.373
28582WAT     H185988   7.670   4.148   9.469
28582WAT     H285989   7.753   4.113   9.333
28583WAT      O85990   0.890   2.050   3.873
28583WAT     H185991   0.977   2.099   3.878
28583WAT     H285992   0.907   1.951   3.872
28584WAT      O85993   9.634   3.952   3.453
28584WAT     H185994   9.697   3.950   3.375
28584WAT     H285995   9.541   3.930   3.422
28585WAT      O85996   5.964   4.138   8.278
28585WAT     H185997   6.047   4.193   8.267
28585WAT     H285998   5.897   4.165   8.208
28586WAT      O85999   0.486   4.549   6.179
28586WAT     H186000   0.505   4.636   6.133
28586WAT     H286001   0.504   4.559   6.277
28587WAT      O86002   6.325   4.234   5.614
28587WAT     H186003   6.420   4.264   5.603
28587WAT     H286004   6.314   4.146   5.569
28588WAT      O86005   5.255   3.103   6.869
28588WAT     H186006   5.194   3.075   6.795
28588WAT     H286007   5.334   3.152   6.831
28589WAT      O86008  -0.001   3.891   4.686
28589WAT     H186009   0.022   3.810   4.631
28589WAT     H286010   0.033   3.880   4.779
28590WAT      O86011   9.395   5.823   0.291
28590WAT     H186012   9.323   5.819   0.361
28590WAT     H286013   9.440   5.735   0.285
28591WAT      O86014   1.649   6.406   2.334
28591WAT     H186015   1.558   6.442   2.313
28591WAT     H286016   1.719   6.468   2.296
28592WAT      O86017   0.926   8.241   7.954
28592WAT     H186018   0.977   8.227   7.869
28592WAT     H286019   0.906   8.338   7.966
28593WAT      O86020   0.488   2.062   3.951
28593WAT     H186021   0.536   2.018   3.875
28593WAT     H286022   0.535   2.041   4.036
28594WAT      O86023   6.409   7.558   1.603
28594WAT     H186024   6.411   7.463   1.634
28594WAT     H286025   6.319   7.578   1.564
28595WAT      O86026   5.921   6.692   6.657
28595WAT     H186027   6.014   6.661   6.677
28595WAT     H286028   5.860   6.663   6.730
28596WAT      O86029   3.353   6.272   6.954
28596WAT     H186030   3.341   6.250   7.050
28596WAT     H286031   3.288   6.219   6.899
28597WAT      O86032   9.586   7.000   1.080
28597WAT     H186033   9.665   7.008   1.020
28597WAT     H286034   9.531   6.921   1.052
28598WAT      O86035   5.846   4.113   1.835
28598WAT     H186036   5.848   4.146   1.929
28598WAT     H286037   5.904   4.171   1.777
28599WAT      O86038   2.221   2.033   6.803
28599WAT     H186039   2.290   2.104   6.787
28599WAT     H286040   2.264   1.955   6.849
28600WAT      O86041   8.562   6.765   7.465
28600WAT     H186042   8.539   6.668   7.469
28600WAT     H286043   8.624   6.788   7.540
28601WAT      O86044   4.509   0.589   7.099
28601WAT     H186045   4.593   0.541   7.073
28601WAT     H286046   4.456   0.608   7.016
28602WAT      O86047   4.102   6.750   6.044
28602WAT     H186048   4.008   6.781   6.026
28602WAT     H286049   4.100   6.669   6.103
28603WAT      O86050   1.940   3.151   8.702
28603WAT     H186051   1.914   3.067   8.749
28603WAT     H286052   1.979   3.129   8.613
28604WAT      O86053   0.226   3.222   7.798
28604WAT     H186054   0.303   3.162   7.820
28604WAT     H286055   0.195   3.203   7.705
28605WAT      O86056   9.356   0.742   8.737
28605WAT     H186057   9.389   0.835   8.717
28605WAT     H286058   9.326   0.698   8.653
28606WAT      O86059   6.583   4.033   8.569
28606WAT     H186060   6.552   3.978   8.491
28606WAT     H286061   6.674   4.071   8.549
28607WAT      O86062   9.708   9.342   5.992
28607WAT     H186063   9.619   9.303   5.970
28607WAT     H286064   9.780   9.277   5.970
28608WAT      O86065   0.995   3.797   8.099
28608WAT     H186066   0.953   3.850   8.172
28608WAT     H286067   1.072   3.745   8.136
28609WAT      O86068   4.790   6.985   1.138
28609WAT     H186069   4.795   6.967   1.236
28609WAT     H286070   4.701   7.025   1.116
28610WAT      O86071   1.933   2.628   7.887
28610WAT     H186072   2.004   2.583   7.942
28610WAT     H286073   1.975   2.699   7.831
28611WAT      O86074   8.944   3.215   9.661
28611WAT     H186075   8.895   3.165   9.589
28611WAT     H286076   9.034   3.173   9.675
28612WAT      O86077   1.036   5.337   6.874
28612WAT     H186078   1.002   5.249   6.909
28612WAT     H286079   0.969   5.377   6.812
28613WAT      O86080   0.476   5.053   2.104
28613WAT     H186081   0.478   5.082   2.200
28613WAT     H286082   0.450   4.957   2.098
28614WAT      O86083   6.388   5.792   0.263
28614WAT     H186084   6.368   5.789   0.165
28614WAT     H286085   6.439   5.710   0.289
28615WAT      O86086   3.572   8.095   3.902
28615WAT     H186087   3.592   8.085   3.805
28615WAT     H286088   3.553   8.005   3.941
28616WAT      O86089   0.356   8.050   1.733
28616WAT     H186090   0.347   7.957   1.697
28616WAT     H286091   0.419   8.102   1.676
28617WAT      O86092   7.885   6.880   8.604
28617WAT     H186093   7.814   6.824   8.647
28617WAT     H286094   7.975   6.843   8.629
28618WAT      O86095   2.793   0.864   9.795
28618WAT     H186096   2.752   0.923   9.865
28618WAT     H286097   2.731   0.857   9.717
28619WAT      O86098   1.299   0.437   6.546
28619WAT     H186099   1.244   0.490   6.481
28619WAT     H286100   1.284   0.472   6.638
28620WAT      O86101   1.235   9.628   5.747
28620WAT     H186102   1.320   9.610   5.698
28620WAT     H286103   1.237   9.581   5.835
28621WAT      O86104   9.310   1.568   2.127
28621WAT     H186105   9.402   1.596   2.100
28621WAT     H286106   9.314   1.517   2.213
28622WAT      O86107   2.768   8.592   5.681
28622WAT     H186108   2.743   8.645   5.600
28622WAT     H286109   2.732   8.499   5.672
28623WAT      O86110   8.893   1.471   5.756
28623WAT     H186111   8.890   1.386   5.809
28623WAT     H286112   8.920   1.451   5.662
28624WAT      O86113   2.162   4.050   9.046
28624WAT     H186114   2.090   4.073   8.980
28624WAT     H286115   2.134   3.969   9.098
28625WAT      O86116   8.180   3.795   7.462
28625WAT     H186117   8.159   3.860   7.389
28625WAT     H286118   8.270   3.754   7.446
28626WAT      O86119   3.240   9.662   8.979
28626WAT     H186120   3.297   9.597   8.929
28626WAT     H286121   3.178   9.613   9.040
28627WAT      O86122   5.497   3.043   3.978
28627WAT     H186123   5.582   3.090   3.955
28627WAT     H286124   5.447   3.097   4.047
28628WAT      O86125   0.261   4.349   7.645
28628WAT     H186126   0.208   4.433   7.637
28628WAT     H286127   0.201   4.275   7.676
28629WAT      O86128   0.600   2.124   9.122
28629WAT     H186129   0.642   2.080   9.201
28629WAT     H286130   0.651   2.101   9.039
28630WAT      O86131   1.320   8.579   1.699
28630WAT     H186132   1.361   8.600   1.610
28630WAT     H286133   1.347   8.487   1.727
28631WAT      O86134   3.386   7.486   7.267
28631WAT     H186135   3.391   7.506   7.169
28631WAT     H286136   3.325   7.552   7.312
28632WAT      O86137   0.814   2.356   0.051
28632WAT     H186138   0.771   2.287  -0.007
28632WAT     H286139   0.906   2.375   0.017
28633WAT      O86140   5.176   1.125   2.671
28633WAT     H186141   5.251   1.158   2.729
28633WAT     H286142   5.113   1.201   2.652
28634WAT      O86143   9.067   3.528   8.421
28634WAT     H186144   9.150   3.496   8.374
28634WAT     H286145   9.075   3.508   8.518
28635WAT      O86146   6.155   5.005   4.969
28635WAT     H186147   6.064   5.038   4.942
28635WAT     H286148   6.153   4.979   5.066
28636WAT      O86149   5.135   6.529   3.462
28636WAT     H186150   5.035   6.540   3.463
28636WAT     H286151   5.159   6.458   3.397
28637WAT      O86152   7.249   1.307   0.613
28637WAT     H186153   7.222   1.213   0.590
28637WAT     H286154   7.342   1.307   0.651
28638WAT      O86155   2.149   4.265   5.687
28638WAT     H186156   2.115   4.255   5.593
28638WAT     H286157   2.093   4.330   5.736
28639WAT      O86158   4.587   9.350   1.396
28639WAT     H186159   4.595   9.428   1.459
28639WAT     H286160   4.661   9.353   1.330
28640WAT      O86161   0.002   0.194   0.593
28640WAT     H186162   0.075   0.129   0.613
28640WAT     H286163   0.028   0.251   0.515
28641WAT      O86164   0.993   0.123   4.659
28641WAT     H186165   1.013   0.214   4.694
28641WAT     H286166   0.914   0.127   4.598
28642WAT      O86167   6.800   5.451   2.051
28642WAT     H186168   6.718   5.404   2.085
28642WAT     H286169   6.843   5.396   1.980
28643WAT      O86170   0.228   4.095   2.781
28643WAT     H186171   0.139   4.120   2.742
28643WAT     H286172   0.301   4.129   2.722
28644WAT      O86173   0.913   7.219   9.171
28644WAT     H186174   0.958   7.241   9.258
28644WAT     H286175   0.827   7.269   9.164
28645WAT      O86176   0.618   9.336   5.243
28645WAT     H186177   0.553   9.412   5.244
28645WAT     H286178   0.568   9.249   5.248
28646WAT      O86179   8.593   6.031   6.970
28646WAT     H186180   8.565   6.126   6.960
28646WAT     H286181   8.651   6.021   7.050
28647WAT      O86182   5.159   3.160   7.477
28647WAT     H186183   5.251   3.198   7.486
28647WAT     H286184   5.107   3.213   7.410
28648WAT      O86185   7.634   6.359   5.872
28648WAT     H186186   7.567   6.365   5.947
28648WAT     H286187   7.724   6.384   5.906
28649WAT      O86188   6.403   4.482   4.302
28649WAT     H186189   6.335   4.549   4.272
28649WAT     H286190   6.484   4.529   4.335
28650WAT      O86191   6.069   0.487   1.746
28650WAT     H186192   6.029   0.482   1.838
28650WAT     H286193   5.997   0.470   1.678
28651WAT      O86194   6.112   1.240   8.910
28651WAT     H186195   6.017   1.217   8.887
28651WAT     H286196   6.115   1.275   9.004
28652WAT      O86197   5.417   7.638   8.519
28652WAT     H186198   5.391   7.722   8.566
28652WAT     H286199   5.338   7.577   8.513
28653WAT      O86200   9.008   7.394   2.253
28653WAT     H186201   9.042   7.360   2.341
28653WAT     H286202   9.043   7.336   2.179
28654WAT      O86203   2.289   5.569   0.237
28654WAT     H186204   2.208   5.592   0.182
28654WAT     H286205   2.371   5.580   0.181
28655WAT      O86206   0.014   5.292   4.906
28655WAT     H186207  -0.066   5.245   4.869
28655WAT     H286208   0.073   5.322   4.831
28656WAT      O86209   4.968   2.561   7.858
28656WAT     H186210   4.970   2.545   7.957
28656WAT     H286211   4.909   2.640   7.839
28657WAT      O86212   8.760   5.974   3.274
28657WAT     H186213   8.685   5.939   3.330
28657WAT     H286214   8.812   6.042   3.327
28658WAT      O86215   6.242   2.913   9.122
28658WAT     H186216   6.264   2.881   9.214
28658WAT     H286217   6.156   2.964   9.125
28659WAT      O86218   4.525   2.289   2.105
28659WAT     H186219   4.567   2.352   2.170
28659WAT     H286220   4.468   2.223   2.155
28660WAT      O86221   8.111   8.900   4.231
28660WAT     H186222   8.018   8.888   4.195
28660WAT     H286223   8.110   8.884   4.330
28661WAT      O86224   2.027   4.787   3.973
28661WAT     H186225   1.930   4.762   3.969
28661WAT     H286226   2.036   4.883   4.000
28662WAT      O86227   5.483   2.535   5.388
28662WAT     H186228   5.456   2.479   5.467
28662WAT     H286229   5.459   2.487   5.304
28663WAT      O86230   3.110   8.192   3.413
28663WAT     H186231   3.096   8.285   3.376
28663WAT     H286232   3.160   8.138   3.346
28664WAT      O86233   8.909   7.443   4.533
28664WAT     H186234   8.937   7.390   4.614
28664WAT     H286235   8.985   7.446   4.468
28665WAT      O86236   3.375   9.718   7.601
28665WAT     H186237   3.413   9.736   7.510
28665WAT     H286238   3.276   9.708   7.595
28666WAT      O86239   8.131   8.657   5.055
28666WAT     H186240   8.099   8.653   4.961
28666WAT     H286241   8.148   8.564   5.088
28667WAT      O86242   9.317   2.001   5.084
28667WAT     H186243   9.401   1.975   5.132
28667WAT     H286244   9.279   2.083   5.128
28668WAT      O86245   1.437   0.101   5.966
28668WAT     H186246   1.371   0.080   5.894
28668WAT     H286247   1.424   0.037   6.042
28669WAT      O86248   3.344   4.762   8.181
28669WAT     H186249   3.255   4.733   8.214
28669WAT     H286250   3.416   4.723   8.239
28670WAT      O86251   5.330   8.585   0.473
28670WAT     H186252   5.241   8.624   0.448
28670WAT     H286253   5.395   8.659   0.491
28671WAT      O86254   2.718   7.378   7.148
28671WAT     H186255   2.662   7.295   7.153
28671WAT     H286256   2.768   7.388   7.234
28672WAT      O86257   7.901   6.621   8.252
28672WAT     H186258   7.912   6.524   8.233
28672WAT     H286259   7.906   6.673   8.167
28673WAT      O86260   9.188   2.933   0.718
28673WAT     H186261   9.252   2.856   0.728
28673WAT     H286262   9.239   3.019   0.725
28674WAT      O86263   5.561   7.101   3.994
28674WAT     H186264   5.525   7.152   3.916
28674WAT     H286265   5.645   7.053   3.966
28675WAT      O86266   3.804   6.764   9.424
28675WAT     H186267   3.753   6.811   9.351
28675WAT     H286268   3.899   6.753   9.396
28676WAT      O86269   1.353   9.794   6.189
28676WAT     H186270   1.273   9.788   6.249
28676WAT     H286271   1.435   9.769   6.240
28677WAT      O86272   1.731   1.201   0.553
28677WAT     H186273   1.799   1.221   0.482
28677WAT     H286274   1.766   1.231   0.642
28678WAT      O86275   7.644   2.911   9.619
28678WAT     H186276   7.653   2.852   9.539
28678WAT     H286277   7.556   2.958   9.616
28679WAT      O86278   4.635   3.359   9.447
28679WAT     H186279   4.644   3.456   9.427
28679WAT     H286280   4.543   3.327   9.424
28680WAT      O86281   1.246   4.321   2.456
28680WAT     H186282   1.344   4.320   2.476
28680WAT     H286283   1.222   4.409   2.414
28681WAT      O86284   9.453   6.313   0.693
28681WAT     H186285   9.442   6.388   0.628
28681WAT     H286286   9.412   6.230   0.657
28682WAT      O86287   0.934   0.202   8.326
28682WAT     H186288   0.900   0.268   8.259
28682WAT     H286289   0.870   0.125   8.331
28683WAT      O86290   4.062   3.411   1.465
28683WAT     H186291   3.969   3.374   1.470
28683WAT     H286292   4.102   3.412   1.556
28684WAT      O86293   8.377   0.017   0.446
28684WAT     H186294   8.359   0.080   0.522
28684WAT     H286295   8.440  -0.054   0.476
28685WAT      O86296   9.096   6.185   5.029
28685WAT     H186297   9.087   6.192   4.930
28685WAT     H286298   9.062   6.096   5.060
28686WAT      O86299   6.824   5.229   1.115
28686WAT     H186300   6.831   5.144   1.062
28686WAT     H286301   6.729   5.245   1.140
28687WAT      O86302   6.397   5.554   0.816
28687WAT     H186303   6.405   5.555   0.717
28687WAT     H286304   6.338   5.630   0.845
28688WAT      O86305   3.504   5.541   9.681
28688WAT     H186306   3.439   5.513   9.752
28688WAT     H286307   3.591   5.565   9.724
28689WAT      O86308   3.211   0.530   9.212
28689WAT     H186309   3.161   0.498   9.293
28689WAT     H286310   3.281   0.464   9.187
28690WAT      O86311   7.468   8.275   2.348
28690WAT     H186312   7.449   8.351   2.286
28690WAT     H286313   7.535   8.214   2.306
28691WAT      O86314   2.059   9.495   9.231
28691WAT     H186315   2.029   9.548   9.152
28691WAT     H286316   2.159   9.500   9.238
28692WAT      O86317   5.797   2.709   7.642
28692WAT     H186318   5.816   2.653   7.723
28692WAT     H286319   5.698   2.722   7.633
28693WAT      O86320   2.981   9.235   6.853
28693WAT     H186321   2.917   9.178   6.904
28693WAT     H286322   2.964   9.331   6.873
28694WAT      O86323   2.994   2.898   5.298
28694WAT     H186324   3.020   2.982   5.250
28694WAT     H286325   2.901   2.906   5.332
28695WAT      O86326   8.437   2.338   9.699
28695WAT     H186327   8.374   2.289   9.639
28695WAT     H286328   8.385   2.388   9.768
28696WAT      O86329   4.823   0.416   1.127
28696WAT     H186330   4.741   0.465   1.100
28696WAT     H286331   4.867   0.464   1.202
28697WAT      O86332   1.722   6.425   9.692
28697WAT     H186333   1.749   6.345   9.639
28697WAT     H286334   1.801   6.485   9.705
28698WAT      O86335   9.744   7.435   9.196
28698WAT     H186336   9.663   7.491   9.213
28698WAT     H286337   9.803   7.481   9.130
28699WAT      O86338   2.702   7.620   8.302
28699WAT     H186339   2.782   7.648   8.248
28699WAT     H286340   2.727   7.619   8.399
28700WAT      O86341   5.692   3.706   2.902
28700WAT     H186342   5.673   3.642   2.976
28700WAT     H286343   5.781   3.749   2.917
28701WAT      O86344   7.891   8.853   6.943
28701WAT     H186345   7.911   8.772   6.888
28701WAT     H286346   7.973   8.910   6.950
28702WAT      O86347   4.454   9.134   4.976
28702WAT     H186348   4.534   9.079   4.955
28702WAT     H286349   4.476   9.199   5.050
28703WAT      O86350   1.380   4.517   7.264
28703WAT     H186351   1.297   4.541   7.212
28703WAT     H286352   1.452   4.584   7.243
28704WAT      O86353   1.887   7.965   7.499
28704WAT     H186354   1.826   7.976   7.421
28704WAT     H286355   1.940   8.049   7.513
28705WAT      O86356   1.051   4.247   1.737
28705WAT     H186357   1.138   4.297   1.744
28705WAT     H286358   0.985   4.286   1.800
28706WAT      O86359   0.888   8.440   5.869
28706WAT     H186360   0.964   8.464   5.930
28706WAT     H286361   0.869   8.517   5.807
28707WAT      O86362   1.058   2.979   2.766
28707WAT     H186363   0.988   2.913   2.741
28707WAT     H286364   1.140   2.932   2.797
28708WAT      O86365   2.137   8.890   1.799
28708WAT     H186366   2.168   8.841   1.718
28708WAT     H286367   2.126   8.987   1.777
28709WAT      O86368   7.265   3.725   4.892
28709WAT     H186369   7.279   3.819   4.861
28709WAT     H286370   7.316   3.710   4.976
28710WAT      O86371   0.664   4.645   4.355
28710WAT     H186372   0.590   4.578   4.349
28710WAT     H286373   0.653   4.713   4.283
28711WAT      O86374   3.275   0.558   8.940
28711WAT     H186375   3.255   0.608   9.025
28711WAT     H286376   3.212   0.481   8.931
28712WAT      O86377   6.247   3.375   9.229
28712WAT     H186378   6.191   3.455   9.208
28712WAT     H286379   6.338   3.385   9.189
28713WAT      O86380   5.398   7.292   6.547
28713WAT     H186381   5.407   7.348   6.629
28713WAT     H286382   5.482   7.241   6.532
28714WAT      O86383   0.824   3.467   5.176
28714WAT     H186384   0.743   3.409   5.178
28714WAT     H286385   0.798   3.562   5.187
28715WAT      O86386   9.403   6.148   4.032
28715WAT     H186387   9.439   6.128   3.941
28715WAT     H286388   9.445   6.232   4.066
28716WAT      O86389   3.437   9.703   6.890
28716WAT     H186390   3.441   9.654   6.803
28716WAT     H286391   3.350   9.751   6.897
28717WAT      O86392   3.045   5.818   8.871
28717WAT     H186393   3.111   5.744   8.872
28717WAT     H286394   2.953   5.781   8.856
28718WAT      O86395   9.402   7.507   8.277
28718WAT     H186396   9.457   7.423   8.278
28718WAT     H286397   9.462   7.586   8.285
28719WAT      O86398   6.462   6.637   3.814
28719WAT     H186399   6.380   6.604   3.859
28719WAT     H286400   6.457   6.737   3.805
28720WAT      O86401   6.044   4.145   3.131
28720WAT     H186402   5.965   4.083   3.129
28720WAT     H286403   6.097   4.128   3.213
28721WAT      O86404   8.027   4.108   0.165
28721WAT     H186405   8.038   4.182   0.232
28721WAT     H286406   8.034   4.146   0.073
28722WAT      O86407   7.948   7.020   1.565
28722WAT     H186408   7.972   6.971   1.649
28722WAT     H286409   7.969   6.963   1.486
28723WAT      O86410   4.221   0.555   3.412
28723WAT     H186411   4.224   0.455   3.422
28723WAT     H286412   4.142   0.590   3.462
28724WAT      O86413   4.265   3.690   1.782
28724WAT     H186414   4.329   3.712   1.857
28724WAT     H286415   4.280   3.754   1.707
28725WAT      O86416   3.687   6.188   8.423
28725WAT     H186417   3.723   6.098   8.447
28725WAT     H286418   3.613   6.178   8.357
28726WAT      O86419   9.623   1.597   8.519
28726WAT     H186420   9.541   1.620   8.571
28726WAT     H286421   9.695   1.567   8.582
28727WAT      O86422   7.050   9.805   1.866
28727WAT     H186423   6.998   9.849   1.793
28727WAT     H286424   7.011   9.831   1.955
28728WAT      O86425   8.637   8.695   3.285
28728WAT     H186426   8.649   8.721   3.190
28728WAT     H286427   8.541   8.706   3.311
28729WAT      O86428   2.021   7.679   6.041
28729WAT     H186429   1.980   7.650   6.127
28729WAT     H286430   1.974   7.760   6.007
28730WAT      O86431   4.438   0.453   5.613
28730WAT     H186432   4.482   0.471   5.701
28730WAT     H286433   4.355   0.509   5.605
28731WAT      O86434   8.820   3.036   2.245
28731WAT     H186435   8.817   3.066   2.340
28731WAT     H286436   8.732   2.995   2.220
28732WAT      O86437   5.183   8.955   7.821
28732WAT     H186438   5.182   9.002   7.909
28732WAT     H286439   5.092   8.959   7.780
28733WAT      O86440   7.036   5.026   1.401
28733WAT     H186441   7.074   4.935   1.413
28733WAT     H286442   7.030   5.072   1.490
28734WAT      O86443   1.284   2.905   6.754
28734WAT     H186444   1.197   2.912   6.705
28734WAT     H286445   1.350   2.967   6.713
28735WAT      O86446   0.743   6.566   0.875
28735WAT     H186447   0.842   6.554   0.890
28735WAT     H286448   0.728   6.628   0.799
28736WAT      O86449   8.200   2.079   7.584
28736WAT     H186450   8.246   2.165   7.607
28736WAT     H286451   8.201   2.066   7.485
28737WAT      O86452   0.772   9.048   1.401
28737WAT     H186453   0.764   9.006   1.311
28737WAT     H286454   0.734   8.986   1.470
28738WAT      O86455   5.483   9.092   3.798
28738WAT     H186456   5.410   9.045   3.848
28738WAT     H286457   5.572   9.066   3.836
28739WAT      O86458   1.073   7.385   1.229
28739WAT     H186459   1.111   7.477   1.229
28739WAT     H286460   1.015   7.372   1.148
28740WAT      O86461   0.636   0.487   1.348
28740WAT     H186462   0.714   0.433   1.379
28740WAT     H286463   0.596   0.443   1.267
28741WAT      O86464   4.974   6.051   0.563
28741WAT     H186465   4.875   6.041   0.571
28741WAT     H286466   4.995   6.143   0.528
28742WAT      O86467   1.470   2.527   8.597
28742WAT     H186468   1.443   2.432   8.609
28742WAT     H286469   1.570   2.535   8.604
28743WAT      O86470   7.003   8.375   7.020
28743WAT     H186471   7.087   8.362   6.968
28743WAT     H286472   6.933   8.414   6.961
28744WAT      O86473   1.600   4.624   4.198
28744WAT     H186474   1.618   4.710   4.150
28744WAT     H286475   1.677   4.562   4.187
28745WAT      O86476   7.604   2.947   8.953
28745WAT     H186477   7.616   2.886   8.875
28745WAT     H286478   7.508   2.973   8.961
28746WAT      O86479   5.693   3.702   8.542
28746WAT     H186480   5.679   3.794   8.507
28746WAT     H286481   5.791   3.683   8.549
28747WAT      O86482   8.508   3.975   5.416
28747WAT     H186483   8.605   3.999   5.406
28747WAT     H286484   8.494   3.936   5.507
28748WAT      O86485   8.191   3.337   4.875
28748WAT     H186486   8.285   3.320   4.901
28748WAT     H286487   8.184   3.345   4.776
28749WAT      O86488   6.030   2.744   2.519
28749WAT     H186489   6.069   2.737   2.427
28749WAT     H286490   5.957   2.677   2.530
28750WAT      O86491   1.889   9.085   3.741
28750WAT     H186492   1.885   9.017   3.667
28750WAT     H286493   1.919   9.173   3.704
28751WAT      O86494   3.974   1.610   8.091
28751WAT     H186495   3.928   1.667   8.159
28751WAT     H286496   3.932   1.519   8.091
28752WAT      O86497   2.088   7.746   9.432
28752WAT     H186498   2.169   7.746   9.490
28752WAT     H286499   2.008   7.720   9.487
28753WAT      O86500   3.560   9.145   8.168
28753WAT     H186501   3.503   9.219   8.131
28753WAT     H286502   3.504   9.086   8.225
28754WAT      O86503   7.630   2.792   8.734
28754WAT     H186504   7.638   2.852   8.654
28754WAT     H286505   7.551   2.732   8.723
28755WAT      O86506   5.575   2.985   5.833
28755WAT     H186507   5.560   3.079   5.801
28755WAT     H286508   5.669   2.958   5.813
28756WAT      O86509   4.874   5.163   1.360
28756WAT     H186510   4.971   5.146   1.342
28756WAT     H286511   4.827   5.180   1.273
28757WAT      O86512   6.764   3.260   0.977
28757WAT     H186513   6.743   3.293   0.885
28757WAT     H286514   6.687   3.277   1.038
28758WAT      O86515   9.353   9.721   0.750
28758WAT     H186516   9.348   9.816   0.782
28758WAT     H286517   9.447   9.697   0.729
28759WAT      O86518   7.112   5.352   2.808
28759WAT     H186519   7.090   5.300   2.725
28759WAT     H286520   7.139   5.289   2.881
28760WAT      O86521   4.903   2.488   2.837
28760WAT     H186522   4.930   2.429   2.914
28760WAT     H286523   4.978   2.493   2.772
28761WAT      O86524   3.751   2.951   1.595
28761WAT     H186525   3.660   2.987   1.611
28761WAT     H286526   3.750   2.892   1.513
28762WAT      O86527   1.941   9.045   7.906
28762WAT     H186528   1.961   8.992   7.988
28762WAT     H286529   1.854   9.014   7.867
28763WAT      O86530   8.756   0.568   2.641
28763WAT     H186531   8.756   0.666   2.664
28763WAT     H286532   8.673   0.526   2.677
28764WAT      O86533   2.426   2.537   3.287
28764WAT     H186534   2.340   2.585   3.303
28764WAT     H286535   2.477   2.582   3.215
28765WAT      O86536   2.112   5.228   0.763
28765WAT     H186537   2.147   5.194   0.676
28765WAT     H286538   2.087   5.324   0.754
28766WAT      O86539   4.154   1.927   6.229
28766WAT     H186540   4.115   1.872   6.303
28766WAT     H286541   4.081   1.974   6.180
28767WAT      O86542   8.443   9.063   1.878
28767WAT     H186543   8.514   9.093   1.942
28767WAT     H286544   8.461   8.968   1.851
28768WAT      O86545   3.362   0.886   1.249
28768WAT     H186546   3.420   0.906   1.327
28768WAT     H286547   3.333   0.790   1.253
28769WAT      O86548   7.195   8.363   2.490
28769WAT     H186549   7.185   8.408   2.578
28769WAT     H286550   7.292   8.342   2.474
28770WAT      O86551   1.153   9.497   0.669
28770WAT     H186552   1.149   9.400   0.644
28770WAT     H286553   1.067   9.541   0.645
28771WAT      O86554   2.221   2.602   6.435
28771WAT     H186555   2.178   2.596   6.345
28771WAT     H286556   2.207   2.516   6.484
28772WAT      O86557   0.176   1.278   9.303
28772WAT     H186558   0.141   1.295   9.211
28772WAT     H286559   0.182   1.180   9.320
28773WAT      O86560   7.088   6.402   8.980
28773WAT     H186561   6.998   6.428   8.943
28773WAT     H286562   7.103   6.304   8.963
28774WAT      O86563   6.728   1.506   2.182
28774WAT     H186564   6.655   1.573   2.197
28774WAT     H286565   6.799   1.518   2.252
28775WAT      O86566   1.548   7.357   2.701
28775WAT     H186567   1.553   7.389   2.606
28775WAT     H286568   1.487   7.417   2.753
28776WAT      O86569   3.600   6.347   5.942
28776WAT     H186570   3.589   6.252   5.970
28776WAT     H286571   3.510   6.391   5.937
28777WAT      O86572   1.042   2.713   7.549
28777WAT     H186573   1.067   2.697   7.454
28777WAT     H286574   1.038   2.626   7.598
28778WAT      O86575   9.210   0.654   7.377
28778WAT     H186576   9.215   0.554   7.383
28778WAT     H286577   9.294   0.688   7.334
28779WAT      O86578   1.747   0.821   3.833
28779WAT     H186579   1.813   0.788   3.901
28779WAT     H286580   1.655   0.818   3.871
28780WAT      O86581   7.520   5.006   3.438
28780WAT     H186582   7.467   5.041   3.361
28780WAT     H286583   7.549   4.912   3.419
28781WAT      O86584   1.799   4.235   8.698
28781WAT     H186585   1.736   4.310   8.681
28781WAT     H286586   1.863   4.225   8.622
28782WAT      O86587   6.632   3.676   8.994
28782WAT     H186588   6.637   3.736   8.914
28782WAT     H286589   6.654   3.729   9.077
28783WAT      O86590   1.342   7.860   8.475
28783WAT     H186591   1.344   7.803   8.392
28783WAT     H286592   1.390   7.812   8.549
28784WAT      O86593   6.092   6.255   8.872
28784WAT     H186594   6.029   6.305   8.931
28784WAT     H286595   6.043   6.220   8.792
28785WAT      O86596   8.141   3.702   0.093
28785WAT     H186597   8.173   3.655   0.175
28785WAT     H286598   8.051   3.667   0.067
28786WAT      O86599   8.693   7.791   2.098
28786WAT     H186600   8.700   7.694   2.074
28786WAT     H286601   8.729   7.806   2.190
28787WAT      O86602   3.416   2.915   9.681
28787WAT     H186603   3.431   2.958   9.592
28787WAT     H286604   3.336   2.957   9.725
28788WAT      O86605   2.848   6.444   2.382
28788WAT     H186606   2.932   6.432   2.327
28788WAT     H286607   2.853   6.386   2.463
28789WAT      O86608   9.837   4.273   8.331
28789WAT     H186609   9.896   4.222   8.393
28789WAT     H286610   9.883   4.357   8.302
28790WAT      O86611   7.382   9.648   7.777
28790WAT     H186612   7.430   9.622   7.693
28790WAT     H286613   7.401   9.580   7.848
28791WAT      O86614   1.127   1.303   8.784
28791WAT     H186615   1.105   1.349   8.870
28791WAT     H286616   1.187   1.225   8.802
28792WAT      O86617   7.115   5.695   1.288
28792WAT     H186618   7.032   5.644   1.268
28792WAT     H286619   7.143   5.679   1.383
28793WAT      O86620   9.146   4.372   1.581
28793WAT     H186621   9.190   4.460   1.596
28793WAT     H286622   9.122   4.363   1.484
28794WAT      O86623   3.513   0.202   5.691
28794WAT     H186624   3.571   0.249   5.624
28794WAT     H286625   3.570   0.164   5.763
28795WAT      O86626   4.506   3.265   0.434
28795WAT     H186627   4.521   3.358   0.401
28795WAT     H286628   4.459   3.212   0.364
28796WAT      O86629   2.946   4.035   2.849
28796WAT     H186630   2.949   4.123   2.801
28796WAT     H286631   3.036   4.013   2.885
28797WAT      O86632   2.819   6.527   3.607
28797WAT     H186633   2.762   6.608   3.596
28797WAT     H286634   2.841   6.490   3.517
28798WAT      O86635   6.213   4.115   4.859
28798WAT     H186636   6.153   4.045   4.897
28798WAT     H286637   6.207   4.198   4.916
28799WAT      O86638   8.858   1.807   3.684
28799WAT     H186639   8.808   1.725   3.657
28799WAT     H286640   8.938   1.818   3.626
28800WAT      O86641   2.920   8.667   9.459
28800WAT     H186642   2.873   8.579   9.461
28800WAT     H286643   2.900   8.713   9.373
28801WAT      O86644   5.570   7.917   1.849
28801WAT     H186645   5.487   7.914   1.905
28801WAT     H286646   5.637   7.853   1.885
28802WAT      O86647   4.778   5.874   4.329
28802WAT     H186648   4.874   5.890   4.353
28802WAT     H286649   4.768   5.877   4.230
28803WAT      O86650   8.023   8.343   4.922
28803WAT     H186651   7.941   8.397   4.939
28803WAT     H286652   8.092   8.401   4.877
28804WAT      O86653   7.978   6.622   2.545
28804WAT     H186654   7.963   6.622   2.644
28804WAT     H286655   7.895   6.591   2.499
28805WAT      O86656   6.413   1.221   0.637
28805WAT     H186657   6.317   1.213   0.612
28805WAT     H286658   6.448   1.133   0.668
28806WAT      O86659   6.097   0.305   4.716
28806WAT     H186660   6.073   0.236   4.649
28806WAT     H286661   6.021   0.318   4.780
28807WAT      O86662   5.068   3.837   2.040
28807WAT     H186663   5.098   3.926   2.075
28807WAT     H286664   4.978   3.847   1.998
28808WAT      O86665   3.965   2.054   7.333
28808WAT     H186666   4.005   1.969   7.300
28808WAT     H286667   3.870   2.060   7.303
28809WAT      O86668   7.015   1.619   5.427
28809WAT     H186669   7.008   1.703   5.373
28809WAT     H286670   6.927   1.571   5.425
28810WAT      O86671   7.438   4.676   0.333
28810WAT     H186672   7.356   4.619   0.322
28810WAT     H286673   7.517   4.630   0.292
28811WAT      O86674   5.610   6.067   6.619
28811WAT     H186675   5.641   6.156   6.654
28811WAT     H286676   5.566   6.017   6.693
28812WAT      O86677   9.775   3.557   6.344
28812WAT     H186678   9.747   3.646   6.309
28812WAT     H286679   9.844   3.517   6.283
28813WAT      O86680   3.455   1.612   2.969
28813WAT     H186681   3.448   1.661   3.056
28813WAT     H286682   3.427   1.517   2.982
28814WAT      O86683   3.400   1.707   3.834
28814WAT     H186684   3.372   1.611   3.833
28814WAT     H286685   3.448   1.727   3.919
28815WAT      O86686   5.389   4.487   3.083
28815WAT     H186687   5.376   4.561   3.149
28815WAT     H286688   5.448   4.416   3.122
28816WAT      O86689   2.537   4.654   0.186
28816WAT     H186690   2.466   4.721   0.165
28816WAT     H286691   2.582   4.626   0.101
28817WAT      O86692   8.687   6.731   9.717
28817WAT     H186693   8.687   6.823   9.757
28817WAT     H286694   8.724   6.736   9.624
28818WAT      O86695   6.153   7.132   9.779
28818WAT     H186696   6.094   7.057   9.749
28818WAT     H286697   6.152   7.205   9.710
28819WAT      O86698   3.548   6.088   4.729
28819WAT     H186699   3.537   6.096   4.829
28819WAT     H286700   3.507   6.003   4.698
28820WAT      O86701   1.379   0.433   7.218
28820WAT     H186702   1.408   0.341   7.243
28820WAT     H286703   1.353   0.484   7.300
28821WAT      O86704   4.258   1.063   8.199
28821WAT     H186705   4.263   1.076   8.100
28821WAT     H286706   4.351   1.057   8.236
28822WAT      O86707   1.516   9.323   0.270
28822WAT     H186708   1.466   9.331   0.355
28822WAT     H286709   1.549   9.229   0.260
28823WAT      O86710   7.135   0.272   4.215
28823WAT     H186711   7.130   0.299   4.119
28823WAT     H286712   7.108   0.176   4.225
28824WAT      O86713   9.067   4.737   0.157
28824WAT     H186714   8.974   4.743   0.118
28824WAT     H286715   9.101   4.830   0.173
28825WAT      O86716   1.496   8.714   7.595
28825WAT     H186717   1.542   8.801   7.576
28825WAT     H286718   1.401   8.732   7.623
28826WAT      O86719   3.652   3.825   3.096
28826WAT     H186720   3.680   3.734   3.066
28826WAT     H286721   3.731   3.886   3.097
28827WAT      O86722   3.852   4.632   1.222
28827WAT     H186723   3.810   4.555   1.172
28827WAT     H286724   3.862   4.607   1.318
28828WAT      O86725   5.368   8.046   1.232
28828WAT     H186726   5.408   7.994   1.308
28828WAT     H286727   5.407   8.013   1.146
28829WAT      O86728   9.865   8.451   2.406
28829WAT     H186729   9.815   8.409   2.331
28829WAT     H286730   9.956   8.410   2.413
28830WAT      O86731   4.552   7.667   7.953
28830WAT     H186732   4.470   7.666   7.895
28830WAT     H286733   4.627   7.712   7.905
28831WAT      O86734   2.220   6.603   5.650
28831WAT     H186735   2.137   6.658   5.652
28831WAT     H286736   2.256   6.601   5.557
28832WAT      O86737   2.446   4.001   7.114
28832WAT     H186738   2.488   3.949   7.041
28832WAT     H286739   2.359   3.959   7.140
28833WAT      O86740   5.060   4.216   0.432
28833WAT     H186741   5.076   4.307   0.470
28833WAT     H286742   4.964   4.206   0.408
28834WAT      O86743   6.448   4.674   6.939
28834WAT     H186744   6.548   4.684   6.936
28834WAT     H286745   6.425   4.584   6.978
28835WAT      O86746   3.401   3.636   7.980
28835WAT     H186747   3.368   3.547   8.011
28835WAT     H286748   3.362   3.657   7.891
28836WAT      O86749   8.822   0.715   4.323
28836WAT     H186750   8.786   0.774   4.396
28836WAT     H286751   8.746   0.680   4.268
28837WAT      O86752   0.688   7.314   0.790
28837WAT     H186753   0.751   7.322   0.713
28837WAT     H286754   0.631   7.233   0.778
28838WAT      O86755   5.463   3.452   9.758
28838WAT     H186756   5.436   3.398   9.679
28838WAT     H286757   5.396   3.524   9.774
28839WAT      O86758   7.686   2.285   4.479
28839WAT     H186759   7.636   2.244   4.556
28839WAT     H286760   7.621   2.328   4.416
28840WAT      O86761   0.442   4.703   0.180
28840WAT     H186762   0.350   4.684   0.147
28840WAT     H286763   0.446   4.690   0.279
28841WAT      O86764   3.972   9.051   4.257
28841WAT     H186765   3.922   8.977   4.212
28841WAT     H286766   4.055   9.071   4.204
28842WAT      O86767   3.356   6.537   0.768
28842WAT     H186768   3.372   6.582   0.680
28842WAT     H286769   3.343   6.439   0.752
28843WAT      O86770   1.098   4.659   5.620
28843WAT     H186771   1.125   4.755   5.624
28843WAT     H286772   1.178   4.601   5.632
28844WAT      O86773   0.273   9.751   4.053
28844WAT     H186774   0.192   9.693   4.062
28844WAT     H286775   0.294   9.764   3.956
28845WAT      O86776   9.414   1.299   6.385
28845WAT     H186777   9.374   1.352   6.460
28845WAT     H286778   9.364   1.212   6.376
28846WAT      O86779   7.572   0.319   9.279
28846WAT     H186780   7.545   0.226   9.258
28846WAT     H286781   7.580   0.330   9.378
28847WAT      O86782   0.177   4.849   7.601
28847WAT     H186783   0.245   4.894   7.659
28847WAT     H286784   0.174   4.895   7.512
28848WAT      O86785   8.297   0.704   5.983
28848WAT     H186786   8.202   0.723   5.958
28848WAT     H286787   8.356   0.721   5.904
28849WAT      O86788   5.324   1.058   1.196
28849WAT     H186789   5.250   1.064   1.129
28849WAT     H286790   5.378   1.142   1.193
28850WAT      O86791   2.537   1.315   9.345
28850WAT     H186792   2.569   1.383   9.411
28850WAT     H286793   2.562   1.342   9.253
28851WAT      O86794   2.584   4.934   2.354
28851WAT     H186795   2.628   4.859   2.306
28851WAT     H286796   2.631   4.951   2.440
28852WAT      O86797   3.870   0.176   8.350
28852WAT     H186798   3.865   0.141   8.443
28852WAT     H286799   3.819   0.262   8.344
28853WAT      O86800   2.675   5.384   3.743
28853WAT     H186801   2.746   5.423   3.800
28853WAT     H286802   2.597   5.358   3.800
28854WAT      O86803   7.994   5.621   5.998
28854WAT     H186804   7.928   5.568   5.946
28854WAT     H286805   8.024   5.569   6.078
28855WAT      O86806   6.605   7.531   7.525
28855WAT     H186807   6.693   7.519   7.570
28855WAT     H286808   6.531   7.503   7.587
28856WAT      O86809   8.757   2.344   1.394
28856WAT     H186810   8.717   2.425   1.437
28856WAT     H286811   8.699   2.314   1.319
28857WAT      O86812   4.783   7.162   4.759
28857WAT     H186813   4.854   7.191   4.695
28857WAT     H286814   4.814   7.080   4.808
28858WAT      O86815   3.515   5.474   0.243
28858WAT     H186816   3.499   5.388   0.195
28858WAT     H286817   3.587   5.526   0.195
28859WAT      O86818   0.011   7.858   5.471
28859WAT     H186819   0.035   7.838   5.566
28859WAT     H286820  -0.089   7.860   5.461
28860WAT      O86821   7.788   7.832   9.564
28860WAT     H186822   7.718   7.903   9.573
28860WAT     H286823   7.859   7.863   9.501
28861WAT      O86824   0.105   0.674   3.035
28861WAT     H186825   0.066   0.668   3.126
28861WAT     H286826   0.035   0.704   2.970
28862WAT      O86827   4.040   0.162   2.355
28862WAT     H186828   4.077   0.239   2.304
28862WAT     H286829   4.008   0.193   2.444
28863WAT      O86830   0.720   5.207   2.963
28863WAT     H186831   0.675   5.174   3.046
28863WAT     H286832   0.812   5.239   2.985
28864WAT      O86833   7.136   6.884   8.315
28864WAT     H186834   7.185   6.887   8.228
28864WAT     H286835   7.202   6.868   8.389
28865WAT      O86836   0.091   0.333   7.964
28865WAT     H186837   0.041   0.297   7.885
28865WAT     H286838   0.189   0.315   7.952
28866WAT      O86839   1.194   9.659   9.038
28866WAT     H186840   1.123   9.594   9.066
28866WAT     H286841   1.161   9.712   8.960
28867WAT      O86842   8.951   4.467   8.962
28867WAT     H186843   9.030   4.508   9.008
28867WAT     H286844   8.955   4.368   8.971
28868WAT      O86845   7.730   3.171   6.995
28868WAT     H186846   7.733   3.120   6.909
28868WAT     H286847   7.801   3.242   6.994
28869WAT      O86848   2.788   1.236   9.645
28869WAT     H186849   2.767   1.164   9.579
28869WAT     H286850   2.861   1.294   9.608
28870WAT      O86851   4.691   3.414   7.637
28870WAT     H186852   4.784   3.391   7.608
28870WAT     H286853   4.684   3.404   7.736
28871WAT      O86854   9.344   1.982   6.403
28871WAT     H186855   9.298   2.071   6.405
28871WAT     H286856   9.431   1.989   6.452
28872WAT      O86857   8.457   7.153   3.941
28872WAT     H186858   8.414   7.063   3.939
28872WAT     H286859   8.538   7.150   4.000
28873WAT      O86860   7.227   2.110   8.406
28873WAT     H186861   7.179   2.023   8.396
28873WAT     H286862   7.217   2.144   8.499
28874WAT      O86863   0.209   5.060   0.559
28874WAT     H186864   0.203   5.023   0.651
28874WAT     H286865   0.162   4.998   0.495
28875WAT      O86866   5.402   2.471   9.351
28875WAT     H186867   5.432   2.552   9.402
28875WAT     H286868   5.311   2.444   9.382
28876WAT      O86869   0.147   1.057   9.035
28876WAT     H186870   0.077   1.010   9.089
28876WAT     H286871   0.123   1.154   9.026
28877WAT      O86872   2.168   9.250   6.795
28877WAT     H186873   2.258   9.236   6.835
28877WAT     H286874   2.166   9.210   6.703
28878WAT      O86875   3.374   3.136   9.102
28878WAT     H186876   3.282   3.099   9.112
28878WAT     H286877   3.399   3.135   9.005
28879WAT      O86878   6.267   9.319   3.068
28879WAT     H186879   6.326   9.238   3.076
28879WAT     H286880   6.253   9.339   2.971
28880WAT      O86881   2.240   4.528   9.516
28880WAT     H186882   2.221   4.452   9.578
28880WAT     H286883   2.245   4.613   9.568
28881WAT      O86884   8.918   8.846   1.588
28881WAT     H186885   9.011   8.844   1.625
28881WAT     H286886   8.852   8.845   1.664
28882WAT      O86887   3.545   7.531   1.353
28882WAT     H186888   3.565   7.615   1.402
28882WAT     H286889   3.628   7.495   1.310
28883WAT      O86890   3.702   8.342   7.974
28883WAT     H186891   3.692   8.422   8.032
28883WAT     H286892   3.789   8.346   7.926
28884WAT      O86893   6.008   1.914   1.119
28884WAT     H186894   6.066   1.984   1.162
28884WAT     H286895   6.042   1.824   1.144
28885WAT      O86896   7.037   0.652   6.293
28885WAT     H186897   7.028   0.622   6.198
28885WAT     H286898   7.120   0.612   6.333
28886WAT      O86899   5.528   5.626   7.553
28886WAT     H186900   5.621   5.604   7.583
28886WAT     H286901   5.516   5.596   7.458
28887WAT      O86902   4.637   2.093   6.996
28887WAT     H186903   4.636   2.145   7.082
28887WAT     H286904   4.701   2.017   7.004
28888WAT      O86905   0.178   7.774   3.228
28888WAT     H186906   0.189   7.867   3.195
28888WAT     H286907   0.162   7.775   3.327
28889WAT      O86908   0.853   4.371   4.093
28889WAT     H186909   0.754   4.358   4.103
28889WAT     H286910   0.901   4.290   4.128
28890WAT      O86911   2.619   6.714   1.181
28890WAT     H186912   2.626   6.618   1.157
28890WAT     H286913   2.709   6.757   1.175
28891WAT      O86914   1.689   1.138   2.130
28891WAT     H186915   1.617   1.079   2.167
28891WAT     H286916   1.779   1.101   2.154
28892WAT      O86917   7.445   3.365   3.857
28892WAT     H186918   7.453   3.330   3.950
28892WAT     H286919   7.352   3.347   3.823
28893WAT      O86920   2.704   1.512   6.999
28893WAT     H186921   2.675   1.556   7.083
28893WAT     H286922   2.731   1.418   7.018
28894WAT      O86923   8.455   2.704   5.923
28894WAT     H186924   8.504   2.727   6.007
28894WAT     H286925   8.467   2.606   5.903
28895WAT      O86926   1.423   6.849   4.635
28895WAT     H186927   1.457   6.808   4.551
28895WAT     H286928   1.499   6.866   4.698
28896WAT      O86929   4.606   9.501   8.044
28896WAT     H186930   4.699   9.523   8.017
28896WAT     H286931   4.587   9.405   8.025
28897WAT      O86932   9.458   2.477   7.974
28897WAT     H186933   9.402   2.485   7.891
28897WAT     H286934   9.482   2.382   7.990
28898WAT      O86935   1.267   5.899   1.167
28898WAT     H186936   1.243   5.914   1.263
28898WAT     H286937   1.352   5.947   1.146
28899WAT      O86938   0.709   5.158   9.619
28899WAT     H186939   0.648   5.149   9.540
28899WAT     H286940   0.793   5.205   9.591
28900WAT      O86941   1.224   6.309   2.693
28900WAT     H186942   1.250   6.219   2.729
28900WAT     H286943   1.295   6.343   2.632
28901WAT      O86944   2.505   1.592   3.188
28901WAT     H186945   2.430   1.645   3.225
28901WAT     H286946   2.527   1.624   3.096
28902WAT      O86947   0.778   8.475   1.940
28902WAT     H186948   0.728   8.516   2.017
28902WAT     H286949   0.815   8.547   1.882
28903WAT      O86950   7.555   9.818   3.437
28903WAT     H186951   7.610   9.834   3.519
28903WAT     H286952   7.488   9.747   3.456
28904WAT      O86953   9.588   9.404   3.447
28904WAT     H186954   9.616   9.309   3.461
28904WAT     H286955   9.642   9.463   3.508
28905WAT      O86956   0.541   9.054   0.946
28905WAT     H186957   0.455   9.080   0.991
28905WAT     H286958   0.521   8.998   0.866
28906WAT      O86959   7.613   6.570   6.190
28906WAT     H186960   7.674   6.506   6.237
28906WAT     H286961   7.657   6.659   6.183
28907WAT      O86962   7.669   6.539   0.047
28907WAT     H186963   7.647   6.601   0.122
28907WAT     H286964   7.651   6.584  -0.041
28908WAT      O86965   6.180   1.106   5.328
28908WAT     H186966   6.245   1.125   5.255
28908WAT     H286967   6.198   1.016   5.367
28909WAT      O86968   8.494   6.245   8.402
28909WAT     H186969   8.572   6.307   8.412
28909WAT     H286970   8.528   6.151   8.392
28910WAT      O86971   9.442   7.144   0.208
28910WAT     H186972   9.405   7.123   0.298
28910WAT     H286973   9.439   7.243   0.193
28911WAT      O86974   6.202   1.689   8.689
28911WAT     H186975   6.196   1.725   8.596
28911WAT     H286976   6.244   1.757   8.748
28912WAT      O86977   5.527   4.682   9.504
28912WAT     H186978   5.519   4.618   9.580
28912WAT     H286979   5.439   4.729   9.490
28913WAT      O86980   9.755   5.772   6.061
28913WAT     H186981   9.766   5.673   6.070
28913WAT     H286982   9.673   5.801   6.110
28914WAT      O86983   1.534   3.159   3.117
28914WAT     H186984   1.449   3.108   3.110
28914WAT     H286985   1.578   3.164   3.027
28915WAT      O86986   6.383   1.012   1.921
28915WAT     H186987   6.390   1.106   1.888
28915WAT     H286988   6.341   0.955   1.851
28916WAT      O86989   8.244   4.577   3.656
28916WAT     H186990   8.316   4.645   3.639
28916WAT     H286991   8.286   4.494   3.692
28917WAT      O86992   4.530   6.737   4.284
28917WAT     H186993   4.508   6.711   4.378
28917WAT     H286994   4.541   6.836   4.278
28918WAT      O86995   0.287   9.576   0.524
28918WAT     H186996   0.387   9.571   0.527
28918WAT     H286997   0.259   9.667   0.553
28919WAT      O86998   3.155   6.551   8.228
28919WAT     H186999   3.188   6.644   8.239
28919WAT     H287000   3.095   6.527   8.305
28920WAT      O87001   6.611   5.603   5.819
28920WAT     H187002   6.625   5.702   5.813
28920WAT     H287003   6.539   5.576   5.754
28921WAT      O87004   1.105   4.706   4.252
28921WAT     H187005   1.185   4.647   4.237
28921WAT     H287006   1.134   4.789   4.300
28922WAT      O87007   3.802   1.217   3.194
28922WAT     H187008   3.793   1.239   3.291
28922WAT     H287009   3.856   1.134   3.184
28923WAT      O87010   3.399   2.315   8.290
28923WAT     H187011   3.449   2.309   8.377
28923WAT     H287012   3.303   2.293   8.305
28924WAT      O87013   9.746   6.991   5.939
28924WAT     H187014   9.725   6.951   6.028
28924WAT     H287015   9.750   7.090   5.947
28925WAT      O87016   5.117   8.294   7.291
28925WAT     H187017   5.077   8.375   7.248
28925WAT     H287018   5.106   8.300   7.390
28926WAT      O87019   1.285   3.945   5.711
28926WAT     H187020   1.377   3.906   5.715
28926WAT     H287021   1.224   3.881   5.664
28927WAT      O87022   8.613   1.624   4.221
28927WAT     H187023   8.708   1.636   4.190
28927WAT     H287024   8.552   1.677   4.162
28928WAT      O87025   7.981   5.616   8.895
28928WAT     H187026   7.950   5.694   8.841
28928WAT     H287027   7.979   5.639   8.992
28929WAT      O87028   7.646   1.952   7.528
28929WAT     H187029   7.716   2.013   7.490
28929WAT     H287030   7.689   1.869   7.563
28930WAT      O87031   6.161   0.542   4.294
28930WAT     H187032   6.251   0.580   4.317
28930WAT     H287033   6.169   0.443   4.285
28931WAT      O87034   0.368   2.019   5.633
28931WAT     H187035   0.420   2.039   5.550
28931WAT     H287036   0.281   2.068   5.631
28932WAT      O87037   5.771   6.221   6.289
28932WAT     H187038   5.704   6.178   6.228
28932WAT     H287039   5.860   6.224   6.243
28933WAT      O87040   4.753   6.914   7.581
28933WAT     H187041   4.787   6.824   7.554
28933WAT     H287042   4.655   6.919   7.563
28934WAT      O87043   5.812   8.953   2.250
28934WAT     H187044   5.850   9.044   2.230
28934WAT     H287045   5.763   8.956   2.337
28935WAT      O87046   4.537   3.177   1.779
28935WAT     H187047   4.479   3.254   1.754
28935WAT     H287048   4.481   3.106   1.822
28936WAT      O87049   4.004   4.702   9.883
28936WAT     H187050   3.920   4.651   9.901
28936WAT     H287051   4.079   4.661   9.935
28937WAT      O87052   5.149   0.889   4.073
28937WAT     H187053   5.172   0.816   4.009
28937WAT     H287054   5.157   0.855   4.167
28938WAT      O87055   8.894   0.321   9.461
28938WAT     H187056   8.920   0.315   9.558
28938WAT     H287057   8.975   0.345   9.407
28939WAT      O87058   8.669   7.467   7.491
28939WAT     H187059   8.744   7.403   7.477
28939WAT     H287060   8.583   7.416   7.497
28940WAT      O87061   5.274   9.436   8.730
28940WAT     H187062   5.253   9.365   8.797
28940WAT     H287063   5.374   9.444   8.720
28941WAT      O87064   1.869   8.338   8.261
28941WAT     H187065   1.811   8.269   8.304
28941WAT     H287066   1.813   8.397   8.203
28942WAT      O87067   4.231   7.594   0.619
28942WAT     H187068   4.221   7.604   0.520
28942WAT     H287069   4.270   7.678   0.657
28943WAT      O87070   5.730   8.226   5.777
28943WAT     H187071   5.777   8.149   5.819
28943WAT     H287072   5.787   8.263   5.703
28944WAT      O87073   8.307   2.103   5.447
28944WAT     H187074   8.223   2.051   5.461
28944WAT     H287075   8.383   2.057   5.492
28945WAT      O87076   9.329   4.338   5.326
28945WAT     H187077   9.391   4.313   5.400
28945WAT     H287078   9.315   4.260   5.265
28946WAT      O87079   7.125   6.951   5.641
28946WAT     H187080   7.100   6.860   5.607
28946WAT     H287081   7.107   6.956   5.739
28947WAT      O87082   9.593   3.902   8.673
28947WAT     H187083   9.552   3.811   8.673
28947WAT     H287084   9.523   3.969   8.647
28948WAT      O87085   8.799   3.809   3.259
28948WAT     H187086   8.747   3.800   3.174
28948WAT     H287087   8.766   3.888   3.310
28949WAT      O87088   8.805   1.439   0.672
28949WAT     H187089   8.727   1.395   0.628
28949WAT     H287090   8.822   1.527   0.627
28950WAT      O87091   6.235   9.800   0.606
28950WAT     H187092   6.298   9.771   0.535
28950WAT     H287093   6.148   9.751   0.596
28951WAT      O87094   2.261   3.857   3.277
28951WAT     H187095   2.327   3.912   3.225
28951WAT     H287096   2.251   3.896   3.368
28952WAT      O87097   6.471   9.610   5.434
28952WAT     H187098   6.399   9.671   5.401
28952WAT     H287099   6.472   9.527   5.378
28953WAT      O87100   2.566   2.563   4.346
28953WAT     H187101   2.636   2.610   4.291
28953WAT     H287102   2.608   2.487   4.396
28954WAT      O87103   6.920   7.676   5.552
28954WAT     H187104   6.963   7.721   5.629
28954WAT     H287105   6.910   7.578   5.572
28955WAT      O87106   5.254   0.982   8.225
28955WAT     H187107   5.309   1.060   8.193
28955WAT     H287108   5.288   0.953   8.314
28956WAT      O87109   6.506   4.045   6.434
28956WAT     H187110   6.537   4.064   6.341
28956WAT     H287111   6.564   3.974   6.475
28957WAT      O87112   7.928   0.457   6.961
28957WAT     H187113   7.893   0.529   6.901
28957WAT     H287114   8.027   0.451   6.950
28958WAT      O87115   5.818   7.324   4.937
28958WAT     H187116   5.808   7.258   4.862
28958WAT     H287117   5.911   7.361   4.936
28959WAT      O87118   2.119   7.561   8.436
28959WAT     H187119   2.143   7.657   8.423
28959WAT     H287120   2.200   7.504   8.420
28960WAT      O87121   1.197   4.918   4.382
28960WAT     H187122   1.175   4.993   4.445
28960WAT     H287123   1.296   4.903   4.382
28961WAT      O87124   9.132   7.130   2.943
28961WAT     H187125   9.049   7.100   2.897
28961WAT     H287126   9.168   7.056   2.999
28962WAT      O87127   2.145   4.628   2.269
28962WAT     H187128   2.158   4.534   2.301
28962WAT     H287129   2.049   4.653   2.277
28963WAT      O87130   4.238   8.773   0.393
28963WAT     H187131   4.270   8.867   0.403
28963WAT     H287132   4.276   8.717   0.466
28964WAT      O87133   3.519   8.085   8.360
28964WAT     H187134   3.488   8.087   8.265
28964WAT     H287135   3.548   7.992   8.383
28965WAT      O87136   0.429   7.758   2.890
28965WAT     H187137   0.396   7.843   2.932
28965WAT     H287138   0.498   7.779   2.822
28966WAT      O87139   1.839   4.341   0.780
28966WAT     H187140   1.909   4.315   0.714
28966WAT     H287141   1.861   4.303   0.870
28967WAT      O87142   0.998   1.180   8.487
28967WAT     H187143   0.911   1.199   8.441
28967WAT     H287144   1.016   1.252   8.554
28968WAT      O87145   1.062   6.542   5.076
28968WAT     H187146   1.067   6.639   5.054
28968WAT     H287147   1.037   6.491   4.994
28969WAT      O87148   4.795   6.922   0.292
28969WAT     H187149   4.814   6.874   0.377
28969WAT     H287150   4.772   7.017   0.311
28970WAT      O87151   0.577   7.112   6.234
28970WAT     H187152   0.676   7.126   6.231
28970WAT     H287153   0.554   7.031   6.180
28971WAT      O87154   8.536   5.902   6.729
28971WAT     H187155   8.570   5.938   6.816
28971WAT     H287156   8.438   5.920   6.722
28972WAT      O87157   4.859   9.665   4.988
28972WAT     H187158   4.796   9.642   5.063
28972WAT     H287159   4.877   9.763   4.989
28973WAT      O87160   0.772   0.207   7.170
28973WAT     H187161   0.746   0.221   7.266
28973WAT     H287162   0.800   0.295   7.131
28974WAT      O87163   6.130   5.510   1.639
28974WAT     H187164   6.218   5.474   1.607
28974WAT     H287165   6.057   5.477   1.578
28975WAT      O87166   2.984   8.384   9.791
28975WAT     H187167   3.018   8.338   9.873
28975WAT     H287168   3.060   8.396   9.726
28976WAT      O87169   0.667   1.995   1.047
28976WAT     H187170   0.616   2.051   0.981
28976WAT     H287171   0.654   1.898   1.024
28977WAT      O87172   1.270   5.198   6.836
28977WAT     H187173   1.179   5.239   6.837
28977WAT     H287174   1.337   5.265   6.868
28978WAT      O87175   2.907   7.710   8.140
28978WAT     H187176   2.927   7.685   8.045
28978WAT     H287177   2.926   7.808   8.153
28979WAT      O87178   6.563   8.459   8.050
28979WAT     H187179   6.590   8.460   7.954
28979WAT     H287180   6.466   8.483   8.058
28980WAT      O87181   0.808   2.011   2.566
28980WAT     H187182   0.744   2.065   2.621
28980WAT     H287183   0.895   2.059   2.560
28981WAT      O87184   5.987   1.719   8.354
28981WAT     H187185   6.079   1.713   8.391
28981WAT     H287186   5.927   1.655   8.404
28982WAT      O87187   3.715   5.896   2.626
28982WAT     H187188   3.794   5.949   2.655
28982WAT     H287189   3.661   5.949   2.560
28983WAT      O87190   6.557   5.871   3.458
28983WAT     H187191   6.546   5.783   3.502
28983WAT     H287192   6.594   5.937   3.523
28984WAT      O87193   6.987   6.232   3.620
28984WAT     H187194   7.066   6.204   3.676
28984WAT     H287195   6.986   6.178   3.536
28985WAT      O87196   9.329   1.484   6.564
28985WAT     H187197   9.277   1.565   6.535
28985WAT     H287198   9.308   1.463   6.660
28986WAT      O87199   0.473   0.101   4.911
28986WAT     H187200   0.456   0.173   4.844
28986WAT     H287201   0.510   0.141   4.995
28987WAT      O87202   3.592   5.254   6.043
28987WAT     H187203   3.656   5.217   5.976
28987WAT     H287204   3.499   5.250   6.006
28988WAT      O87205   3.360   8.923   6.524
28988WAT     H187206   3.317   8.832   6.523
28988WAT     H287207   3.418   8.934   6.444
28989WAT      O87208   7.475   0.924   1.791
28989WAT     H187209   7.485   0.834   1.748
28989WAT     H287210   7.536   0.931   1.869
28990WAT      O87211   3.077   2.842   0.546
28990WAT     H187212   3.086   2.841   0.646
28990WAT     H287213   2.993   2.796   0.519
28991WAT      O87214   2.058   1.310   7.590
28991WAT     H187215   1.979   1.316   7.530
28991WAT     H287216   2.107   1.225   7.571
28992WAT      O87217   7.021   0.700   1.349
28992WAT     H187218   7.053   0.776   1.292
28992WAT     H287219   7.098   0.646   1.380
28993WAT      O87220   3.462   4.279   1.285
28993WAT     H187221   3.429   4.198   1.333
28993WAT     H287222   3.399   4.300   1.210
28994WAT      O87223   7.933   7.917   0.375
28994WAT     H187224   7.863   7.963   0.320
28994WAT     H287225   7.895   7.893   0.464
28995WAT      O87226   0.116   0.995   8.783
28995WAT     H187227   0.166   1.045   8.712
28995WAT     H287228   0.164   1.003   8.870
28996WAT      O87229   3.043   6.309   0.987
28996WAT     H187230   3.031   6.382   0.921
28996WAT     H287231   3.012   6.223   0.948
28997WAT      O87232   9.639   9.185   2.051
28997WAT     H187233   9.708   9.177   1.979
28997WAT     H287234   9.605   9.279   2.054
28998WAT      O87235   9.803   4.710   7.447
28998WAT     H187236   9.847   4.797   7.422
28998WAT     H287237   9.870   4.636   7.442
28999WAT      O87238   8.135   8.643   3.786
28999WAT     H187239   8.124   8.640   3.687
28999WAT     H287240   8.174   8.730   3.813
29000WAT      O87241   6.833   8.121   7.199
29000WAT     H187242   6.775   8.153   7.124
29000WAT     H287243   6.779   8.061   7.259
29001WAT      O87244   8.380   3.468   8.666
29001WAT     H187245   8.294   3.515   8.646
29001WAT     H287246   8.375   3.427   8.757
29002WAT      O87247   6.075   2.134   9.464
29002WAT     H187248   6.051   2.186   9.546
29002WAT     H287249   5.996   2.080   9.433
29003WAT      O87250   0.950   5.917   8.784
29003WAT     H187251   0.926   5.840   8.726
29003WAT     H287252   0.885   5.991   8.770
29004WAT      O87253   4.452   7.925   0.313
29004WAT     H187254   4.433   7.962   0.222
29004WAT     H287255   4.427   7.993   0.382
29005WAT      O87256   3.572   3.964   3.853
29005WAT     H187257   3.651   3.954   3.913
29005WAT     H287258   3.498   4.010   3.902
29006WAT      O87259   8.982   8.557   3.076
29006WAT     H187260   9.045   8.610   3.020
29006WAT     H287261   8.963   8.605   3.162
29007WAT      O87262   8.969   0.064   8.337
29007WAT     H187263   8.919   0.151   8.332
29007WAT     H287264   9.063   0.078   8.306
29008WAT      O87265   0.105   1.341   7.660
29008WAT     H187266   0.169   1.366   7.732
29008WAT     H287267   0.154   1.330   7.574
29009WAT      O87268   7.619   4.452   8.995
29009WAT     H187269   7.716   4.475   9.002
29009WAT     H287270   7.579   4.499   8.916
29010WAT      O87271   3.312   4.855   8.533
29010WAT     H187272   3.371   4.880   8.610
29010WAT     H287273   3.318   4.924   8.462
29011WAT      O87274   5.368   8.162   2.836
29011WAT     H187275   5.446   8.197   2.887
29011WAT     H287276   5.377   8.187   2.739
29012WAT      O87277   4.332   7.457   3.880
29012WAT     H187278   4.311   7.532   3.817
29012WAT     H287279   4.290   7.474   3.968
29013WAT      O87280   8.790   4.051   3.769
29013WAT     H187281   8.791   4.137   3.819
29013WAT     H287282   8.882   4.030   3.737
29014WAT      O87283   4.482   2.444   5.809
29014WAT     H187284   4.507   2.400   5.895
29014WAT     H287285   4.542   2.522   5.793
29015WAT      O87286   6.012   8.639   6.537
29015WAT     H187287   6.058   8.725   6.560
29015WAT     H287288   6.030   8.615   6.442
29016WAT      O87289   6.034   0.462   8.915
29016WAT     H187290   6.104   0.394   8.895
29016WAT     H287291   5.943   0.420   8.905
29017WAT      O87292   8.508   8.534   4.085
29017WAT     H187293   8.447   8.480   4.027
29017WAT     H287294   8.456   8.606   4.130
29018WAT      O87295   5.552   8.774   7.909
29018WAT     H187296   5.623   8.769   7.839
29018WAT     H287297   5.577   8.717   7.986
29019WAT      O87298   1.837   0.331   5.048
29019WAT     H187299   1.906   0.271   5.008
29019WAT     H287300   1.837   0.419   5.000
29020WAT      O87301   3.985   0.191   5.023
29020WAT     H187302   4.058   0.144   5.072
29020WAT     H287303   4.019   0.278   4.988
29021WAT      O87304   5.439   2.729   8.640
29021WAT     H187305   5.502   2.685   8.703
29021WAT     H287306   5.399   2.660   8.579
29022WAT      O87307   6.287   4.088   4.613
29022WAT     H187308   6.251   4.092   4.706
29022WAT     H287309   6.229   4.142   4.552
29023WAT      O87310   3.181   3.794   0.730
29023WAT     H187311   3.253   3.796   0.799
29023WAT     H287312   3.097   3.757   0.769
29024WAT      O87313   6.381   8.835   4.060
29024WAT     H187314   6.409   8.909   4.122
29024WAT     H287315   6.455   8.816   3.996
29025WAT      O87316   1.289   6.827   0.908
29025WAT     H187317   1.382   6.810   0.875
29025WAT     H287318   1.228   6.838   0.830
29026WAT      O87319   0.714   3.674   8.080
29026WAT     H187320   0.724   3.628   7.992
29026WAT     H287321   0.802   3.679   8.126
29027WAT      O87322   9.251   0.642   5.879
29027WAT     H187323   9.272   0.695   5.797
29027WAT     H287324   9.168   0.679   5.922
29028WAT      O87325   7.532   1.772   0.812
29028WAT     H187326   7.462   1.752   0.882
29028WAT     H287327   7.564   1.866   0.823
29029WAT      O87328   0.984   4.277   2.471
29029WAT     H187329   1.082   4.278   2.449
29029WAT     H287330   0.948   4.185   2.459
29030WAT      O87331   8.593   7.694   0.627
29030WAT     H187332   8.676   7.667   0.676
29030WAT     H287333   8.600   7.790   0.599
29031WAT      O87334   3.660   4.152   1.128
29031WAT     H187335   3.607   4.213   1.187
29031WAT     H287336   3.699   4.078   1.182
29032WAT      O87337   1.599   8.523   2.238
29032WAT     H187338   1.647   8.440   2.267
29032WAT     H287339   1.510   8.527   2.283
29033WAT      O87340   2.139   0.765   7.827
29033WAT     H187341   2.067   0.751   7.895
29033WAT     H287342   2.173   0.859   7.832
29034WAT      O87343   4.522   5.730   5.788
29034WAT     H187344   4.443   5.769   5.741
29034WAT     H287345   4.529   5.770   5.880
29035WAT      O87346   1.832   1.124   4.833
29035WAT     H187347   1.881   1.101   4.917
29035WAT     H287348   1.794   1.040   4.793
29036WAT      O87349   8.524   5.235   3.452
29036WAT     H187350   8.546   5.155   3.397
29036WAT     H287351   8.602   5.297   3.452
29037WAT      O87352   3.055   6.962   4.030
29037WAT     H187353   3.015   6.872   4.041
29037WAT     H287354   3.083   6.975   3.935
29038WAT      O87355   3.856   5.368   7.189
29038WAT     H187356   3.832   5.352   7.093
29038WAT     H287357   3.950   5.402   7.195
29039WAT      O87358   8.874   2.751   4.588
29039WAT     H187359   8.937   2.798   4.527
29039WAT     H287360   8.874   2.653   4.568
29040WAT      O87361   8.756   5.287   8.582
29040WAT     H187362   8.817   5.356   8.621
29040WAT     H287363   8.707   5.326   8.504
29041WAT      O87364   9.463   2.616   9.708
29041WAT     H187365   9.384   2.642   9.653
29041WAT     H287366   9.433   2.562   9.787
29042WAT      O87367   5.684   2.432   4.050
29042WAT     H187368   5.708   2.463   3.958
29042WAT     H287369   5.584   2.428   4.058
29043WAT      O87370   9.186   9.612   2.165
29043WAT     H187371   9.177   9.528   2.220
29043WAT     H287372   9.243   9.678   2.214
29044WAT      O87373   3.622   3.707   8.139
29044WAT     H187374   3.538   3.691   8.087
29044WAT     H287375   3.604   3.698   8.237
29045WAT      O87376   8.342   6.630   8.333
29045WAT     H187377   8.329   6.532   8.316
29045WAT     H287378   8.421   6.662   8.280
29046WAT      O87379   2.953   6.283   5.449
29046WAT     H187380   2.988   6.300   5.357
29046WAT     H287381   2.970   6.188   5.474
29047WAT      O87382   6.376   8.238   1.706
29047WAT     H187383   6.437   8.317   1.698
29047WAT     H287384   6.428   8.155   1.690
29048WAT      O87385   2.027   7.097   5.474
29048WAT     H187386   2.042   7.047   5.389
29048WAT     H287387   2.114   7.117   5.518
29049WAT      O87388   8.411   8.167   3.987
29049WAT     H187389   8.401   8.245   3.926
29049WAT     H287390   8.347   8.174   4.063
29050WAT      O87391   9.326   0.538   2.837
29050WAT     H187392   9.310   0.490   2.751
29050WAT     H287393   9.317   0.637   2.822
29051WAT      O87394   1.264   0.589   7.410
29051WAT     H187395   1.248   0.674   7.359
29051WAT     H287396   1.203   0.586   7.490
29052WAT      O87397   9.428   3.662   6.650
29052WAT     H187398   9.400   3.654   6.745
29052WAT     H287399   9.392   3.584   6.598
29053WAT      O87400   0.847   8.543   6.210
29053WAT     H187401   0.938   8.552   6.171
29053WAT     H287402   0.779   8.569   6.142
29054WAT      O87403   7.862   4.167   1.953
29054WAT     H187404   7.906   4.257   1.947
29054WAT     H287405   7.765   4.179   1.972
29055WAT      O87406   7.819   5.546   2.369
29055WAT     H187407   7.790   5.638   2.397
29055WAT     H287408   7.873   5.553   2.286
29056WAT      O87409   7.647   3.451   5.876
29056WAT     H187410   7.658   3.516   5.951
29056WAT     H287411   7.670   3.496   5.790
29057WAT      O87412   1.209   3.823   6.810
29057WAT     H187413   1.301   3.856   6.831
29057WAT     H287414   1.141   3.886   6.847
29058WAT      O87415   2.187   6.765   6.410
29058WAT     H187416   2.197   6.863   6.399
29058WAT     H287417   2.145   6.726   6.328
29059WAT      O87418   1.150   2.138   0.996
29059WAT     H187419   1.069   2.165   1.048
29059WAT     H287420   1.219   2.210   1.002
29060WAT      O87421   1.735   1.368   4.860
29060WAT     H187422   1.748   1.415   4.773
29060WAT     H287423   1.762   1.272   4.850
29061WAT      O87424   2.048   4.204   7.402
29061WAT     H187425   1.964   4.257   7.412
29061WAT     H287426   2.084   4.215   7.309
29062WAT      O87427   9.062   8.617   7.272
29062WAT     H187428   9.056   8.697   7.212
29062WAT     H287429   9.015   8.540   7.228
29063WAT      O87430   3.425   6.643   9.071
29063WAT     H187431   3.412   6.545   9.053
29063WAT     H287432   3.378   6.667   9.157
29064WAT      O87433   2.448   1.086   4.730
29064WAT     H187434   2.409   1.144   4.802
29064WAT     H287435   2.410   0.994   4.738
29065WAT      O87436   3.735   1.120   2.152
29065WAT     H187437   3.806   1.113   2.082
29065WAT     H287438   3.703   1.028   2.177
29066WAT      O87439   8.462   0.601   2.163
29066WAT     H187440   8.514   0.682   2.136
29066WAT     H287441   8.482   0.580   2.259
29067WAT      O87442   3.810   1.845   3.301
29067WAT     H187443   3.744   1.881   3.367
29067WAT     H287444   3.774   1.855   3.208
29068WAT      O87445   5.581   5.122   9.289
29068WAT     H187446   5.610   5.098   9.382
29068WAT     H287447   5.488   5.091   9.274
29069WAT      O87448   4.549   5.894   8.103
29069WAT     H187449   4.598   5.865   8.021
29069WAT     H287450   4.564   5.992   8.118
29070WAT      O87451   5.911   8.899   3.570
29070WAT     H187452   5.996   8.940   3.605
29070WAT     H287453   5.848   8.883   3.646
29071WAT      O87454   0.196   3.714   9.371
29071WAT     H187455   0.172   3.811   9.379
29071WAT     H287456   0.114   3.658   9.376
29072WAT      O87457   6.471   6.785   7.279
29072WAT     H187458   6.380   6.795   7.320
29072WAT     H287459   6.476   6.697   7.232
29073WAT      O87460   9.430   0.675   7.684
29073WAT     H187461   9.335   0.662   7.709
29073WAT     H287462   9.471   0.587   7.660
29074WAT      O87463   8.284   3.498   7.810
29074WAT     H187464   8.239   3.513   7.722
29074WAT     H287465   8.324   3.583   7.842
29075WAT      O87466   3.940   0.339   7.768
29075WAT     H187467   3.993   0.366   7.849
29075WAT     H287468   3.861   0.285   7.796
29076WAT      O87469   8.272   1.021   7.954
29076WAT     H187470   8.249   0.937   7.905
29076WAT     H287471   8.371   1.033   7.956
29077WAT      O87472   6.191   5.424   5.574
29077WAT     H187473   6.184   5.327   5.550
29077WAT     H287474   6.159   5.437   5.668
29078WAT      O87475   3.723   8.874   1.606
29078WAT     H187476   3.705   8.969   1.581
29078WAT     H287477   3.637   8.823   1.606
29079WAT      O87478   8.005   5.865   7.180
29079WAT     H187479   8.069   5.913   7.120
29079WAT     H287480   7.960   5.791   7.128
29080WAT      O87481   1.389   2.278   4.779
29080WAT     H187482   1.320   2.289   4.708
29080WAT     H287483   1.354   2.215   4.849
29081WAT      O87484   9.176   8.302   6.716
29081WAT     H187485   9.088   8.349   6.711
29081WAT     H287486   9.229   8.338   6.793
29082WAT      O87487   3.649   6.738   4.773
29082WAT     H187488   3.662   6.708   4.867
29082WAT     H287489   3.718   6.807   4.749
29083WAT      O87490   5.243   3.711   9.224
29083WAT     H187491   5.179   3.662   9.283
29083WAT     H287492   5.201   3.731   9.136
29084WAT      O87493   1.968   6.898   2.186
29084WAT     H187494   1.902   6.873   2.256
29084WAT     H287495   2.007   6.987   2.207
29085WAT      O87496   0.215   8.517   7.387
29085WAT     H187497   0.139   8.557   7.336
29085WAT     H287498   0.301   8.549   7.347
29086WAT      O87499   6.452   3.822   1.574
29086WAT     H187500   6.506   3.801   1.492
29086WAT     H287501   6.490   3.772   1.652
29087WAT      O87502   5.846   9.361   5.905
29087WAT     H187503   5.871   9.435   5.843
29087WAT     H287504   5.815   9.400   5.992
29088WAT      O87505   0.569   9.533   1.221
29088WAT     H187506   0.493   9.550   1.284
29088WAT     H287507   0.595   9.436   1.226
29089WAT      O87508   4.437   0.930   3.782
29089WAT     H187509   4.409   0.908   3.688
29089WAT     H287510   4.393   1.015   3.811
29090WAT      O87511   8.907   4.045   9.675
29090WAT     H187512   8.881   4.113   9.744
29090WAT     H287513   9.004   4.022   9.687
29091WAT      O87514   0.535   5.449   6.310
29091WAT     H187515   0.633   5.464   6.291
29091WAT     H287516   0.496   5.394   6.236
29092WAT      O87517   6.017   4.603   7.434
29092WAT     H187518   5.954   4.645   7.369
29092WAT     H287519   6.110   4.634   7.416
29093WAT      O87520   3.057   0.454   9.415
29093WAT     H187521   3.020   0.545   9.398
29093WAT     H287522   2.988   0.398   9.461
29094WAT      O87523   9.344   8.199   7.274
29094WAT     H187524   9.371   8.277   7.218
29094WAT     H287525   9.419   8.134   7.278
29095WAT      O87526   0.163   9.086   8.146
29095WAT     H187527   0.149   8.988   8.155
29095WAT     H287528   0.163   9.128   8.237
29096WAT      O87529   5.126   7.690   7.946
29096WAT     H187530   5.177   7.760   7.997
29096WAT     H287531   5.151   7.695   7.849
29097WAT      O87532   8.715   3.397   2.828
29097WAT     H187533   8.657   3.427   2.903
29097WAT     H287534   8.727   3.472   2.763
29098WAT      O87535   4.440   8.457   2.941
29098WAT     H187536   4.440   8.400   3.023
29098WAT     H287537   4.352   8.450   2.895
29099WAT      O87538   4.956   5.352   2.978
29099WAT     H187539   4.933   5.412   3.055
29099WAT     H287540   5.020   5.398   2.918
29100WAT      O87541   7.563   7.638   3.416
29100WAT     H187542   7.549   7.733   3.386
29100WAT     H287543   7.555   7.577   3.338
29101WAT      O87544   8.924   1.572   7.235
29101WAT     H187545   8.957   1.581   7.329
29101WAT     H287546   8.888   1.480   7.221
29102WAT      O87547   3.365   9.237   5.225
29102WAT     H187548   3.437   9.169   5.237
29102WAT     H287549   3.302   9.234   5.303
29103WAT      O87550   8.832   0.925   8.835
29103WAT     H187551   8.903   0.970   8.888
29103WAT     H287552   8.864   0.910   8.742
29104WAT      O87553   1.994   6.349   8.553
29104WAT     H187554   2.083   6.394   8.549
29104WAT     H287555   1.926   6.405   8.506
29105WAT      O87556   5.836   8.695   5.754
29105WAT     H187557   5.866   8.724   5.845
29105WAT     H287558   5.916   8.687   5.694
29106WAT      O87559   2.585   6.164   0.702
29106WAT     H187560   2.630   6.184   0.615
29106WAT     H287561   2.559   6.250   0.747
29107WAT      O87562   4.740   4.793   8.726
29107WAT     H187563   4.797   4.865   8.686
29107WAT     H287564   4.798   4.716   8.753
29108WAT      O87565   0.973   7.418   8.963
29108WAT     H187566   1.006   7.492   9.022
29108WAT     H287567   0.950   7.338   9.019
29109WAT      O87568   1.183   5.476   8.279
29109WAT     H187569   1.110   5.413   8.253
29109WAT     H287570   1.209   5.532   8.201
29110WAT      O87571   5.164   8.223   9.790
29110WAT     H187572   5.069   8.204   9.814
29110WAT     H287573   5.167   8.300   9.726
29111WAT      O87574   1.466   6.016   2.336
29111WAT     H187575   1.464   5.922   2.369
29111WAT     H287576   1.389   6.067   2.374
29112WAT      O87577   1.269   7.012   7.207
29112WAT     H187578   1.329   6.963   7.144
29112WAT     H287579   1.184   6.959   7.219
29113WAT      O87580   9.082   7.031   4.022
29113WAT     H187581   9.081   7.115   3.968
29113WAT     H287582   9.101   6.954   3.961
29114WAT      O87583   4.199   7.581   8.725
29114WAT     H187584   4.113   7.593   8.774
29114WAT     H287585   4.276   7.602   8.786
29115WAT      O87586   1.463   2.237   2.631
29115WAT     H187587   1.484   2.139   2.634
29115WAT     H287588   1.432   2.262   2.539
29116WAT      O87589   8.104   4.686   2.787
29116WAT     H187590   8.127   4.769   2.839
29116WAT     H287591   8.168   4.675   2.711
29117WAT      O87592   2.466   5.319   3.901
29117WAT     H187593   2.383   5.354   3.946
29117WAT     H287594   2.445   5.234   3.854
29118WAT      O87595   3.204   7.807   5.126
29118WAT     H187596   3.109   7.795   5.100
29118WAT     H287597   3.263   7.761   5.059
29119WAT      O87598   3.931   2.942   8.166
29119WAT     H187599   3.941   2.895   8.078
29119WAT     H287600   3.904   2.876   8.236
29120WAT      O87601   4.096   4.255   4.129
29120WAT     H187602   4.160   4.180   4.110
29120WAT     H287603   4.007   4.234   4.089
29121WAT      O87604   1.167   0.149   7.773
29121WAT     H187605   1.207   0.156   7.864
29121WAT     H287606   1.105   0.070   7.770
29122WAT      O87607   2.513   4.899   7.326
29122WAT     H187608   2.553   4.854   7.405
29122WAT     H287609   2.585   4.927   7.263
29123WAT      O87610   1.731   4.988   2.686
29123WAT     H187611   1.804   5.052   2.709
29123WAT     H287612   1.768   4.916   2.626
29124WAT      O87613   7.286   1.894   1.510
29124WAT     H187614   7.363   1.880   1.448
29124WAT     H287615   7.303   1.975   1.566
29125WAT      O87616   7.624   5.942   3.151
29125WAT     H187617   7.723   5.935   3.140
29125WAT     H287618   7.603   6.000   3.230
29126WAT      O87619   1.986   0.302   6.946
29126WAT     H187620   2.020   0.278   7.037
29126WAT     H287621   1.891   0.272   6.937
29127WAT      O87622   3.666   2.803   9.049
29127WAT     H187623   3.621   2.839   8.967
29127WAT     H287624   3.647   2.705   9.058
29128WAT      O87625   8.028   0.967   7.452
29128WAT     H187626   8.057   1.015   7.535
29128WAT     H287627   8.082   0.999   7.374
29129WAT      O87628   8.105   4.378   7.713
29129WAT     H187629   8.179   4.314   7.731
29129WAT     H287630   8.142   4.462   7.673
29130WAT      O87631   7.275   3.081   2.661
29130WAT     H187632   7.295   3.162   2.717
29130WAT     H287633   7.361   3.032   2.642
29131WAT      O87634   7.628   5.365   9.193
29131WAT     H187635   7.610   5.379   9.291
29131WAT     H287636   7.552   5.400   9.139
29132WAT      O87637   1.262   6.550   4.043
29132WAT     H187638   1.359   6.546   4.019
29132WAT     H287639   1.248   6.623   4.111
29133WAT      O87640   0.047   3.237   5.260
29133WAT     H187641   0.003   3.317   5.221
29133WAT     H287642   0.090   3.261   5.347
29134WAT      O87643   2.625   2.747   3.744
29134WAT     H187644   2.559   2.693   3.692
29134WAT     H287645   2.710   2.696   3.755
29135WAT      O87646   1.205   7.842   6.586
29135WAT     H187647   1.109   7.866   6.602
29135WAT     H287648   1.262   7.890   6.653
29136WAT      O87649   4.608   7.808   2.150
29136WAT     H187650   4.560   7.723   2.171
29136WAT     H287651   4.618   7.817   2.051
29137WAT      O87652   1.203   2.988   7.263
29137WAT     H187653   1.166   2.898   7.288
29137WAT     H287654   1.203   2.997   7.163
29138WAT      O87655   1.260   8.411   4.420
29138WAT     H187656   1.254   8.344   4.346
29138WAT     H287657   1.265   8.503   4.380
29139WAT      O87658   0.357   9.046   0.097
29139WAT     H187659   0.294   8.990   0.150
29139WAT     H287660   0.338   9.143   0.114
29140WAT      O87661   8.207   7.217   0.380
29140WAT     H187662   8.182   7.310   0.407
29140WAT     H287663   8.213   7.159   0.462
29141WAT      O87664   0.522   5.427   7.167
29141WAT     H187665   0.431   5.465   7.184
29141WAT     H287666   0.512   5.335   7.128
29142WAT      O87667   5.735   2.480   7.042
29142WAT     H187668   5.637   2.484   7.021
29142WAT     H287669   5.754   2.399   7.097
29143WAT      O87670   6.436   0.003   4.835
29143WAT     H187671   6.535   0.004   4.824
29143WAT     H287672   6.399   0.094   4.814
29144WAT      O87673   6.256   0.321   0.898
29144WAT     H187674   6.183   0.253   0.885
29144WAT     H287675   6.256   0.384   0.820
29145WAT      O87676   5.448   4.425   7.392
29145WAT     H187677   5.443   4.339   7.341
29145WAT     H287678   5.415   4.500   7.335
29146WAT      O87679   8.709   1.495   6.445
29146WAT     H187680   8.797   1.515   6.488
29146WAT     H287681   8.697   1.396   6.438
29147WAT      O87682   2.460   2.871   8.137
29147WAT     H187683   2.364   2.879   8.111
29147WAT     H287684   2.467   2.826   8.226
29148WAT      O87685   7.739   1.825   3.470
29148WAT     H187686   7.719   1.859   3.378
29148WAT     H287687   7.674   1.864   3.535
29149WAT      O87688   6.906   9.748   5.535
29149WAT     H187689   6.985   9.782   5.484
29149WAT     H287690   6.822   9.769   5.484
29150WAT      O87691   2.699   7.906   5.355
29150WAT     H187692   2.658   7.837   5.415
29150WAT     H287693   2.627   7.958   5.310
29151WAT      O87694   5.000   7.514   3.189
29151WAT     H187695   4.980   7.447   3.117
29151WAT     H287696   5.085   7.490   3.235
29152WAT      O87697   2.035   7.634   9.199
29152WAT     H187698   2.127   7.625   9.163
29152WAT     H287699   2.038   7.682   9.287
29153WAT      O87700   4.920   6.490   3.752
29153WAT     H187701   5.014   6.456   3.750
29153WAT     H287702   4.871   6.457   3.671
29154WAT      O87703   4.223   1.833   4.052
29154WAT     H187704   4.188   1.804   3.963
29154WAT     H287705   4.199   1.765   4.121
29155WAT      O87706   1.231   1.232   5.236
29155WAT     H187707   1.284   1.222   5.152
29155WAT     H287708   1.145   1.279   5.215
29156WAT      O87709   2.002   7.619   8.757
29156WAT     H187710   2.005   7.520   8.769
29156WAT     H287711   2.096   7.653   8.747
29157WAT      O87712   9.851   3.012   3.734
29157WAT     H187713   9.850   2.914   3.753
29157WAT     H287714   9.818   3.029   3.642
29158WAT      O87715   3.375   1.283   7.566
29158WAT     H187716   3.389   1.379   7.541
29158WAT     H287717   3.411   1.268   7.658
29159WAT      O87718   8.294   9.119   5.394
29159WAT     H187719   8.222   9.135   5.326
29159WAT     H287720   8.262   9.148   5.484
29160WAT      O87721   8.967   6.995   2.683
29160WAT     H187722   8.942   7.086   2.652
29160WAT     H287723   8.935   6.983   2.777
29161WAT      O87724   1.772   2.997   7.902
29161WAT     H187725   1.786   2.968   7.807
29161WAT     H287726   1.691   2.953   7.939
29162WAT      O87727   4.546   0.388   7.798
29162WAT     H187728   4.464   0.413   7.746
29162WAT     H287729   4.519   0.342   7.882
29163WAT      O87730   7.844   3.471   8.351
29163WAT     H187731   7.796   3.383   8.347
29163WAT     H287732   7.797   3.536   8.290
29164WAT      O87733   4.206   1.738   7.623
29164WAT     H187734   4.187   1.740   7.721
29164WAT     H287735   4.295   1.695   7.607
29165WAT      O87736   6.561   2.849   9.273
29165WAT     H187737   6.533   2.906   9.196
29165WAT     H287738   6.544   2.753   9.252
29166WAT      O87739   4.869   2.430   6.380
29166WAT     H187740   4.788   2.372   6.391
29166WAT     H287741   4.907   2.416   6.289
29167WAT      O87742   7.922   0.360   0.125
29167WAT     H187743   7.876   0.395   0.044
29167WAT     H287744   8.019   0.345   0.105
29168WAT      O87745   4.234   7.838   9.734
29168WAT     H187746   4.206   7.743   9.750
29168WAT     H287747   4.334   7.845   9.739
29169WAT      O87748   2.237   0.290   3.984
29169WAT     H187749   2.148   0.255   3.955
29169WAT     H287750   2.280   0.341   3.910
29170WAT      O87751   3.958   7.519   2.249
29170WAT     H187752   4.040   7.474   2.215
29170WAT     H287753   3.928   7.588   2.184
29171WAT      O87754   2.676   6.052   2.527
29171WAT     H187755   2.683   6.054   2.427
29171WAT     H287756   2.581   6.064   2.554
29172WAT      O87757   6.825   9.485   3.123
29172WAT     H187758   6.776   9.419   3.065
29172WAT     H287759   6.760   9.529   3.186
29173WAT      O87760   8.915   7.942   7.894
29173WAT     H187761   8.990   8.005   7.874
29173WAT     H287762   8.830   7.994   7.909
29174WAT      O87763   9.792   4.608   8.738
29174WAT     H187764   9.794   4.704   8.765
29174WAT     H287765   9.813   4.550   8.817
29175WAT      O87766   5.278   3.569   2.452
29175WAT     H187767   5.228   3.617   2.379
29175WAT     H287768   5.215   3.546   2.526
29176WAT      O87769   9.133   4.000   5.329
29176WAT     H187770   9.040   4.029   5.349
29176WAT     H287771   9.178   4.070   5.273
29177WAT      O87772   2.551   3.507   4.977
29177WAT     H187773   2.453   3.527   4.972
29177WAT     H287774   2.565   3.410   5.000
29178WAT      O87775   8.064   7.325   8.429
29178WAT     H187776   8.076   7.238   8.477
29178WAT     H287777   8.008   7.386   8.485
29179WAT      O87778   1.369   8.179   3.858
29179WAT     H187779   1.425   8.113   3.909
29179WAT     H287780   1.305   8.130   3.799
29180WAT      O87781   1.085   6.752   3.399
29180WAT     H187782   1.065   6.839   3.445
29180WAT     H287783   1.073   6.677   3.464
29181WAT      O87784   4.147   0.426   5.594
29181WAT     H187785   4.059   0.454   5.632
29181WAT     H287786   4.156   0.460   5.501
29182WAT      O87787   8.149   3.934   9.325
29182WAT     H187788   8.216   3.911   9.396
29182WAT     H287789   8.163   4.029   9.295
29183WAT      O87790   4.756   6.369   6.469
29183WAT     H187791   4.685   6.319   6.419
29183WAT     H287792   4.790   6.444   6.413
29184WAT      O87793   9.060   5.554   7.826
29184WAT     H187794   9.001   5.500   7.886
29184WAT     H287795   9.011   5.574   7.741
29185WAT      O87796   3.113   6.814   9.207
29185WAT     H187797   3.200   6.770   9.229
29185WAT     H287798   3.098   6.891   9.269
29186WAT      O87799   8.408   4.223   4.505
29186WAT     H187800   8.459   4.199   4.587
29186WAT     H287801   8.422   4.319   4.484
29187WAT      O87802   1.383   7.667   7.969
29187WAT     H187803   1.444   7.727   7.917
29187WAT     H287804   1.431   7.582   7.992
29188WAT      O87805   7.641   5.005   0.779
29188WAT     H187806   7.736   5.001   0.808
29188WAT     H287807   7.626   4.939   0.705
29189WAT      O87808   7.772   7.091   5.934
29189WAT     H187809   7.684   7.124   5.971
29189WAT     H287810   7.756   7.047   5.846
29190WAT      O87811   6.521   0.864   6.596
29190WAT     H187812   6.580   0.798   6.642
29190WAT     H287813   6.531   0.954   6.638
29191WAT      O87814   3.072   6.320   6.184
29191WAT     H187815   3.093   6.384   6.259
29191WAT     H287816   3.146   6.253   6.176
29192WAT      O87817   6.897   0.109   4.009
29192WAT     H187818   6.805   0.134   4.039
29192WAT     H287819   6.950   0.077   4.088
29193WAT      O87820   6.251   0.457   2.762
29193WAT     H187821   6.305   0.507   2.695
29193WAT     H287822   6.305   0.382   2.800
29194WAT      O87823   9.651   7.613   5.702
29194WAT     H187824   9.674   7.515   5.702
29194WAT     H287825   9.710   7.661   5.767
29195WAT      O87826   4.881   9.763   5.385
29195WAT     H187827   4.824   9.842   5.404
29195WAT     H287828   4.972   9.776   5.426
29196WAT      O87829   4.820   8.752   4.472
29196WAT     H187830   4.764   8.704   4.404
29196WAT     H287831   4.776   8.747   4.561
29197WAT      O87832   7.779   7.852   0.606
29197WAT     H187833   7.794   7.845   0.704
29197WAT     H287834   7.707   7.788   0.578
29198WAT      O87835   9.506   3.309   9.406
29198WAT     H187836   9.596   3.273   9.381
29198WAT     H287837   9.494   3.305   9.505
29199WAT      O87838   2.704   8.175   0.133
29199WAT     H187839   2.619   8.159   0.083
29199WAT     H287840   2.782   8.155   0.073
29200WAT      O87841   8.441   4.688   6.892
29200WAT     H187842   8.483   4.706   6.804
29200WAT     H287843   8.413   4.775   6.934
29201WAT      O87844   4.585   9.045   0.143
29201WAT     H187845   4.522   9.122   0.146
29201WAT     H287846   4.546   8.971   0.088
29202WAT      O87847   0.987   9.544   6.289
29202WAT     H187848   0.909   9.552   6.351
29202WAT     H287849   0.953   9.532   6.195
29203WAT      O87850   3.742   7.181   4.304
29203WAT     H187851   3.795   7.183   4.219
29203WAT     H287852   3.644   7.185   4.283
29204WAT      O87853   1.060   2.803   8.931
29204WAT     H187854   1.037   2.783   9.026
29204WAT     H287855   1.155   2.775   8.913
29205WAT      O87856   5.255   7.605   4.877
29205WAT     H187857   5.216   7.680   4.931
29205WAT     H287858   5.321   7.555   4.933
29206WAT      O87859   6.159   9.195   0.014
29206WAT     H187860   6.215   9.249  -0.049
29206WAT     H287861   6.164   9.235   0.106
29207WAT      O87862   0.402   8.608   6.624
29207WAT     H187863   0.373   8.512   6.628
29207WAT     H287864   0.333   8.664   6.670
29208WAT      O87865   3.366   2.170   3.213
29208WAT     H187866   3.312   2.209   3.287
29208WAT     H287867   3.374   2.071   3.226
29209WAT      O87868   6.878   4.431   0.222
29209WAT     H187869   6.871   4.342   0.176
29209WAT     H287870   6.813   4.435   0.297
29210WAT      O87871   4.505   2.894   5.136
29210WAT     H187872   4.578   2.923   5.074
29210WAT     H287873   4.545   2.864   5.223
29211WAT      O87874   5.616   2.708   3.868
29211WAT     H187875   5.557   2.745   3.797
29211WAT     H287876   5.676   2.638   3.829
29212WAT      O87877   3.629   1.321   7.034
29212WAT     H187878   3.529   1.330   7.035
29212WAT     H287879   3.670   1.401   7.077
29213WAT      O87880   0.207   9.041   6.046
29213WAT     H187881   0.246   9.126   6.080
29213WAT     H287882   0.268   8.965   6.069
29214WAT      O87883   7.738   6.668   6.506
29214WAT     H187884   7.664   6.720   6.462
29214WAT     H287885   7.698   6.597   6.564
29215WAT      O87886   8.955   6.285   6.114
29215WAT     H187887   8.888   6.287   6.188
29215WAT     H287888   8.941   6.363   6.054
29216WAT      O87889   0.434   4.794   2.114
29216WAT     H187890   0.488   4.778   2.197
29216WAT     H287891   0.346   4.748   2.122
29217WAT      O87892   9.214   0.322   0.188
29217WAT     H187893   9.191   0.314   0.091
29217WAT     H287894   9.155   0.262   0.242
29218WAT      O87895   7.406   6.667   5.477
29218WAT     H187896   7.345   6.667   5.397
29218WAT     H287897   7.356   6.699   5.557
29219WAT      O87898   8.822   5.635   8.276
29219WAT     H187899   8.775   5.547   8.285
29219WAT     H287900   8.799   5.676   8.187
29220WAT      O87901   1.938   5.232   5.830
29220WAT     H187902   1.910   5.160   5.767
29220WAT     H287903   2.037   5.227   5.845
29221WAT      O87904   8.779   4.209   0.231
29221WAT     H187905   8.797   4.114   0.258
29221WAT     H287906   8.698   4.243   0.279
29222WAT      O87907   7.373   6.811   8.801
29222WAT     H187908   7.324   6.879   8.855
29222WAT     H287909   7.366   6.722   8.845
29223WAT      O87910   6.512   7.021   5.424
29223WAT     H187911   6.458   7.056   5.348
29223WAT     H287912   6.596   6.979   5.389
29224WAT      O87913   3.482   1.379   1.941
29224WAT     H187914   3.569   1.368   1.894
29224WAT     H287915   3.483   1.329   2.027
29225WAT      O87916   6.663   6.407   4.195
29225WAT     H187917   6.736   6.472   4.174
29225WAT     H287918   6.592   6.413   4.125
29226WAT      O87919   8.016   0.260   6.450
29226WAT     H187920   7.917   0.274   6.447
29226WAT     H287921   8.053   0.306   6.531
29227WAT      O87922   3.106   8.763   2.993
29227WAT     H187923   3.075   8.668   2.993
29227WAT     H287924   3.185   8.772   2.933
29228WAT      O87925   9.305   7.052   8.014
29228WAT     H187926   9.305   7.127   7.948
29228WAT     H287927   9.216   7.006   8.013
29229WAT      O87928   6.872   5.781   1.654
29229WAT     H187929   6.880   5.704   1.717
29229WAT     H287930   6.925   5.858   1.688
29230WAT      O87931   8.928   1.196   7.592
29230WAT     H187932   8.855   1.231   7.534
29230WAT     H287933   8.994   1.269   7.611
29231WAT      O87934   3.188   9.726   4.139
29231WAT     H187935   3.229   9.635   4.139
29231WAT     H287936   3.259   9.794   4.159
29232WAT      O87937   3.200   5.358   8.360
29232WAT     H187938   3.283   5.307   8.382
29232WAT     H287939   3.221   5.427   8.292
29233WAT      O87940   1.135   8.896   1.188
29233WAT     H187941   1.165   8.987   1.215
29233WAT     H287942   1.072   8.860   1.257
29234WAT      O87943   1.807   0.324   6.104
29234WAT     H187944   1.799   0.412   6.057
29234WAT     H287945   1.895   0.319   6.152
29235WAT      O87946   9.797   7.936   1.323
29235WAT     H187947   9.744   7.952   1.407
29235WAT     H287948   9.737   7.897   1.253
29236WAT      O87949   3.221   0.817   8.793
29236WAT     H187950   3.265   0.858   8.713
29236WAT     H287951   3.271   0.734   8.819
29237WAT      O87952   6.512   5.635   6.936
29237WAT     H187953   6.431   5.594   6.978
29237WAT     H287954   6.488   5.670   6.846
29238WAT      O87955   1.905   4.639   4.373
29238WAT     H187956   1.996   4.601   4.355
29238WAT     H287957   1.835   4.570   4.355
29239WAT      O87958   9.021   5.304   6.117
29239WAT     H187959   9.077   5.383   6.138
29239WAT     H287960   9.080   5.227   6.093
29240WAT      O87961   7.876   0.584   9.701
29240WAT     H187962   7.928   0.564   9.618
29240WAT     H287963   7.829   0.502   9.732
29241WAT      O87964   8.370   0.693   1.307
29241WAT     H187965   8.317   0.715   1.225
29241WAT     H287966   8.417   0.606   1.294
29242WAT      O87967   2.707   0.831   5.214
29242WAT     H187968   2.650   0.751   5.237
29242WAT     H287969   2.733   0.878   5.298
29243WAT      O87970   5.904   0.161   2.856
29243WAT     H187971   5.940   0.224   2.924
29243WAT     H287972   5.825   0.113   2.894
29244WAT      O87973   7.605   0.564   4.553
29244WAT     H187974   7.646   0.525   4.635
29244WAT     H287975   7.520   0.611   4.577
29245WAT      O87976   0.153   9.046   4.986
29245WAT     H187977   0.104   9.125   4.947
29245WAT     H287978   0.215   9.009   4.917
29246WAT      O87979   0.999   7.625   4.190
29246WAT     H187980   1.043   7.659   4.107
29246WAT     H287981   1.046   7.543   4.222
29247WAT      O87982   9.408   0.868   9.662
29247WAT     H187983   9.479   0.798   9.673
29247WAT     H287984   9.449   0.950   9.622
29248WAT      O87985   0.287   5.406   3.407
29248WAT     H187986   0.374   5.421   3.454
29248WAT     H287987   0.269   5.483   3.346
29249WAT      O87988   6.942   3.108   5.582
29249WAT     H187989   6.924   3.154   5.668
29249WAT     H287990   6.975   3.015   5.600
29250WAT      O87991   0.441   6.435   8.252
29250WAT     H187992   0.371   6.506   8.261
29250WAT     H287993   0.441   6.399   8.159
29251WAT      O87994   0.813   1.774   4.345
29251WAT     H187995   0.821   1.698   4.410
29251WAT     H287996   0.864   1.752   4.262
29252WAT      O87997   2.100   3.388   0.547
29252WAT     H187998   2.035   3.448   0.593
29252WAT     H287999   2.058   3.352   0.463
29253WAT      O88000   2.787   3.691   6.264
29253WAT     H188001   2.824   3.744   6.341
29253WAT     H288002   2.698   3.729   6.238
29254WAT      O88003   9.359   7.877   5.540
29254WAT     H188004   9.285   7.925   5.588
29254WAT     H288005   9.366   7.784   5.576
29255WAT      O88006   7.977   9.636   9.716
29255WAT     H188007   7.938   9.665   9.629
29255WAT     H288008   7.912   9.656   9.789
29256WAT      O88009   1.563   8.786   1.114
29256WAT     H188010   1.609   8.711   1.161
29256WAT     H288011   1.631   8.857   1.092
29257WAT      O88012   3.620   5.147   4.219
29257WAT     H188013   3.695   5.106   4.271
29257WAT     H288014   3.556   5.075   4.191
29258WAT      O88015   4.120   5.200  -0.005
29258WAT     H188016   4.073   5.288  -0.012
29258WAT     H288017   4.116   5.167   0.090
29259WAT      O88018   3.657   7.858   8.448
29259WAT     H188019   3.650   7.813   8.537
29259WAT     H288020   3.724   7.811   8.392
29260WAT      O88021   4.086   8.864   2.927
29260WAT     H188022   4.055   8.950   2.967
29260WAT     H288023   4.052   8.857   2.833
29261WAT      O88024   5.029   0.398   2.879
29261WAT     H188025   4.988   0.309   2.895
29261WAT     H288026   5.033   0.416   2.780
29262WAT      O88027   2.755   3.173   9.542
29262WAT     H188028   2.794   3.088   9.578
29262WAT     H288029   2.824   3.246   9.549
29263WAT      O88030   9.316   0.348   5.652
29263WAT     H188031   9.236   0.356   5.711
29263WAT     H288032   9.368   0.265   5.677
29264WAT      O88033   1.152   9.829   4.466
29264WAT     H188034   1.208   9.770   4.524
29264WAT     H288035   1.099   9.892   4.523
29265WAT      O88036   0.867   2.746   9.100
29265WAT     H188037   0.813   2.684   9.043
29265WAT     H288038   0.871   2.709   9.193
29266WAT      O88039   6.214   7.137   3.997
29266WAT     H188040   6.218   7.104   3.902
29266WAT     H288041   6.282   7.209   4.010
29267WAT      O88042   9.738   3.459   2.396
29267WAT     H188043   9.776   3.545   2.430
29267WAT     H288044   9.640   3.455   2.417
29268WAT      O88045   0.505   6.930   9.261
29268WAT     H188046   0.443   6.889   9.328
29268WAT     H288047   0.589   6.875   9.256
29269WAT      O88048   5.618   4.550   6.287
29269WAT     H188049   5.680   4.615   6.244
29269WAT     H288050   5.629   4.460   6.246
29270WAT      O88051   4.986   2.072   8.893
29270WAT     H188052   4.918   2.142   8.915
29270WAT     H288053   5.075   2.116   8.877
29271WAT      O88054   1.529   1.166   7.544
29271WAT     H188055   1.461   1.097   7.571
29271WAT     H288056   1.616   1.121   7.525
29272WAT      O88057   3.042   0.145   0.255
29272WAT     H188058   3.000   0.233   0.230
29272WAT     H288059   3.031   0.081   0.178
29273WAT      O88060   0.177   4.106   1.654
29273WAT     H188061   0.127   4.128   1.570
29273WAT     H288062   0.274   4.096   1.633
29274WAT      O88063   8.112   1.511   2.046
29274WAT     H188064   8.036   1.447   2.035
29274WAT     H288065   8.177   1.474   2.112
29275WAT      O88066   6.852   3.227   9.091
29275WAT     H188067   6.829   3.276   9.007
29275WAT     H288068   6.813   3.275   9.169
29276WAT      O88069   2.961   3.048   8.097
29276WAT     H188070   2.895   3.008   8.034
29276WAT     H288071   2.916   3.068   8.184
29277WAT      O88072   0.073   7.725   7.852
29277WAT     H188073   0.064   7.633   7.813
29277WAT     H288074   0.123   7.784   7.789
29278WAT      O88075   9.334   8.420   8.749
29278WAT     H188076   9.313   8.393   8.655
29278WAT     H288077   9.406   8.489   8.749
29279WAT      O88078   7.463   1.728   2.817
29279WAT     H188079   7.426   1.814   2.781
29279WAT     H288080   7.388   1.671   2.850
29280WAT      O88081   9.843   2.933   3.032
29280WAT     H188082   9.896   2.911   3.114
29280WAT     H288083   9.751   2.962   3.058
29281WAT      O88084   2.000   2.703   3.963
29281WAT     H188085   2.068   2.753   3.909
29281WAT     H288086   2.026   2.606   3.968
29282WAT      O88087   7.223   1.022   7.641
29282WAT     H188088   7.222   1.101   7.701
29282WAT     H288089   7.199   1.050   7.548
29283WAT      O88090   3.510   0.415   6.555
29283WAT     H188091   3.579   0.485   6.576
29283WAT     H288092   3.523   0.337   6.617
29284WAT      O88093   5.575   3.993   2.511
29284WAT     H188094   5.483   3.967   2.541
29284WAT     H288095   5.643   3.939   2.561
29285WAT      O88096   8.796   0.655   6.118
29285WAT     H188097   8.767   0.749   6.136
29285WAT     H288098   8.718   0.600   6.088
29286WAT      O88099   0.987   5.423   1.455
29286WAT     H188100   0.968   5.332   1.491
29286WAT     H288101   0.980   5.422   1.355
29287WAT      O88102   2.199   5.741   0.507
29287WAT     H188103   2.107   5.778   0.495
29287WAT     H288104   2.250   5.750   0.422
29288WAT      O88105   4.453   4.435   8.627
29288WAT     H188106   4.542   4.436   8.581
29288WAT     H288107   4.460   4.485   8.713
29289WAT      O88108   6.208   2.830   8.160
29289WAT     H188109   6.168   2.782   8.081
29289WAT     H288110   6.142   2.831   8.235
29290WAT      O88111   9.225   3.749   4.058
29290WAT     H188112   9.154   3.679   4.072
29290WAT     H288113   9.209   3.826   4.119
29291WAT      O88114   0.628   4.281   7.163
29291WAT     H188115   0.593   4.232   7.243
29291WAT     H288116   0.686   4.219   7.109
29292WAT      O88117   0.370   8.016   2.960
29292WAT     H188118   0.297   8.029   3.027
29292WAT     H288119   0.370   8.091   2.895
29293WAT      O88120   0.398   0.385   4.372
29293WAT     H188121   0.306   0.371   4.408
29293WAT     H288122   0.436   0.296   4.344
29294WAT      O88123   5.976   4.602   1.438
29294WAT     H188124   6.023   4.634   1.520
29294WAT     H288125   5.938   4.680   1.388
29295WAT      O88126   3.863   1.053   6.285
29295WAT     H188127   3.768   1.073   6.262
29295WAT     H288128   3.866   0.975   6.348
29296WAT      O88129   4.817   3.517   6.342
29296WAT     H188130   4.916   3.503   6.347
29296WAT     H288131   4.797   3.611   6.315
29297WAT      O88132   7.579   1.553   1.098
29297WAT     H188133   7.532   1.569   1.184
29297WAT     H288134   7.630   1.636   1.072
29298WAT      O88135   8.628   3.367   5.632
29298WAT     H188136   8.572   3.306   5.575
29298WAT     H288137   8.570   3.434   5.678
29299WAT      O88138   5.072   0.733   9.028
29299WAT     H188139   4.984   0.684   9.030
29299WAT     H288140   5.109   0.738   9.121
29300WAT      O88141   4.758   1.201   9.419
29300WAT     H188142   4.745   1.274   9.487
29300WAT     H288143   4.830   1.228   9.355
29301WAT      O88144   4.380   8.433   3.552
29301WAT     H188145   4.286   8.446   3.520
29301WAT     H288146   4.434   8.389   3.480
29302WAT      O88147   8.187   1.656   3.438
29302WAT     H188148   8.223   1.737   3.390
29302WAT     H288149   8.165   1.680   3.532
29303WAT      O88150   7.976   3.593   5.309
29303WAT     H188151   8.015   3.651   5.238
29303WAT     H288152   7.884   3.565   5.282
29304WAT      O88153   2.828   9.091   8.776
29304WAT     H188154   2.809   9.181   8.737
29304WAT     H288155   2.912   9.096   8.830
29305WAT      O88156   7.352   8.135   4.385
29305WAT     H188157   7.432   8.090   4.345
29305WAT     H288158   7.327   8.088   4.470
29306WAT      O88159   7.973   3.064   8.947
29306WAT     H188160   8.041   3.077   8.875
29306WAT     H288161   7.951   2.967   8.956
29307WAT      O88162   1.591   2.780   1.900
29307WAT     H188163   1.640   2.865   1.917
29307WAT     H288164   1.584   2.727   1.985
29308WAT      O88165   1.956   0.083   3.676
29308WAT     H188166   1.954   0.132   3.763
29308WAT     H288167   2.019   0.129   3.614
29309WAT      O88168   2.040   3.178   4.192
29309WAT     H188169   2.105   3.200   4.120
29309WAT     H288170   2.024   3.079   4.194
29310WAT      O88171   8.683   3.962   1.740
29310WAT     H188172   8.743   4.003   1.807
29310WAT     H288173   8.723   3.971   1.648
29311WAT      O88174   2.346   0.979   6.565
29311WAT     H188175   2.256   0.956   6.526
29311WAT     H288176   2.413   0.912   6.534
29312WAT      O88177   8.743   6.486   5.772
29312WAT     H188178   8.826   6.458   5.821
29312WAT     H288179   8.723   6.581   5.793
29313WAT      O88180   3.971   7.798   0.403
29313WAT     H188181   3.952   7.886   0.446
29313WAT     H288182   4.070   7.783   0.399
29314WAT      O88183   1.742   7.576   9.796
29314WAT     H188184   1.722   7.550   9.701
29314WAT     H288185   1.666   7.630   9.832
29315WAT      O88186   3.351   9.485   2.859
29315WAT     H188187   3.440   9.442   2.878
29315WAT     H288188   3.281   9.441   2.915
29316WAT      O88189   1.630   8.435   8.493
29316WAT     H188190   1.701   8.488   8.538
29316WAT     H288191   1.660   8.340   8.483
29317WAT      O88192   1.047   0.053   8.098
29317WAT     H188193   0.974   0.121   8.095
29317WAT     H288194   1.106   0.071   8.177
29318WAT      O88195   4.323   9.734   1.862
29318WAT     H188196   4.282   9.799   1.927
29318WAT     H288197   4.350   9.652   1.911
29319WAT      O88198   8.831   2.004   1.440
29319WAT     H188199   8.872   2.089   1.408
29319WAT     H288200   8.828   1.937   1.366
29320WAT      O88201   2.449   1.169   1.165
29320WAT     H188202   2.440   1.129   1.257
29320WAT     H288203   2.375   1.135   1.106
29321WAT      O88204   8.208   8.636   1.508
29321WAT     H188205   8.161   8.724   1.516
29321WAT     H288206   8.142   8.565   1.485
29322WAT      O88207   6.345   1.471   5.947
29322WAT     H188208   6.342   1.508   6.040
29322WAT     H288209   6.365   1.373   5.950
29323WAT      O88210   9.302   5.983   8.723
29323WAT     H188211   9.330   6.027   8.638
29323WAT     H288212   9.219   5.930   8.708
29324WAT      O88213   5.771   4.744   3.355
29324WAT     H188214   5.770   4.651   3.393
29324WAT     H288215   5.685   4.762   3.309
29325WAT      O88216   1.098   9.354   6.990
29325WAT     H188217   1.128   9.404   6.909
29325WAT     H288218   1.046   9.416   7.049
29326WAT      O88219   2.052   6.689   5.332
29326WAT     H188220   2.081   6.593   5.333
29326WAT     H288221   2.028   6.717   5.425
29327WAT      O88222   7.404   0.242   8.992
29327WAT     H188223   7.461   0.323   9.011
29327WAT     H288224   7.364   0.209   9.078
29328WAT      O88225   2.630   5.709   4.273
29328WAT     H188226   2.710   5.754   4.313
29328WAT     H288227   2.653   5.614   4.251
29329WAT      O88228   4.183   4.143   1.776
29329WAT     H188229   4.255   4.114   1.713
29329WAT     H288230   4.120   4.067   1.792
29330WAT      O88231   9.119   5.129   5.181
29330WAT     H188232   9.202   5.092   5.139
29330WAT     H288233   9.143   5.187   5.258
29331WAT      O88234   9.002   4.581   8.237
29331WAT     H188235   9.062   4.600   8.159
29331WAT     H288236   8.962   4.666   8.270
29332WAT      O88237   2.940   1.917   8.788
29332WAT     H188238   2.989   1.994   8.828
29332WAT     H288239   2.984   1.890   8.702
29333WAT      O88240   7.703   4.290   7.389
29333WAT     H188241   7.621   4.346   7.370
29333WAT     H288242   7.729   4.241   7.306
29334WAT      O88243   0.799   5.095   3.705
29334WAT     H188244   0.853   5.082   3.788
29334WAT     H288245   0.810   5.015   3.646
29335WAT      O88246   2.419   2.296   1.763
29335WAT     H188247   2.398   2.204   1.729
29335WAT     H288248   2.333   2.345   1.780
29336WAT      O88249   7.252   0.245   3.585
29336WAT     H188250   7.246   0.146   3.592
29336WAT     H288251   7.299   0.282   3.665
29337WAT      O88252   8.649   0.278   9.065
29337WAT     H188253   8.582   0.226   9.011
29337WAT     H288254   8.720   0.314   9.004
29338WAT      O88255   3.213   0.380   8.306
29338WAT     H188256   3.230   0.457   8.245
29338WAT     H288257   3.284   0.377   8.376
29339WAT      O88258   5.196   4.443   3.732
29339WAT     H188259   5.211   4.449   3.831
29339WAT     H288260   5.099   4.427   3.714
29340WAT      O88261   2.615   6.439   1.228
29340WAT     H188262   2.605   6.470   1.323
29340WAT     H288263   2.710   6.412   1.212
29341WAT      O88264   4.654   6.381   2.484
29341WAT     H188265   4.619   6.308   2.543
29341WAT     H288266   4.738   6.418   2.525
29342WAT      O88267   8.292   5.673   7.143
29342WAT     H188268   8.283   5.767   7.108
29342WAT     H288269   8.210   5.621   7.120
29343WAT      O88270   3.975   4.306   7.207
29343WAT     H188271   4.035   4.336   7.282
29343WAT     H288272   3.895   4.365   7.203
29344WAT      O88273   0.045   8.811   5.713
29344WAT     H188274  -0.012   8.779   5.638
29344WAT     H288275   0.140   8.820   5.682
29345WAT      O88276   6.854   6.618   9.475
29345WAT     H188277   6.852   6.618   9.375
29345WAT     H288278   6.858   6.713   9.507
29346WAT      O88279   9.118   3.299   3.431
29346WAT     H188280   9.131   3.395   3.410
29346WAT     H288281   9.087   3.250   3.349
29347WAT      O88282   9.836   8.471   0.870
29347WAT     H188283   9.786   8.528   0.936
29347WAT     H288284   9.929   8.508   0.858
29348WAT      O88285   2.307   8.521   8.442
29348WAT     H188286   2.226   8.577   8.459
29348WAT     H288287   2.373   8.535   8.515
29349WAT      O88288   0.417   7.469   2.104
29349WAT     H188289   0.473   7.453   2.022
29349WAT     H288290   0.471   7.451   2.186
29350WAT      O88291   9.888   1.876   9.598
29350WAT     H188292   9.897   1.824   9.513
29350WAT     H288293   9.806   1.934   9.593
29351WAT      O88294   7.520   5.701   1.925
29351WAT     H188295   7.610   5.657   1.924
29351WAT     H288296   7.451   5.634   1.952
29352WAT      O88297   5.042   1.632   8.747
29352WAT     H188298   5.041   1.730   8.767
29352WAT     H288299   5.038   1.619   8.647
29353WAT      O88300   8.452   6.570   8.764
29353WAT     H188301   8.458   6.586   8.665
29353WAT     H288302   8.363   6.532   8.787
29354WAT      O88303   2.771   6.222   2.828
29354WAT     H188304   2.682   6.182   2.804
29354WAT     H288305   2.837   6.150   2.845
29355WAT      O88306   0.211   4.636   0.516
29355WAT     H188307   0.307   4.611   0.528
29355WAT     H288308   0.160   4.615   0.599
29356WAT      O88309   1.674   3.792   5.594
29356WAT     H188310   1.753   3.851   5.578
29356WAT     H288311   1.626   3.776   5.508
29357WAT      O88312   8.710   3.907   1.457
29357WAT     H188313   8.666   3.982   1.409
29357WAT     H288314   8.809   3.914   1.446
29358WAT      O88315   6.107   1.029   5.028
29358WAT     H188316   6.120   1.050   5.125
29358WAT     H288317   6.168   1.087   4.974
29359WAT      O88318   7.562   3.243   5.600
29359WAT     H188319   7.616   3.327   5.588
29359WAT     H288320   7.565   3.215   5.696
29360WAT      O88321   2.615   2.027   5.174
29360WAT     H188322   2.619   2.104   5.237
29360WAT     H288323   2.520   2.007   5.152
29361WAT      O88324   8.931   0.077   3.535
29361WAT     H188325   8.964   0.169   3.517
29361WAT     H288326   8.983   0.012   3.480
29362WAT      O88327   1.376   5.412   4.554
29362WAT     H188328   1.290   5.434   4.601
29362WAT     H288329   1.453   5.436   4.613
29363WAT      O88330   4.007   5.313   3.559
29363WAT     H188331   3.929   5.295   3.499
29363WAT     H288332   3.974   5.344   3.648
29364WAT      O88333   5.155   4.716   0.254
29364WAT     H188334   5.122   4.649   0.188
29364WAT     H288335   5.168   4.804   0.209
29365WAT      O88336   7.834   8.130   3.976
29365WAT     H188337   7.742   8.105   3.944
29365WAT     H288338   7.846   8.229   3.967
29366WAT      O88339   9.626   7.168   8.548
29366WAT     H188340   9.575   7.101   8.602
29366WAT     H288341   9.639   7.251   8.602
29367WAT      O88342   3.727   3.532   7.966
29367WAT     H188343   3.693   3.601   8.030
29367WAT     H288344   3.658   3.514   7.896
29368WAT      O88345   6.416   6.387   8.476
29368WAT     H188346   6.357   6.308   8.463
29368WAT     H288347   6.504   6.356   8.513
29369WAT      O88348   2.351   3.251   2.677
29369WAT     H188349   2.323   3.306   2.598
29369WAT     H288350   2.273   3.199   2.710
29370WAT      O88351   3.863   0.189   9.524
29370WAT     H188352   3.885   0.132   9.445
29370WAT     H288353   3.875   0.136   9.608
29371WAT      O88354   3.093   0.249   0.510
29371WAT     H188355   3.078   0.194   0.428
29371WAT     H288356   3.102   0.345   0.484
29372WAT      O88357   5.160   7.638   4.383
29372WAT     H188358   5.128   7.695   4.307
29372WAT     H288359   5.081   7.605   4.435
29373WAT      O88360   7.209   5.605   4.712
29373WAT     H188361   7.282   5.593   4.779
29373WAT     H288362   7.207   5.701   4.682
29374WAT      O88363   8.610   0.260   6.699
29374WAT     H188364   8.706   0.288   6.701
29374WAT     H288365   8.600   0.176   6.647
29375WAT      O88366   5.309   5.201   7.614
29375WAT     H188367   5.270   5.236   7.529
29375WAT     H288368   5.236   5.163   7.671
29376WAT      O88369   8.047   4.075   5.647
29376WAT     H188370   8.095   3.987   5.646
29376WAT     H288371   8.089   4.136   5.580
29377WAT      O88372   0.141   8.683   5.924
29377WAT     H188373   0.101   8.743   5.854
29377WAT     H288374   0.165   8.595   5.882
29378WAT      O88375   0.107   1.895   9.842
29378WAT     H188376   0.066   1.869   9.755
29378WAT     H288377   0.050   1.964   9.887
29379WAT      O88378   1.246   3.031   5.543
29379WAT     H188379   1.170   3.023   5.607
29379WAT     H288380   1.258   3.127   5.517
29380WAT      O88381   7.306   4.908   5.058
29380WAT     H188382   7.300   4.962   4.974
29380WAT     H288383   7.369   4.832   5.045
29381WAT      O88384   0.383   8.880   6.826
29381WAT     H188385   0.478   8.868   6.853
29381WAT     H288386   0.323   8.871   6.906
29382WAT      O88387   4.843   8.315   1.797
29382WAT     H188388   4.925   8.270   1.834
29382WAT     H288389   4.774   8.246   1.777
29383WAT      O88390   7.550   8.852   9.730
29383WAT     H188391   7.541   8.762   9.689
29383WAT     H288392   7.622   8.851   9.799
29384WAT      O88393   5.999   0.863   3.349
29384WAT     H188394   6.094   0.832   3.357
29384WAT     H288395   5.996   0.963   3.351
29385WAT      O88396   3.458   7.898   1.028
29385WAT     H188397   3.472   7.874   0.932
29385WAT     H288398   3.536   7.867   1.082
29386WAT      O88399   2.051   4.261   5.453
29386WAT     H188400   2.087   4.272   5.360
29386WAT     H288401   2.002   4.344   5.479
29387WAT      O88402   3.686   4.844   6.137
29387WAT     H188403   3.607   4.885   6.092
29387WAT     H288404   3.655   4.784   6.211
29388WAT      O88405   7.302   7.292   8.458
29388WAT     H188406   7.341   7.368   8.509
29388WAT     H288407   7.313   7.310   8.360
29389WAT      O88408   9.424   5.374   5.406
29389WAT     H188409   9.413   5.445   5.476
29389WAT     H288410   9.486   5.407   5.335
29390WAT      O88411   4.456   5.004   8.190
29390WAT     H188412   4.501   5.035   8.274
29390WAT     H288413   4.388   4.934   8.212
29391WAT      O88414   4.724   1.548   8.827
29391WAT     H188415   4.823   1.560   8.820
29391WAT     H288416   4.685   1.543   8.735
29392WAT      O88417   4.375   8.149   5.394
29392WAT     H188418   4.430   8.154   5.310
29392WAT     H288419   4.406   8.072   5.450
29393WAT      O88420   1.376   1.923   1.138
29393WAT     H188421   1.288   1.895   1.177
29393WAT     H288422   1.395   2.018   1.162
29394WAT      O88423   4.735   8.731   4.036
29394WAT     H188424   4.687   8.807   3.992
29394WAT     H288425   4.713   8.646   3.988
29395WAT      O88426   8.417   3.449   6.527
29395WAT     H188427   8.507   3.481   6.499
29395WAT     H288428   8.406   3.464   6.625
29396WAT      O88429   8.138   6.903   0.933
29396WAT     H188430   8.209   6.843   0.896
29396WAT     H288431   8.177   6.992   0.955
29397WAT      O88432   9.834   5.957   5.065
29397WAT     H188433   9.736   5.973   5.071
29397WAT     H288434   9.866   5.981   4.973
29398WAT      O88435   0.996   0.984   1.686
29398WAT     H188436   0.977   1.075   1.648
29398WAT     H288437   1.006   0.992   1.785
29399WAT      O88438   5.703   2.067   0.008
29399WAT     H188439   5.729   2.152   0.053
29399WAT     H288440   5.723   2.072  -0.089
29400WAT      O88441   5.745   4.465   3.143
29400WAT     H188442   5.844   4.460   3.127
29400WAT     H288443   5.713   4.557   3.124
29401WAT      O88444   2.714   9.396   6.675
29401WAT     H188445   2.785   9.330   6.701
29401WAT     H288446   2.656   9.355   6.605
29402WAT      O88447   9.091   4.574   7.302
29402WAT     H188448   9.147   4.518   7.242
29402WAT     H288449   9.029   4.630   7.247
29403WAT      O88450   8.852   5.974   0.709
29403WAT     H188451   8.923   6.046   0.705
29403WAT     H288452   8.778   6.004   0.768
29404WAT      O88453   6.280   9.222   3.386
29404WAT     H188454   6.237   9.140   3.346
29404WAT     H288455   6.309   9.283   3.312
29405WAT      O88456   8.224   8.056   2.832
29405WAT     H188457   8.154   8.090   2.770
29405WAT     H288458   8.278   8.132   2.868
29406WAT      O88459   8.598   9.498   5.856
29406WAT     H188460   8.560   9.523   5.767
29406WAT     H288461   8.525   9.465   5.916
29407WAT      O88462   2.739   3.487   6.630
29407WAT     H188463   2.835   3.462   6.642
29407WAT     H288464   2.681   3.416   6.668
29408WAT      O88465   1.984   5.609   8.227
29408WAT     H188466   1.988   5.579   8.323
29408WAT     H288467   1.981   5.709   8.223
29409WAT      O88468   8.262   6.452   6.840
29409WAT     H188469   8.179   6.416   6.796
29409WAT     H288470   8.270   6.549   6.821
29410WAT      O88471   0.173   0.484   9.126
29410WAT     H188472   0.201   0.481   9.222
29410WAT     H288473   0.234   0.544   9.075
29411WAT      O88474   9.632   2.056   6.498
29411WAT     H188475   9.594   1.975   6.543
29411WAT     H288476   9.731   2.058   6.509
29412WAT      O88477   4.209   8.786   8.530
29412WAT     H188478   4.264   8.852   8.480
29412WAT     H288479   4.235   8.693   8.503
29413WAT      O88480   2.211   4.653   4.097
29413WAT     H188481   2.150   4.702   4.036
29413WAT     H288482   2.300   4.699   4.100
29414WAT      O88483   8.605   7.464   9.732
29414WAT     H188484   8.652   7.426   9.812
29414WAT     H288485   8.644   7.424   9.649
29415WAT      O88486   2.368   9.279   5.816
29415WAT     H188487   2.309   9.206   5.783
29415WAT     H288488   2.418   9.249   5.896
29416WAT      O88489   1.124   3.531   1.588
29416WAT     H188490   1.170   3.482   1.663
29416WAT     H288491   1.165   3.621   1.578
29417WAT      O88492   1.126   5.868   3.709
29417WAT     H188493   1.146   5.873   3.807
29417WAT     H288494   1.032   5.899   3.693
29418WAT      O88495   3.757   6.367   6.614
29418WAT     H188496   3.662   6.376   6.585
29418WAT     H288497   3.817   6.388   6.537
29419WAT      O88498   1.542   6.283   9.379
29419WAT     H188499   1.455   6.330   9.368
29419WAT     H288500   1.616   6.350   9.381
29420WAT      O88501   4.596   9.720   3.775
29420WAT     H188502   4.623   9.635   3.729
29420WAT     H288503   4.496   9.729   3.774
29421WAT      O88504   0.047   5.878   5.874
29421WAT     H188505   0.011   5.923   5.791
29421WAT     H288506  -0.029   5.836   5.923
29422WAT      O88507   7.817   6.292   4.771
29422WAT     H188508   7.808   6.196   4.745
29422WAT     H288509   7.910   6.309   4.806
29423WAT      O88510   0.825   0.167   0.139
29423WAT     H188511   0.919   0.188   0.165
29423WAT     H288512   0.787   0.244   0.088
29424WAT      O88513   9.021   7.567   0.521
29424WAT     H188514   9.061   7.477   0.504
29424WAT     H288515   9.093   7.636   0.518
29425WAT      O88516   6.915   5.196   7.084
29425WAT     H188517   6.892   5.157   7.174
29425WAT     H288518   7.012   5.178   7.065
29426WAT      O88519   1.817   6.275   3.133
29426WAT     H188520   1.884   6.201   3.137
29426WAT     H288521   1.800   6.300   3.037
29427WAT      O88522   0.322   1.496   0.495
29427WAT     H188523   0.420   1.495   0.512
29427WAT     H288524   0.286   1.403   0.502
29428WAT      O88525   3.936   9.507   2.815
29428WAT     H188526   3.922   9.591   2.763
29428WAT     H288527   4.032   9.501   2.844
29429WAT      O88528   5.488   1.572   1.527
29429WAT     H188529   5.568   1.514   1.541
29429WAT     H288530   5.490   1.648   1.592
29430WAT      O88531   7.902   3.668   4.234
29430WAT     H188532   7.890   3.683   4.136
29430WAT     H288533   7.977   3.726   4.267
29431WAT      O88534   4.440   0.349   0.199
29431WAT     H188535   4.497   0.408   0.256
29431WAT     H288536   4.344   0.358   0.228
29432WAT      O88537   8.504   0.066   1.037
29432WAT     H188538   8.570   0.025   0.974
29432WAT     H288539   8.509   0.020   1.125
29433WAT      O88540   5.131   0.533   3.346
29433WAT     H188541   5.110   0.447   3.393
29433WAT     H288542   5.141   0.606   3.414
29434WAT      O88543   0.365   8.535   9.763
29434WAT     H188544   0.409   8.547   9.674
29434WAT     H288545   0.432   8.550   9.836
29435WAT      O88546   7.837   4.315   3.224
29435WAT     H188547   7.864   4.360   3.139
29435WAT     H288548   7.862   4.373   3.302
29436WAT      O88549   6.236   9.760   1.051
29436WAT     H188550   6.167   9.694   1.080
29436WAT     H288551   6.319   9.746   1.105
29437WAT      O88552   9.388   6.515   3.825
29437WAT     H188553   9.406   6.448   3.752
29437WAT     H288554   9.421   6.479   3.912
29438WAT      O88555   9.118   4.391   6.871
29438WAT     H188556   9.033   4.341   6.884
29438WAT     H288557   9.105   4.487   6.896
29439WAT      O88558   0.375   7.102   2.899
29439WAT     H188559   0.286   7.081   2.860
29439WAT     H288560   0.366   7.113   2.998
29440WAT      O88561   6.765   9.354   1.322
29440WAT     H188562   6.782   9.336   1.225
29440WAT     H288563   6.773   9.268   1.373
29441WAT      O88564   2.373   7.215   6.617
29441WAT     H188565   2.384   7.309   6.586
29441WAT     H288566   2.322   7.214   6.703
29442WAT      O88567   3.819   4.343   7.783
29442WAT     H188568   3.871   4.411   7.834
29442WAT     H288569   3.882   4.290   7.725
29443WAT      O88570   6.765   0.011   3.024
29443WAT     H188571   6.863   0.006   3.040
29443WAT     H288572   6.720   0.056   3.101
29444WAT      O88573   2.741   1.678   3.636
29444WAT     H188574   2.778   1.652   3.725
29444WAT     H288575   2.711   1.596   3.587
29445WAT      O88576   3.370   5.757   8.226
29445WAT     H188577   3.309   5.804   8.162
29445WAT     H288578   3.464   5.760   8.191
29446WAT      O88579   1.466   4.136   4.351
29446WAT     H188580   1.414   4.163   4.270
29446WAT     H288581   1.537   4.205   4.369
29447WAT      O88582   2.971   5.517   3.314
29447WAT     H188583   2.895   5.511   3.379
29447WAT     H288584   2.953   5.593   3.250
29448WAT      O88585   6.155   1.751   4.901
29448WAT     H188586   6.110   1.838   4.879
29448WAT     H288587   6.248   1.751   4.862
29449WAT      O88588   8.766   9.420   2.579
29449WAT     H188589   8.810   9.411   2.668
29449WAT     H288590   8.784   9.511   2.541
29450WAT      O88591   1.697   4.737   3.026
29450WAT     H188592   1.771   4.751   2.960
29450WAT     H288593   1.667   4.826   3.060
29451WAT      O88594   9.000   0.267   4.723
29451WAT     H188595   9.046   0.344   4.679
29451WAT     H288596   8.975   0.292   4.817
29452WAT      O88597   9.256   4.550   2.369
29452WAT     H188598   9.294   4.625   2.316
29452WAT     H288599   9.159   4.538   2.346
29453WAT      O88600   9.469   9.551   6.068
29453WAT     H188601   9.527   9.587   5.994
29453WAT     H288602   9.438   9.459   6.044
29454WAT      O88603   1.603   6.266   9.866
29454WAT     H188604   1.527   6.224   9.817
29454WAT     H288605   1.652   6.327   9.803
29455WAT      O88606   9.440   7.334   3.171
29455WAT     H188607   9.482   7.310   3.084
29455WAT     H288608   9.451   7.432   3.187
29456WAT      O88609   8.893   9.373   7.612
29456WAT     H188610   8.828   9.332   7.548
29456WAT     H288611   8.911   9.467   7.584
29457WAT      O88612   7.605   4.116   0.745
29457WAT     H188613   7.687   4.060   0.755
29457WAT     H288614   7.632   4.213   0.738
29458WAT      O88615   3.426   4.012   9.240
29458WAT     H188616   3.401   3.970   9.152
29458WAT     H288617   3.365   3.977   9.311
29459WAT      O88618   7.633   6.158   7.702
29459WAT     H188619   7.717   6.172   7.649
29459WAT     H288620   7.628   6.227   7.775
29460WAT      O88621   4.980   1.003   4.832
29460WAT     H188622   5.024   0.997   4.742
29460WAT     H288623   4.968   1.099   4.857
29461WAT      O88624   6.731   3.824   2.571
29461WAT     H188625   6.703   3.818   2.475
29461WAT     H288626   6.823   3.786   2.581
29462WAT      O88627   7.344   8.898   2.052
29462WAT     H188628   7.417   8.952   2.010
29462WAT     H288629   7.338   8.920   2.149
29463WAT      O88630   8.727   4.500   9.108
29463WAT     H188631   8.667   4.450   9.045
29463WAT     H288632   8.822   4.487   9.081
29464WAT      O88633   1.321   6.533   3.538
29464WAT     H188634   1.412   6.505   3.568
29464WAT     H288635   1.261   6.543   3.617
29465WAT      O88636   7.596   0.172   8.413
29465WAT     H188637   7.544   0.196   8.331
29465WAT     H288638   7.596   0.073   8.424
29466WAT      O88639   0.858   9.196   5.177
29466WAT     H188640   0.784   9.251   5.216
29466WAT     H288641   0.840   9.099   5.195
29467WAT      O88642   9.387   9.699   6.497
29467WAT     H188643   9.388   9.603   6.527
29467WAT     H288644   9.395   9.703   6.398
29468WAT      O88645   5.447   1.456   4.578
29468WAT     H188646   5.396   1.371   4.566
29468WAT     H288647   5.471   1.467   4.674
29469WAT      O88648   6.739   6.891   5.287
29469WAT     H188649   6.676   6.823   5.248
29469WAT     H288650   6.829   6.879   5.246
29470WAT      O88651   4.350   4.837   1.739
29470WAT     H188652   4.312   4.897   1.810
29470WAT     H288653   4.445   4.817   1.760
29471WAT      O88654   1.542   2.867   0.702
29471WAT     H188655   1.615   2.925   0.739
29471WAT     H288656   1.488   2.920   0.636
29472WAT      O88657   2.588   0.063   6.055
29472WAT     H188658   2.587   0.038   6.151
29472WAT     H288659   2.513   0.126   6.035
29473WAT      O88660   2.806   3.053   0.049
29473WAT     H188661   2.808   2.972   0.108
29473WAT     H288662   2.711   3.084   0.038
29474WAT      O88663   3.726   9.164   1.106
29474WAT     H188664   3.661   9.196   1.038
29474WAT     H288665   3.704   9.069   1.131
29475WAT      O88666   0.067   4.045   2.353
29475WAT     H188667   0.006   4.098   2.294
29475WAT     H288668   0.070   3.950   2.321
29476WAT      O88669   5.582   0.263   1.796
29476WAT     H188670   5.612   0.224   1.883
29476WAT     H288671   5.521   0.341   1.812
29477WAT      O88672   6.292   1.026   2.224
29477WAT     H188673   6.259   1.101   2.167
29477WAT     H288674   6.279   0.940   2.175
29478WAT      O88675   7.764   1.410   9.702
29478WAT     H188676   7.857   1.397   9.736
29478WAT     H288677   7.760   1.494   9.648
29479WAT      O88678   8.224   1.101   8.836
29479WAT     H188679   8.166   1.056   8.903
29479WAT     H288680   8.316   1.063   8.841
29480WAT      O88681   7.343   6.330   1.736
29480WAT     H188682   7.294   6.383   1.805
29480WAT     H288683   7.320   6.233   1.745
29481WAT      O88684   1.795   8.290   7.141
29481WAT     H188685   1.741   8.374   7.149
29481WAT     H288686   1.743   8.214   7.181
29482WAT      O88687   0.761   4.054   9.865
29482WAT     H188688   0.807   4.105   9.938
29482WAT     H288689   0.674   4.097   9.843
29483WAT      O88690   1.763   3.253   5.831
29483WAT     H188691   1.761   3.204   5.744
29483WAT     H288692   1.830   3.211   5.892
29484WAT      O88693   7.950   5.945   6.471
29484WAT     H188694   8.029   5.897   6.432
29484WAT     H288695   7.894   5.982   6.397
29485WAT      O88696   1.102   1.367   7.005
29485WAT     H188697   1.048   1.287   7.029
29485WAT     H288698   1.117   1.369   6.906
29486WAT      O88699   3.889   5.282   5.404
29486WAT     H188700   3.905   5.357   5.340
29486WAT     H288701   3.808   5.302   5.460
29487WAT      O88702   7.405   4.611   4.679
29487WAT     H188703   7.407   4.532   4.741
29487WAT     H288704   7.439   4.584   4.589
29488WAT      O88705   2.290   5.420   5.157
29488WAT     H188706   2.198   5.431   5.193
29488WAT     H288707   2.288   5.360   5.077
29489WAT      O88708   8.983   7.418   9.709
29489WAT     H188709   8.930   7.403   9.793
29489WAT     H288710   8.926   7.463   9.641
29490WAT      O88711   5.721   1.686   9.813
29490WAT     H188712   5.801   1.686   9.872
29490WAT     H288713   5.675   1.597   9.818
29491WAT      O88714   4.331   3.173   7.358
29491WAT     H188715   4.288   3.257   7.391
29491WAT     H288716   4.276   3.094   7.384
29492WAT      O88717   8.907   0.501   3.050
29492WAT     H188718   8.877   0.436   2.981
29492WAT     H288719   9.006   0.514   3.044
29493WAT      O88720   3.791   8.344   9.763
29493WAT     H188721   3.803   8.443   9.760
29493WAT     H288722   3.865   8.300   9.712
29494WAT      O88723   0.271   7.030   9.549
29494WAT     H188724   0.235   7.099   9.487
29494WAT     H288725   0.311   6.955   9.496
29495WAT      O88726   5.586   5.697   4.862
29495WAT     H188727   5.557   5.785   4.824
29495WAT     H288728   5.513   5.659   4.919
29496WAT      O88729   4.043   5.594   6.655
29496WAT     H188730   4.075   5.674   6.706
29496WAT     H288731   4.106   5.518   6.671
29497WAT      O88732   6.874   1.342   4.520
29497WAT     H188733   6.796   1.306   4.572
29497WAT     H288734   6.955   1.345   4.579
29498WAT      O88735   2.683   9.831   7.491
29498WAT     H188736   2.603   9.772   7.501
29498WAT     H288737   2.725   9.845   7.581
29499WAT      O88738   6.123   5.142   9.502
29499WAT     H188739   6.187   5.127   9.577
29499WAT     H288740   6.058   5.067   9.497
29500WAT      O88741   8.780   8.218   8.845
29500WAT     H188742   8.758   8.287   8.776
29500WAT     H288743   8.863   8.170   8.818
29501WAT      O88744   3.275   2.239   5.693
29501WAT     H188745   3.201   2.252   5.759
29501WAT     H288746   3.250   2.284   5.607
29502WAT      O88747   1.913   4.784   2.840
29502WAT     H188748   1.883   4.871   2.801
29502WAT     H288749   1.949   4.726   2.767
29503WAT      O88750   5.749   0.044   6.374
29503WAT     H188751   5.688  -0.014   6.321
29503WAT     H288752   5.775   0.124   6.319
29504WAT      O88753   4.696   2.948   4.964
29504WAT     H188754   4.709   3.006   4.884
29504WAT     H288755   4.776   2.955   5.024
29505WAT      O88756   7.021   9.286   0.156
29505WAT     H188757   7.082   9.365   0.158
29505WAT     H288758   7.025   9.238   0.243
29506WAT      O88759   5.953   2.224   6.337
29506WAT     H188760   5.913   2.254   6.250
29506WAT     H288761   5.910   2.273   6.412
29507WAT      O88762   3.747   3.731   2.676
29507WAT     H188763   3.726   3.762   2.584
29507WAT     H288764   3.818   3.790   2.715
29508WAT      O88765   6.917   0.144   6.313
29508WAT     H188766   6.942   0.118   6.220
29508WAT     H288767   6.924   0.064   6.373
29509WAT      O88768   3.031   2.646   1.966
29509WAT     H188769   2.997   2.586   1.893
29509WAT     H288770   2.964   2.718   1.983
29510WAT      O88771   1.948   5.393   7.562
29510WAT     H188772   1.849   5.406   7.561
29510WAT     H288773   1.992   5.477   7.528
29511WAT      O88774   2.249   5.806   0.889
29511WAT     H188775   2.260   5.894   0.844
29511WAT     H288776   2.164   5.805   0.942
29512WAT      O88777   9.448   4.717   4.789
29512WAT     H188778   9.461   4.727   4.691
29512WAT     H288779   9.470   4.623   4.816
29513WAT      O88780   4.185   2.625   6.676
29513WAT     H188781   4.237   2.701   6.638
29513WAT     H288782   4.248   2.558   6.717
29514WAT      O88783   3.332   9.449   4.149
29514WAT     H188784   3.417   9.398   4.143
29514WAT     H288785   3.265   9.410   4.086
29515WAT      O88786   1.753   9.238   8.149
29515WAT     H188787   1.735   9.336   8.144
29515WAT     H288788   1.698   9.190   8.080
29516WAT      O88789   6.443   6.261   1.852
29516WAT     H188790   6.519   6.297   1.798
29516WAT     H288791   6.404   6.335   1.907
29517WAT      O88792   0.799   3.124   6.589
29517WAT     H188793   0.726   3.179   6.630
29517WAT     H288794   0.790   3.126   6.490
29518WAT      O88795   4.156   9.769   0.990
29518WAT     H188796   4.075   9.739   0.940
29518WAT     H288797   4.187   9.696   1.050
29519WAT      O88798   1.662   5.253   6.716
29519WAT     H188799   1.635   5.157   6.715
29519WAT     H288800   1.633   5.295   6.802
29520WAT      O88801   5.371   7.807   9.860
29520WAT     H188802   5.366   7.889   9.803
29520WAT     H288803   5.354   7.832   9.955
29521WAT      O88804   0.098   5.203   5.512
29521WAT     H188805   0.046   5.118   5.522
29521WAT     H288806   0.186   5.184   5.468
29522WAT      O88807   3.798   5.216   0.165
29522WAT     H188808   3.807   5.308   0.202
29522WAT     H288809   3.886   5.170   0.167
29523WAT      O88810   9.562   5.989   7.285
29523WAT     H188811   9.530   6.007   7.192
29523WAT     H288812   9.483   5.980   7.346
29524WAT      O88813   5.707   0.294   3.500
29524WAT     H188814   5.744   0.287   3.407
29524WAT     H288815   5.730   0.383   3.538
29525WAT      O88816   5.409   7.303   7.395
29525WAT     H188817   5.316   7.337   7.402
29525WAT     H288818   5.470   7.361   7.449
29526WAT      O88819   1.755   4.202   0.390
29526WAT     H188820   1.699   4.188   0.308
29526WAT     H288821   1.786   4.297   0.394
29527WAT      O88822   5.698   7.840   5.407
29527WAT     H188823   5.667   7.928   5.444
29527WAT     H288824   5.628   7.803   5.347
29528WAT      O88825   9.265   5.150   2.921
29528WAT     H188826   9.229   5.232   2.967
29528WAT     H288827   9.348   5.120   2.968
29529WAT      O88828   7.730   2.404   8.219
29529WAT     H188829   7.738   2.355   8.306
29529WAT     H288830   7.694   2.342   8.149
29530WAT      O88831   6.600   6.111   0.110
29530WAT     H188832   6.695   6.114   0.141
29530WAT     H288833   6.542   6.162   0.174
29531WAT      O88834   6.562   1.164   8.851
29531WAT     H188835   6.583   1.235   8.918
29531WAT     H288836   6.468   1.174   8.818
29532WAT      O88837   8.471   8.945   2.466
29532WAT     H188838   8.431   8.931   2.557
29532WAT     H288839   8.449   9.038   2.434
29533WAT      O88840   7.909   7.511   7.420
29533WAT     H188841   7.853   7.521   7.337
29533WAT     H288842   7.991   7.458   7.399
29534WAT      O88843   2.800   8.386   6.145
29534WAT     H188844   2.732   8.452   6.175
29534WAT     H288845   2.780   8.358   6.051
29535WAT      O88846   4.413   5.412   8.797
29535WAT     H188847   4.389   5.495   8.846
29535WAT     H288848   4.392   5.424   8.699
29536WAT      O88849   4.164   0.260   1.245
29536WAT     H188850   4.175   0.181   1.305
29536WAT     H288851   4.125   0.230   1.158
29537WAT      O88852   2.097   3.994   7.537
29537WAT     H188853   2.068   4.083   7.503
29537WAT     H288854   2.196   3.995   7.552
29538WAT      O88855   9.654   0.876   6.975
29538WAT     H188856   9.579   0.864   6.909
29538WAT     H288857   9.653   0.970   7.010
29539WAT      O88858   3.120   6.530   7.030
29539WAT     H188859   3.067   6.614   7.042
29539WAT     H288860   3.211   6.554   6.995
29540WAT      O88861   6.286   2.927   1.425
29540WAT     H188862   6.188   2.931   1.408
29540WAT     H288863   6.318   3.015   1.459
29541WAT      O88864   7.565   0.738   1.359
29541WAT     H188865   7.563   0.638   1.365
29541WAT     H288866   7.496   0.776   1.420
29542WAT      O88867   8.306   4.495   6.736
29542WAT     H188868   8.342   4.576   6.782
29542WAT     H288869   8.370   4.419   6.747
29543WAT      O88870   4.987   9.222   7.333
29543WAT     H188871   4.907   9.167   7.307
29543WAT     H288872   5.033   9.255   7.250
29544WAT      O88873   5.308   1.264   8.927
29544WAT     H188874   5.256   1.180   8.941
29544WAT     H288875   5.385   1.267   8.990
29545WAT      O88876   1.966   2.459   4.308
29545WAT     H188877   1.988   2.532   4.243
29545WAT     H288878   2.048   2.433   4.358
29546WAT      O88879   1.572   1.562   8.319
29546WAT     H188880   1.600   1.658   8.327
29546WAT     H288881   1.534   1.531   8.406
29547WAT      O88882   3.015   2.040   0.962
29547WAT     H188883   3.044   1.944   0.967
29547WAT     H288884   3.092   2.097   0.934
29548WAT      O88885   1.013   9.130   1.335
29548WAT     H188886   1.066   9.176   1.407
29548WAT     H288887   0.923   9.104   1.370
29549WAT      O88888   9.106   6.859   0.038
29549WAT     H188889   9.098   6.777  -0.019
29549WAT     H288890   9.065   6.842   0.127
29550WAT      O88891   0.939   0.243   3.699
29550WAT     H188892   0.952   0.250   3.600
29550WAT     H288893   0.857   0.189   3.718
29551WAT      O88894   7.034   4.092   5.008
29551WAT     H188895   6.963   4.060   5.071
29551WAT     H288896   7.032   4.192   5.004
29552WAT      O88897   3.529   7.141   9.565
29552WAT     H188898   3.470   7.216   9.598
29552WAT     H288899   3.608   7.132   9.626
29553WAT      O88900   6.131   8.147   3.911
29553WAT     H188901   6.052   8.157   3.972
29553WAT     H288902   6.215   8.154   3.964
29554WAT      O88903   8.082   2.822   9.685
29554WAT     H188904   8.012   2.892   9.699
29554WAT     H288905   8.040   2.742   9.642
29555WAT      O88906   6.691   9.399   6.326
29555WAT     H188907   6.676   9.300   6.318
29555WAT     H288908   6.655   9.445   6.246
29556WAT      O88909   5.317   2.267   7.239
29556WAT     H188910   5.406   2.231   7.266
29556WAT     H288911   5.297   2.241   7.144
29557WAT      O88912   1.404   6.729   8.811
29557WAT     H188913   1.344   6.807   8.793
29557WAT     H288914   1.489   6.741   8.761
29558WAT      O88915   0.044   3.222   9.368
29558WAT     H188916  -0.034   3.281   9.348
29558WAT     H288917   0.029   3.174   9.454
29559WAT      O88918   6.021   8.058   5.223
29559WAT     H188919   6.090   8.071   5.153
29559WAT     H288920   5.945   8.122   5.208
29560WAT      O88921   4.495   0.610   4.564
29560WAT     H188922   4.545   0.589   4.648
29560WAT     H288923   4.517   0.542   4.494
29561WAT      O88924   2.744   0.128   8.800
29561WAT     H188925   2.839   0.152   8.776
29561WAT     H288926   2.713   0.054   8.741
29562WAT      O88927   1.808   8.531   5.511
29562WAT     H188928   1.854   8.497   5.429
29562WAT     H288929   1.820   8.631   5.517
29563WAT      O88930   9.421   1.807   6.876
29563WAT     H188931   9.495   1.865   6.912
29563WAT     H288932   9.450   1.712   6.877
29564WAT      O88933   4.718   3.538   4.052
29564WAT     H188934   4.683   3.481   3.978
29564WAT     H288935   4.811   3.509   4.075
29565WAT      O88936   2.486   3.074   0.353
29565WAT     H188937   2.487   3.166   0.393
29565WAT     H288938   2.392   3.047   0.335
29566WAT      O88939   6.679   1.224   0.336
29566WAT     H188940   6.631   1.295   0.388
29566WAT     H288941   6.617   1.187   0.267
29567WAT      O88942   9.544   9.144   5.334
29567WAT     H188943   9.579   9.128   5.426
29567WAT     H288944   9.504   9.235   5.329
29568WAT      O88945   6.505   2.857   2.499
29568WAT     H188946   6.482   2.866   2.402
29568WAT     H288947   6.455   2.927   2.551
29569WAT      O88948   8.619   6.285   9.764
29569WAT     H188949   8.584   6.192   9.771
29569WAT     H288950   8.670   6.308   9.847
29570WAT      O88951   5.303   1.927   7.826
29570WAT     H188952   5.293   1.993   7.751
29570WAT     H288953   5.398   1.923   7.854
29571WAT      O88954   0.480   1.884   2.134
29571WAT     H188955   0.558   1.824   2.152
29571WAT     H288956   0.487   1.921   2.041
29572WAT      O88957   6.697   1.649   3.879
29572WAT     H188958   6.782   1.649   3.826
29572WAT     H288959   6.632   1.583   3.839
29573WAT      O88960   7.053   3.462   8.779
29573WAT     H188961   6.961   3.447   8.815
29573WAT     H288962   7.080   3.557   8.796
29574WAT      O88963   0.683   3.084   1.377
29574WAT     H188964   0.715   3.119   1.288
29574WAT     H288965   0.599   3.032   1.363
29575WAT      O88966   3.305   6.295   2.752
29575WAT     H188967   3.402   6.275   2.762
29575WAT     H288968   3.293   6.382   2.704
29576WAT      O88969   4.860   0.162   4.535
29576WAT     H188970   4.823   0.071   4.550
29576WAT     H288971   4.889   0.171   4.439
29577WAT      O88972   3.615   7.549   7.877
29577WAT     H188973   3.644   7.454   7.881
29577WAT     H288974   3.674   7.605   7.935
29578WAT      O88975   7.847   8.621   5.463
29578WAT     H188976   7.894   8.705   5.490
29578WAT     H288977   7.853   8.610   5.364
29579WAT      O88978   5.627   8.947   7.085
29579WAT     H188979   5.542   8.908   7.050
29579WAT     H288980   5.648   8.907   7.174
29580WAT      O88981   8.479   7.913   7.164
29580WAT     H188982   8.562   7.858   7.156
29580WAT     H288983   8.404   7.855   7.196
29581WAT      O88984   9.804   0.303   8.804
29581WAT     H188985   9.739   0.228   8.793
29581WAT     H288986   9.764   0.372   8.865
29582WAT      O88987   1.511   9.730   9.407
29582WAT     H188988   1.487   9.667   9.333
29582WAT     H288989   1.608   9.756   9.399
29583WAT      O88990   9.887   8.676   8.743
29583WAT     H188991   9.821   8.687   8.817
29583WAT     H288992   9.925   8.765   8.718
29584WAT      O88993   7.708   3.043   8.041
29584WAT     H188994   7.791   3.091   8.014
29584WAT     H288995   7.712   2.949   8.007
29585WAT      O88996   6.599   1.378   1.149
29585WAT     H188997   6.663   1.439   1.102
29585WAT     H288998   6.530   1.345   1.085
29586WAT      O88999   2.938   6.476   8.448
29586WAT     H189000   2.964   6.543   8.518
29586WAT     H289001   2.960   6.384   8.480
29587WAT      O89002   9.329   4.543   3.196
29587WAT     H189003   9.323   4.639   3.171
29587WAT     H289004   9.324   4.534   3.296
29588WAT      O89005   2.557   1.334   2.649
29588WAT     H189006   2.496   1.413   2.662
29588WAT     H289007   2.504   1.250   2.653
29589WAT      O89008   3.719   9.383   4.355
29589WAT     H189009   3.737   9.444   4.433
29589WAT     H289010   3.800   9.326   4.339
29590WAT      O89011   4.644   5.943   7.789
29590WAT     H189012   4.737   5.909   7.807
29590WAT     H289013   4.632   6.031   7.835
29591WAT      O89014   6.011   1.440   6.759
29591WAT     H189015   5.977   1.418   6.851
29591WAT     H289016   6.078   1.372   6.731
29592WAT      O89017   2.275   2.899   0.200
29592WAT     H189018   2.218   2.968   0.155
29592WAT     H289019   2.326   2.847   0.131
29593WAT      O89020   2.470   0.706   3.453
29593WAT     H189021   2.509   0.694   3.545
29593WAT     H289022   2.517   0.646   3.389
29594WAT      O89023   3.093   2.848   8.455
29594WAT     H189024   3.050   2.875   8.368
29594WAT     H289025   3.075   2.751   8.472
29595WAT      O89026   3.779   8.593   8.736
29595WAT     H189027   3.740   8.594   8.829
29595WAT     H289028   3.747   8.512   8.688
29596WAT      O89029   1.163   3.974   1.989
29596WAT     H189030   1.144   4.050   2.051
29596WAT     H289031   1.229   3.912   2.031
29597WAT      O89032   5.817   8.054   0.879
29597WAT     H189033   5.827   7.957   0.905
29597WAT     H289034   5.827   8.111   0.960
29598WAT      O89035   2.959   3.553   3.456
29598WAT     H189036   2.909   3.490   3.396
29598WAT     H289037   2.893   3.610   3.506
29599WAT      O89038   8.163   0.732   3.035
29599WAT     H189039   8.172   0.695   2.943
29599WAT     H289040   8.071   0.713   3.071
29600WAT      O89041   5.855   7.108   3.737
29600WAT     H189042   5.798   7.171   3.685
29600WAT     H289043   5.845   7.016   3.699
29601WAT      O89044   5.755   8.123   1.957
29601WAT     H189045   5.828   8.054   1.956
29601WAT     H289046   5.682   8.095   1.894
29602WAT      O89047   1.165   4.921   5.665
29602WAT     H189048   1.123   4.985   5.601
29602WAT     H289049   1.132   4.939   5.758
29603WAT      O89050   4.010   2.547   6.464
29603WAT     H189051   3.988   2.450   6.479
29603WAT     H289052   4.082   2.575   6.528
29604WAT      O89053   8.119   7.330   7.561
29604WAT     H189054   8.062   7.405   7.595
29604WAT     H289055   8.122   7.257   7.630
29605WAT      O89056   6.028   1.641   6.536
29605WAT     H189057   6.104   1.696   6.569
29605WAT     H289058   6.017   1.561   6.595
29606WAT      O89059   2.532   3.048   0.076
29606WAT     H189060   2.522   3.051   0.176
29606WAT     H289061   2.529   2.953   0.046
29607WAT      O89062   0.676   1.180   8.723
29607WAT     H189063   0.711   1.273   8.724
29607WAT     H289064   0.699   1.137   8.635
29608WAT      O89065   2.435   5.778   8.659
29608WAT     H189066   2.376   5.805   8.582
29608WAT     H289067   2.505   5.715   8.626
29609WAT      O89068   2.727   2.547   6.120
29609WAT     H189069   2.707   2.541   6.022
29609WAT     H289070   2.658   2.603   6.165
29610WAT      O89071   4.138   4.451   9.386
29610WAT     H189072   4.055   4.401   9.362
29610WAT     H289073   4.115   4.546   9.409
29611WAT      O89074   9.420   9.720   1.419
29611WAT     H189075   9.514   9.735   1.448
29611WAT     H289076   9.414   9.731   1.320
29612WAT      O89077   9.281   7.722   4.788
29612WAT     H189078   9.348   7.741   4.859
29612WAT     H289079   9.234   7.806   4.762
29613WAT      O89080   6.156   8.267   7.853
29613WAT     H189081   6.255   8.250   7.844
29613WAT     H289082   6.129   8.254   7.948
29614WAT      O89083   6.634   4.162   1.789
29614WAT     H189084   6.704   4.230   1.765
29614WAT     H289085   6.676   4.088   1.841
29615WAT      O89086   0.885   5.885   6.324
29615WAT     H189087   0.794   5.923   6.341
29615WAT     H289088   0.895   5.799   6.373
29616WAT      O89089   0.077   3.779   2.702
29616WAT     H189090   0.078   3.684   2.730
29616WAT     H289091   0.141   3.831   2.758
29617WAT      O89092   5.597   6.441   6.101
29617WAT     H189093   5.677   6.420   6.156
29617WAT     H289094   5.522   6.379   6.126
29618WAT      O89095   9.638   8.967   7.317
29618WAT     H189096   9.661   9.003   7.407
29618WAT     H289097   9.722   8.957   7.263
29619WAT      O89098   6.232   5.410   7.313
29619WAT     H189099   6.194   5.488   7.264
29619WAT     H289100   6.278   5.442   7.397
29620WAT      O89101   8.633   2.054   1.826
29620WAT     H189102   8.683   2.135   1.797
29620WAT     H289103   8.561   2.034   1.759
29621WAT      O89104   4.440   1.197   3.443
29621WAT     H189105   4.360   1.211   3.385
29621WAT     H289106   4.446   1.271   3.510
29622WAT      O89107   6.947   3.938   7.325
29622WAT     H189108   6.914   3.846   7.306
29622WAT     H289109   7.008   3.935   7.405
29623WAT      O89110   7.816   4.450   5.405
29623WAT     H189111   7.817   4.377   5.473
29623WAT     H289112   7.722   4.464   5.372
29624WAT      O89113   2.215   0.294   3.060
29624WAT     H189114   2.275   0.368   3.090
29624WAT     H289115   2.142   0.332   3.002
29625WAT      O89116   5.818   7.967   5.788
29625WAT     H189117   5.899   7.915   5.761
29625WAT     H289118   5.788   7.937   5.878
29626WAT      O89119   1.376   1.983   6.539
29626WAT     H189120   1.436   1.906   6.557
29626WAT     H289121   1.356   2.031   6.624
29627WAT      O89122   5.026   6.797   7.481
29627WAT     H189123   4.948   6.757   7.432
29627WAT     H289124   5.062   6.874   7.429
29628WAT      O89125   1.904   1.633   8.930
29628WAT     H189126   1.829   1.646   8.866
29628WAT     H289127   1.867   1.608   9.020
29629WAT      O89128   4.078   5.566   4.068
29629WAT     H189129   4.161   5.614   4.093
29629WAT     H289130   4.097   5.502   3.994
29630WAT      O89131   9.764   8.863   3.443
29630WAT     H189132   9.843   8.921   3.462
29630WAT     H289133   9.791   8.767   3.443
29631WAT      O89134   8.690   6.452   8.488
29631WAT     H189135   8.685   6.547   8.518
29631WAT     H289136   8.773   6.438   8.434
29632WAT      O89137   2.176   4.543   0.727
29632WAT     H189138   2.188   4.628   0.676
29632WAT     H289139   2.145   4.564   0.819
29633WAT      O89140   9.704   9.412   9.249
29633WAT     H189141   9.663   9.382   9.163
29633WAT     H289142   9.782   9.472   9.231
29634WAT      O89143   7.704   9.305   6.216
29634WAT     H189144   7.759   9.339   6.140
29634WAT     H289145   7.643   9.232   6.183
29635WAT      O89146   1.677   6.684   5.334
29635WAT     H189147   1.708   6.686   5.429
29635WAT     H289148   1.577   6.692   5.331
29636WAT      O89149   2.906   9.531   6.446
29636WAT     H189150   2.845   9.468   6.493
29636WAT     H289151   2.856   9.613   6.419
29637WAT      O89152   2.637   2.116   4.277
29637WAT     H189153   2.685   2.140   4.192
29637WAT     H289154   2.541   2.141   4.269
29638WAT      O89155   5.416   6.300   3.350
29638WAT     H189156   5.333   6.279   3.298
29638WAT     H289157   5.426   6.399   3.359
29639WAT      O89158   6.593   5.326   1.480
29639WAT     H189159   6.573   5.384   1.401
29639WAT     H289160   6.688   5.295   1.475
29640WAT      O89161   9.392   6.966   9.152
29640WAT     H189162   9.459   6.957   9.226
29640WAT     H289163   9.392   7.060   9.118
29641WAT      O89164   0.984   5.941   5.551
29641WAT     H189165   0.923   5.945   5.630
29641WAT     H289166   1.075   5.975   5.576
29642WAT      O89167   2.097   4.047   1.049
29642WAT     H189168   2.035   3.986   1.099
29642WAT     H289169   2.191   4.022   1.071
29643WAT      O89170   5.354   1.035   0.382
29643WAT     H189171   5.416   1.068   0.453
29643WAT     H289172   5.350   1.100   0.307
29644WAT      O89173   5.827   7.327   7.810
29644WAT     H189174   5.781   7.398   7.863
29644WAT     H289175   5.903   7.368   7.759
29645WAT      O89176   5.503   4.001   0.768
29645WAT     H189177   5.602   4.015   0.769
29645WAT     H289178   5.466   4.020   0.858
29646WAT      O89179   2.609   3.341   3.900
29646WAT     H189180   2.557   3.329   3.985
29646WAT     H289181   2.602   3.437   3.871
29647WAT      O89182   7.464   9.718   5.927
29647WAT     H189183   7.370   9.697   5.955
29647WAT     H289184   7.524   9.714   6.007
29648WAT      O89185   1.675   5.139   0.046
29648WAT     H189186   1.635   5.151  -0.045
29648WAT     H289187   1.611   5.087   0.104
29649WAT      O89188   5.152   3.540   0.132
29649WAT     H189189   5.064   3.526   0.086
29649WAT     H289190   5.216   3.584   0.069
29650WAT      O89191   7.148   7.967   8.735
29650WAT     H189192   7.100   8.047   8.770
29650WAT     H289193   7.180   7.911   8.812
29651WAT      O89194   2.799   4.345   6.244
29651WAT     H189195   2.789   4.254   6.203
29651WAT     H289196   2.759   4.414   6.183
29652WAT      O89197   5.245   6.368   2.445
29652WAT     H189198   5.279   6.305   2.515
29652WAT     H289199   5.294   6.454   2.452
29653WAT      O89200   3.945   0.101   6.108
29653WAT     H189201   4.039   0.084   6.077
29653WAT     H289202   3.934   0.065   6.201
29654WAT      O89203   3.328   3.403   5.122
29654WAT     H189204   3.305   3.481   5.064
29654WAT     H289205   3.383   3.434   5.200
29655WAT      O89206   7.729   2.510   5.119
29655WAT     H189207   7.680   2.584   5.165
29655WAT     H289208   7.804   2.549   5.064
29656WAT      O89209   8.921   7.123   1.163
29656WAT     H189210   8.849   7.127   1.093
29656WAT     H289211   8.887   7.166   1.247
29657WAT      O89212   7.718   0.986   8.257
29657WAT     H189213   7.654   1.063   8.249
29657WAT     H289214   7.669   0.905   8.288
29658WAT      O89215   5.381   3.928   7.254
29658WAT     H189216   5.299   3.899   7.206
29658WAT     H289217   5.459   3.874   7.222
29659WAT      O89218   3.693   6.326   9.485
29659WAT     H189219   3.737   6.240   9.511
29659WAT     H289220   3.755   6.402   9.503
29660WAT      O89221   6.287   2.586   3.440
29660WAT     H189222   6.199   2.611   3.480
29660WAT     H289223   6.353   2.570   3.512
29661WAT      O89224   3.413   8.041   7.018
29661WAT     H189225   3.495   8.055   6.962
29661WAT     H289226   3.339   8.099   6.983
29662WAT      O89227   6.788   4.071   3.103
29662WAT     H189228   6.839   3.990   3.132
29662WAT     H289229   6.692   4.060   3.128
29663WAT      O89230   2.885   5.898   8.190
29663WAT     H189231   2.881   5.972   8.123
29663WAT     H289232   2.796   5.886   8.233
29664WAT      O89233   0.210   7.167   2.099
29664WAT     H189234   0.163   7.210   2.023
29664WAT     H289235   0.143   7.144   2.170
29665WAT      O89236   2.560   7.428   6.765
29665WAT     H189237   2.571   7.499   6.695
29665WAT     H289238   2.503   7.354   6.729
29666WAT      O89239   5.778   7.545   6.846
29666WAT     H189240   5.738   7.457   6.821
29666WAT     H289241   5.816   7.540   6.938
29667WAT      O89242   2.294   3.229   5.043
29667WAT     H189243   2.263   3.317   5.008
29667WAT     H289244   2.257   3.214   5.135
29668WAT      O89245   3.711   8.817   0.638
29668WAT     H189246   3.722   8.911   0.671
29668WAT     H289247   3.794   8.789   0.590
29669WAT      O89248   0.356   4.728   9.074
29669WAT     H189249   0.368   4.630   9.083
29669WAT     H289250   0.439   4.775   9.104
29670WAT      O89251   8.343   1.381   7.850
29670WAT     H189252   8.440   1.404   7.859
29670WAT     H289253   8.304   1.365   7.941
29671WAT      O89254   4.038   8.324   0.990
29671WAT     H189255   4.110   8.298   1.054
29671WAT     H289256   3.978   8.392   1.032
29672WAT      O89257   8.644   4.647   3.271
29672WAT     H189258   8.715   4.658   3.341
29672WAT     H289259   8.662   4.710   3.195
29673WAT      O89260   1.473   8.752   4.200
29673WAT     H189261   1.506   8.787   4.112
29673WAT     H289262   1.391   8.697   4.185
29674WAT      O89263   7.583   2.992   4.689
29674WAT     H189264   7.579   2.901   4.647
29674WAT     H289265   7.490   3.024   4.705
29675WAT      O89266   0.718   4.075   7.739
29675WAT     H189267   0.757   4.015   7.809
29675WAT     H289268   0.676   4.020   7.667
29676WAT      O89269   0.631   5.431   3.870
29676WAT     H189270   0.574   5.512   3.887
29676WAT     H289271   0.582   5.367   3.811
29677WAT      O89272   6.321   8.525   2.340
29677WAT     H189273   6.223   8.515   2.322
29677WAT     H289274   6.355   8.444   2.387
29678WAT      O89275   3.841   7.201   8.516
29678WAT     H189276   3.777   7.245   8.578
29678WAT     H289277   3.881   7.121   8.561
29679WAT      O89278   7.894   3.314   1.669
29679WAT     H189279   7.800   3.324   1.702
29679WAT     H289280   7.896   3.251   1.591
29680WAT      O89281   6.076   8.174   7.137
29680WAT     H189282   6.034   8.087   7.160
29680WAT     H289283   6.032   8.212   7.055
29681WAT      O89284   2.817   3.733   0.022
29681WAT     H189285   2.837   3.638  -0.002
29681WAT     H289286   2.847   3.750   0.116
29682WAT      O89287   7.272   2.849   8.155
29682WAT     H189288   7.310   2.877   8.067
29682WAT     H289289   7.230   2.759   8.145
29683WAT      O89290   4.683   5.720   5.008
29683WAT     H189291   4.665   5.791   5.076
29683WAT     H289292   4.775   5.684   5.021
29684WAT      O89293   8.662   2.337   0.485
29684WAT     H189294   8.613   2.292   0.560
29684WAT     H289295   8.698   2.425   0.517
29685WAT      O89296   5.455   6.503   3.888
29685WAT     H189297   5.431   6.550   3.803
29685WAT     H289298   5.496   6.414   3.867
29686WAT      O89299   5.583   1.605   0.292
29686WAT     H189300   5.573   1.643   0.384
29686WAT     H289301   5.565   1.676   0.224
29687WAT      O89302   1.505   4.710   4.623
29687WAT     H189303   1.528   4.614   4.609
29687WAT     H289304   1.502   4.757   4.535
29688WAT      O89305   3.412   2.580   7.876
29688WAT     H189306   3.472   2.635   7.817
29688WAT     H289307   3.349   2.527   7.819
29689WAT      O89308   1.565   0.483   5.601
29689WAT     H189309   1.494   0.459   5.535
29689WAT     H289310   1.603   0.399   5.640
29690WAT      O89311   2.493   4.390   4.059
29690WAT     H189312   2.499   4.376   4.158
29690WAT     H289313   2.427   4.326   4.020
29691WAT      O89314   3.344   1.374   4.044
29691WAT     H189315   3.279   1.299   4.051
29691WAT     H289316   3.318   1.435   3.969
29692WAT      O89317   2.833   3.140   6.577
29692WAT     H189318   2.857   3.096   6.663
29692WAT     H289319   2.914   3.147   6.519
29693WAT      O89320   6.757   8.517   4.850
29693WAT     H189321   6.706   8.505   4.765
29693WAT     H289322   6.745   8.437   4.908
29694WAT      O89323   2.820   3.932   8.525
29694WAT     H189324   2.725   3.900   8.525
29694WAT     H289325   2.873   3.879   8.458
29695WAT      O89326   7.672   1.573   9.325
29695WAT     H189327   7.771   1.579   9.341
29695WAT     H289328   7.626   1.647   9.373
29696WAT      O89329   3.851   4.848   4.049
29696WAT     H189330   3.770   4.793   4.067
29696WAT     H289331   3.925   4.820   4.110
29697WAT      O89332   0.750   6.175   2.716
29697WAT     H189333   0.770   6.253   2.775
29697WAT     H289334   0.831   6.152   2.662
29698WAT      O89335   8.878   5.171   8.281
29698WAT     H189336   8.937   5.140   8.206
29698WAT     H289337   8.834   5.093   8.324
29699WAT      O89338   5.182   2.055   1.074
29699WAT     H189339   5.150   1.973   1.026
29699WAT     H289340   5.204   2.031   1.169
29700WAT      O89341   2.026   8.558   3.609
29700WAT     H189342   2.016   8.485   3.542
29700WAT     H289343   2.122   8.579   3.624
29701WAT      O89344   9.514   4.393   9.112
29701WAT     H189345   9.466   4.323   9.058
29701WAT     H289346   9.594   4.351   9.155
29702WAT      O89347   7.365   0.354   7.157
29702WAT     H189348   7.301   0.414   7.108
29702WAT     H289349   7.451   0.349   7.106
29703WAT      O89350   9.089   7.481   7.496
29703WAT     H189351   9.008   7.534   7.523
29703WAT     H289352   9.062   7.387   7.475
29704WAT      O89353   6.059   1.483   6.293
29704WAT     H189354   6.018   1.399   6.329
29704WAT     H289355   6.061   1.552   6.365
29705WAT      O89356   1.308   6.239   5.827
29705WAT     H189357   1.400   6.267   5.857
29705WAT     H289358   1.246   6.240   5.906
29706WAT      O89359   1.398   4.730   9.180
29706WAT     H189360   1.306   4.768   9.191
29706WAT     H289361   1.465   4.801   9.202
29707WAT      O89362   3.465   3.443   2.361
29707WAT     H189363   3.537   3.405   2.419
29707WAT     H289364   3.465   3.396   2.272
29708WAT      O89365   6.319   4.062   9.780
29708WAT     H189366   6.319   4.154   9.743
29708WAT     H289367   6.413   4.033   9.798
29709WAT      O89368   4.893   1.434   3.800
29709WAT     H189369   4.836   1.514   3.817
29709WAT     H289370   4.985   1.450   3.836
29710WAT      O89371   7.298   1.659   2.457
29710WAT     H189372   7.209   1.693   2.488
29710WAT     H289373   7.307   1.563   2.481
29711WAT      O89374   2.019   9.774   4.850
29711WAT     H189375   1.940   9.713   4.858
29711WAT     H289376   2.052   9.772   4.755
29712WAT      O89377   5.881   8.673   8.001
29712WAT     H189378   5.911   8.624   8.083
29712WAT     H289379   5.860   8.768   8.024
29713WAT      O89380   2.257   4.741   2.490
29713WAT     H189381   2.356   4.733   2.499
29713WAT     H289382   2.230   4.718   2.397
29714WAT      O89383   1.075   8.374   0.110
29714WAT     H189384   1.070   8.379   0.209
29714WAT     H289385   0.983   8.365   0.071
29715WAT      O89386   8.810   4.972   4.525
29715WAT     H189387   8.765   4.933   4.605
29715WAT     H289388   8.907   4.987   4.544
29716WAT      O89389   2.955   0.017   6.315
29716WAT     H189390   2.868  -0.033   6.319
29716WAT     H289391   3.030  -0.048   6.327
29717WAT      O89392   5.246   7.186   2.474
29717WAT     H189393   5.299   7.164   2.391
29717WAT     H289394   5.172   7.248   2.450
29718WAT      O89395   4.223   9.232   9.520
29718WAT     H189396   4.148   9.216   9.455
29718WAT     H289397   4.281   9.306   9.485
29719WAT      O89398   4.506   8.658   3.103
29719WAT     H189399   4.500   8.574   3.049
29719WAT     H289400   4.420   8.708   3.097
29720WAT      O89401   9.832   5.751   6.698
29720WAT     H189402   9.738   5.719   6.713
29720WAT     H289403   9.835   5.851   6.710
29721WAT      O89404   3.720   8.218   9.227
29721WAT     H189405   3.661   8.149   9.268
29721WAT     H289406   3.794   8.173   9.177
29722WAT      O89407   3.126   3.328   3.158
29722WAT     H189408   3.066   3.386   3.102
29722WAT     H289409   3.214   3.316   3.110
29723WAT      O89410   4.427   8.590   0.140
29723WAT     H189411   4.503   8.649   0.166
29723WAT     H289412   4.419   8.515   0.207
29724WAT      O89413   2.219   5.469   6.173
29724WAT     H189414   2.249   5.379   6.140
29724WAT     H289415   2.210   5.532   6.096
29725WAT      O89416   5.707   8.478   7.031
29725WAT     H189417   5.677   8.541   6.959
29725WAT     H289418   5.736   8.531   7.111
29726WAT      O89419   3.192   8.160   8.384
29726WAT     H189420   3.102   8.166   8.426
29726WAT     H289421   3.257   8.120   8.449
29727WAT      O89422   4.204   6.926   1.460
29727WAT     H189423   4.278   6.883   1.512
29727WAT     H289424   4.187   6.873   1.376
29728WAT      O89425   0.801   6.100   0.180
29728WAT     H189426   0.721   6.061   0.225
29728WAT     H289427   0.849   6.161   0.244
29729WAT      O89428   4.694   6.107   2.670
29729WAT     H189429   4.781   6.071   2.703
29729WAT     H289430   4.652   6.162   2.742
29730WAT      O89431   7.063   4.923   1.772
29730WAT     H189432   7.040   4.853   1.705
29730WAT     H289433   7.012   4.906   1.857
29731WAT      O89434   2.258   0.694   1.905
29731WAT     H189435   2.241   0.645   1.819
29731WAT     H289436   2.249   0.630   1.982
29732WAT      O89437   9.466   0.871   7.499
29732WAT     H189438   9.472   0.796   7.565
29732WAT     H289439   9.404   0.941   7.534
29733WAT      O89440   3.766   3.114   4.222
29733WAT     H189441   3.725   3.053   4.155
29733WAT     H289442   3.810   3.191   4.176
29734WAT      O89443   3.182   4.331   1.161
29734WAT     H189444   3.168   4.411   1.219
29734WAT     H289445   3.096   4.282   1.150
29735WAT      O89446   5.184   6.548   7.073
29735WAT     H189447   5.197   6.613   7.148
29735WAT     H289448   5.211   6.590   6.987
29736WAT      O89449   5.936   6.460   9.451
29736WAT     H189450   5.852   6.411   9.429
29736WAT     H289451   5.979   6.418   9.530
29737WAT      O89452   3.903   6.986   7.353
29737WAT     H189453   3.878   7.008   7.259
29737WAT     H289454   3.986   7.035   7.378
29738WAT      O89455   2.499   8.689   0.733
29738WAT     H189456   2.433   8.761   0.758
29738WAT     H289457   2.561   8.673   0.810
29739WAT      O89458   8.867   0.105   1.879
29739WAT     H189459   8.900   0.054   1.800
29739WAT     H289460   8.944   0.127   1.939
29740WAT      O89461   7.377   7.546   1.394
29740WAT     H189462   7.338   7.577   1.480
29740WAT     H289463   7.309   7.552   1.321
29741WAT      O89464   0.964   3.395   0.492
29741WAT     H189465   0.987   3.469   0.555
29741WAT     H289466   0.865   3.385   0.487
29742WAT      O89467   9.012   5.281   4.233
29742WAT     H189468   8.964   5.239   4.156
29742WAT     H289469   9.110   5.279   4.216
29743WAT      O89470   6.809   7.655   5.297
29743WAT     H189471   6.724   7.707   5.285
29743WAT     H289472   6.841   7.664   5.391
29744WAT      O89473   7.536   2.518   0.735
29744WAT     H189474   7.600   2.481   0.669
29744WAT     H289475   7.564   2.493   0.827
29745WAT      O89476   3.025   2.191   2.139
29745WAT     H189477   2.955   2.120   2.148
29745WAT     H289478   2.998   2.271   2.192
29746WAT      O89479   1.408   8.219   6.048
29746WAT     H189480   1.443   8.199   6.140
29746WAT     H289481   1.471   8.280   6.001
29747WAT      O89482   7.030   3.907   6.370
29747WAT     H189483   6.952   3.952   6.414
29747WAT     H289484   7.047   3.949   6.281
29748WAT      O89485   7.685   2.006   2.670
29748WAT     H189486   7.623   1.946   2.619
29748WAT     H289487   7.635   2.052   2.743
29749WAT      O89488   4.876   5.000   7.344
29749WAT     H189489   4.878   4.910   7.300
29749WAT     H289490   4.903   4.991   7.440
29750WAT      O89491   2.968   5.586   6.422
29750WAT     H189492   2.997   5.672   6.380
29750WAT     H289493   2.974   5.512   6.355
29751WAT      O89494   7.292   6.035   3.385
29751WAT     H189495   7.291   5.938   3.363
29751WAT     H289496   7.377   6.076   3.351
29752WAT      O89497   7.078   2.862   3.463
29752WAT     H189498   6.987   2.895   3.484
29752WAT     H289499   7.073   2.766   3.434
29753WAT      O89500   2.205   0.637   0.457
29753WAT     H189501   2.166   0.546   0.445
29753WAT     H289502   2.300   0.637   0.427
29754WAT      O89503   2.565   2.643   0.551
29754WAT     H189504   2.588   2.640   0.454
29754WAT     H289505   2.551   2.550   0.585
29755WAT      O89506   2.389   0.051   5.727
29755WAT     H189507   2.460   0.109   5.767
29755WAT     H289508   2.392   0.057   5.628
29756WAT      O89509   9.079   3.240   0.260
29756WAT     H189510   8.984   3.208   0.259
29756WAT     H289511   9.088   3.311   0.330
29757WAT      O89512   4.801   0.241   7.998
29757WAT     H189513   4.861   0.196   8.065
29757WAT     H289514   4.779   0.333   8.029
29758WAT      O89515   8.902   8.818   7.008
29758WAT     H189516   8.861   8.893   6.955
29758WAT     H289517   8.927   8.851   7.099
29759WAT      O89518   1.213   5.701   9.729
29759WAT     H189519   1.178   5.673   9.819
29759WAT     H289520   1.144   5.757   9.683
29760WAT      O89521   4.794   4.009   5.686
29760WAT     H189522   4.785   3.988   5.588
29760WAT     H289523   4.794   3.924   5.738
29761WAT      O89524   0.386   2.079   7.774
29761WAT     H189525   0.384   2.147   7.701
29761WAT     H289526   0.394   1.988   7.735
29762WAT      O89527   0.683   2.430   2.844
29762WAT     H189528   0.592   2.390   2.858
29762WAT     H289529   0.747   2.392   2.910
29763WAT      O89530   4.076   4.032   8.400
29763WAT     H189531   4.104   4.122   8.431
29763WAT     H289532   4.131   3.962   8.446
29764WAT      O89533   1.962   0.130   0.673
29764WAT     H189534   2.060   0.149   0.663
29764WAT     H289535   1.928   0.178   0.754
29765WAT      O89536   6.775   9.541   9.649
29765WAT     H189537   6.802   9.467   9.710
29765WAT     H289538   6.678   9.529   9.624
29766WAT      O89539   0.159   7.363   6.832
29766WAT     H189540   0.215   7.323   6.760
29766WAT     H289541   0.171   7.463   6.831
29767WAT      O89542   2.497   8.168   3.962
29767WAT     H189543   2.476   8.128   3.872
29767WAT     H289544   2.580   8.127   3.998
29768WAT      O89545   6.171   9.548   3.242
29768WAT     H189546   6.207   9.483   3.175
29768WAT     H289547   6.246   9.583   3.298
29769WAT      O89548   2.769   1.000   9.223
29769WAT     H189549   2.830   0.937   9.175
29769WAT     H289550   2.823   1.073   9.266
29770WAT      O89551   1.648   6.805   7.198
29770WAT     H189552   1.682   6.881   7.254
29770WAT     H289553   1.726   6.757   7.158
29771WAT      O89554   5.224   9.653   4.690
29771WAT     H189555   5.283   9.716   4.640
29771WAT     H289556   5.280   9.587   4.740
29772WAT      O89557   4.450   0.295   5.377
29772WAT     H189558   4.444   0.322   5.474
29772WAT     H289559   4.473   0.374   5.321
29773WAT      O89560   6.713   4.697   5.913
29773WAT     H189561   6.720   4.665   6.007
29773WAT     H289562   6.662   4.783   5.911
29774WAT      O89563   9.009   8.907   7.632
29774WAT     H189564   8.973   8.903   7.725
29774WAT     H289565   9.040   9.000   7.612
29775WAT      O89566   1.089   7.450   3.232
29775WAT     H189567   1.028   7.419   3.159
29775WAT     H289568   1.095   7.380   3.303
29776WAT      O89569   1.760   5.996   3.269
29776WAT     H189570   1.679   6.008   3.211
29776WAT     H289571   1.751   5.910   3.320
29777WAT      O89572   5.687   0.829   6.181
29777WAT     H189573   5.661   0.836   6.085
29777WAT     H289574   5.741   0.909   6.207
29778WAT      O89575   0.924   4.773   5.470
29778WAT     H189576   0.869   4.718   5.406
29778WAT     H289577   0.983   4.712   5.524
29779WAT      O89578   9.670   4.415   1.345
29779WAT     H189579   9.691   4.487   1.410
29779WAT     H289580   9.748   4.354   1.335
29780WAT      O89581   2.866   7.632   6.177
29780WAT     H189582   2.767   7.642   6.184
29780WAT     H289583   2.908   7.721   6.160
29781WAT      O89584   3.543   1.003   0.035
29781WAT     H189585   3.513   0.916   0.073
29781WAT     H289586   3.572   1.064   0.109
29782WAT      O89587   9.577   1.035   2.566
29782WAT     H189588   9.552   1.125   2.602
29782WAT     H289589   9.496   0.976   2.566
29783WAT      O89590   9.005   6.293   2.248
29783WAT     H189591   8.963   6.377   2.213
29783WAT     H289592   9.006   6.296   2.348
29784WAT      O89593   4.847   1.607   9.081
29784WAT     H189594   4.937   1.584   9.045
29784WAT     H289595   4.776   1.564   9.025
29785WAT      O89596   4.091   1.719   6.881
29785WAT     H189597   4.175   1.773   6.886
29785WAT     H289598   4.114   1.622   6.879
29786WAT      O89599   9.356   5.727   9.404
29786WAT     H189600   9.289   5.715   9.477
29786WAT     H289601   9.402   5.640   9.386
29787WAT      O89602   8.272   6.279   2.663
29787WAT     H189603   8.192   6.286   2.722
29787WAT     H289604   8.269   6.192   2.613
29788WAT      O89605   1.929   3.545   3.769
29788WAT     H189606   2.005   3.479   3.762
29788WAT     H289607   1.937   3.611   3.694
29789WAT      O89608   3.268   5.929   8.440
29789WAT     H189609   3.311   5.865   8.377
29789WAT     H289610   3.335   5.961   8.507
29790WAT      O89611   6.297   0.861   5.454
29790WAT     H189612   6.358   0.935   5.484
29790WAT     H289613   6.351   0.780   5.431
29791WAT      O89614   5.865   0.979   4.192
29791WAT     H189615   5.787   1.007   4.135
29791WAT     H289616   5.832   0.948   4.281
29792WAT      O89617   3.703   0.909   0.412
29792WAT     H189618   3.657   0.989   0.374
29792WAT     H289619   3.719   0.923   0.510
29793WAT      O89620   5.027   7.167   7.663
29793WAT     H189621   5.104   7.136   7.607
29793WAT     H289622   5.038   7.263   7.686
29794WAT      O89623   1.880   0.138   1.842
29794WAT     H189624   1.814   0.173   1.909
29794WAT     H289625   1.970   0.176   1.861
29795WAT      O89626   2.027   3.671   8.351
29795WAT     H189627   2.038   3.575   8.328
29795WAT     H289628   2.055   3.728   8.273
29796WAT      O89629   4.299   4.170   3.265
29796WAT     H189630   4.269   4.255   3.308
29796WAT     H289631   4.399   4.163   3.273
29797WAT      O89632   4.917   2.893   8.361
29797WAT     H189633   4.973   2.937   8.431
29797WAT     H289634   4.904   2.797   8.386
29798WAT      O89635   8.749   4.754   1.527
29798WAT     H189636   8.815   4.679   1.519
29798WAT     H289637   8.657   4.716   1.532
29799WAT      O89638   5.919   6.968   0.572
29799WAT     H189639   5.919   6.880   0.619
29799WAT     H289640   5.844   6.970   0.506
29800WAT      O89641   1.632   0.183   5.141
29800WAT     H189642   1.700   0.243   5.101
29800WAT     H289643   1.551   0.179   5.081
29801WAT      O89644   5.623   1.422   8.315
29801WAT     H189645   5.677   1.493   8.360
29801WAT     H289646   5.529   1.424   8.349
29802WAT      O89647   8.812   0.778   5.236
29802WAT     H189648   8.790   0.685   5.206
29802WAT     H289649   8.841   0.777   5.331
29803WAT      O89650   9.809   4.540   1.760
29803WAT     H189651   9.886   4.477   1.748
29803WAT     H289652   9.760   4.549   1.674
29804WAT      O89653   8.717   4.329   0.777
29804WAT     H189654   8.742   4.254   0.716
29804WAT     H289655   8.627   4.366   0.750
29805WAT      O89656   2.691   0.467   0.950
29805WAT     H189657   2.724   0.374   0.966
29805WAT     H289658   2.619   0.488   1.016
29806WAT      O89659   9.045   3.280   6.243
29806WAT     H189660   9.145   3.283   6.252
29806WAT     H289661   9.020   3.256   6.150
29807WAT      O89662   9.628   5.034   0.452
29807WAT     H189663   9.595   4.988   0.370
29807WAT     H289664   9.591   4.988   0.533
29808WAT      O89665   1.653   8.193   6.226
29808WAT     H189666   1.600   8.132   6.285
29808WAT     H289667   1.747   8.197   6.260
29809WAT      O89668   7.686   4.556   2.512
29809WAT     H189669   7.745   4.535   2.433
29809WAT     H289670   7.728   4.521   2.595
29810WAT      O89671   6.872   2.219   0.581
29810WAT     H189672   6.804   2.275   0.628
29810WAT     H289673   6.874   2.245   0.484
29811WAT      O89674   3.794   8.410   1.974
29811WAT     H189675   3.708   8.436   2.018
29811WAT     H289676   3.870   8.430   2.035
29812WAT      O89677   1.266   5.621   6.706
29812WAT     H189678   1.335   5.591   6.641
29812WAT     H289679   1.184   5.651   6.656
29813WAT      O89680   1.938   5.142   2.152
29813WAT     H189681   1.904   5.224   2.106
29813WAT     H289682   1.968   5.166   2.245
29814WAT      O89683   1.342   0.398   3.170
29814WAT     H189684   1.379   0.355   3.087
29814WAT     H289685   1.393   0.481   3.190
29815WAT      O89686   6.472   2.544   7.624
29815WAT     H189687   6.496   2.563   7.720
29815WAT     H289688   6.466   2.630   7.574
29816WAT      O89689   3.738   3.717   9.777
29816WAT     H189690   3.746   3.629   9.731
29816WAT     H289691   3.743   3.790   9.709
29817WAT      O89692   0.332   4.807   2.552
29817WAT     H189693   0.406   4.780   2.491
29817WAT     H289694   0.299   4.898   2.527
29818WAT      O89695   7.018   2.069   9.677
29818WAT     H189696   6.944   2.013   9.640
29818WAT     H289697   7.008   2.074   9.777
29819WAT      O89698   6.872   6.716   0.849
29819WAT     H189699   6.788   6.767   0.834
29819WAT     H289700   6.907   6.735   0.941
29820WAT      O89701   3.220   8.912   5.149
29820WAT     H189702   3.312   8.945   5.126
29820WAT     H289703   3.173   8.884   5.065
29821WAT      O89704   7.596   0.753   0.734
29821WAT     H189705   7.643   0.677   0.688
29821WAT     H289706   7.517   0.717   0.783
29822WAT      O89707   4.651   5.203   3.110
29822WAT     H189708   4.745   5.223   3.138
29822WAT     H289709   4.587   5.232   3.182
29823WAT      O89710   6.748   8.129   6.690
29823WAT     H189711   6.751   8.070   6.609
29823WAT     H289712   6.730   8.223   6.662
29824WAT      O89713   7.509   8.840   0.851
29824WAT     H189714   7.536   8.764   0.792
29824WAT     H289715   7.441   8.808   0.918
29825WAT      O89716   5.111   4.876   2.261
29825WAT     H189717   5.108   4.965   2.308
29825WAT     H289718   5.179   4.818   2.304
29826WAT      O89719   7.445   8.262   3.997
29826WAT     H189720   7.487   8.322   3.929
29826WAT     H289721   7.498   8.177   4.004
29827WAT      O89722   0.104   9.626   8.808
29827WAT     H189723   0.077   9.711   8.763
29827WAT     H289724   0.085   9.549   8.748
29828WAT      O89725   7.380   8.682   4.909
29828WAT     H189726   7.426   8.749   4.968
29828WAT     H289727   7.309   8.728   4.856
29829WAT      O89728   9.075   6.620   8.691
29829WAT     H189729   9.061   6.578   8.602
29829WAT     H289730   9.024   6.569   8.761
29830WAT      O89731   2.083   1.154   9.019
29830WAT     H189732   2.096   1.253   9.015
29830WAT     H289733   2.078   1.117   8.926
29831WAT      O89734   7.117   6.442   8.401
29831WAT     H189735   7.187   6.474   8.337
29831WAT     H289736   7.046   6.512   8.410
29832WAT      O89737   7.651   4.792   4.565
29832WAT     H189738   7.593   4.751   4.636
29832WAT     H289739   7.705   4.866   4.605
29833WAT      O89740   0.063   5.272   3.787
29833WAT     H189741  -0.029   5.236   3.807
29833WAT     H289742   0.087   5.251   3.693
29834WAT      O89743   2.047   7.062   4.172
29834WAT     H189744   2.008   7.015   4.251
29834WAT     H289745   2.086   7.150   4.201
29835WAT      O89746   2.565   4.683   8.635
29835WAT     H189747   2.535   4.588   8.640
29835WAT     H289748   2.658   4.691   8.673
29836WAT      O89749   7.035   5.210   0.232
29836WAT     H189750   7.135   5.209   0.236
29836WAT     H289751   7.006   5.199   0.137
29837WAT      O89752   1.794   6.456   5.253
29837WAT     H189753   1.733   6.526   5.290
29837WAT     H289754   1.876   6.501   5.216
29838WAT      O89755   9.192   2.416   9.383
29838WAT     H189756   9.286   2.414   9.419
29838WAT     H289757   9.159   2.322   9.372
29839WAT      O89758   8.129   3.414   4.618
29839WAT     H189759   8.029   3.405   4.622
29839WAT     H289760   8.154   3.510   4.612
29840WAT      O89761   1.191   9.621   1.571
29840WAT     H189762   1.208   9.574   1.484
29840WAT     H289763   1.206   9.719   1.559
29841WAT      O89764   6.473   8.513   2.816
29841WAT     H189765   6.540   8.578   2.852
29841WAT     H289766   6.505   8.477   2.729
29842WAT      O89767   4.519   8.789   9.066
29842WAT     H189768   4.482   8.699   9.086
29842WAT     H289769   4.578   8.818   9.142
29843WAT      O89770   2.437   7.621   4.737
29843WAT     H189771   2.362   7.684   4.756
29843WAT     H289772   2.508   7.632   4.806
29844WAT      O89773   4.321   2.466   2.436
29844WAT     H189774   4.294   2.524   2.513
29844WAT     H289775   4.272   2.494   2.354
29845WAT      O89776   0.492   3.785   3.866
29845WAT     H189777   0.396   3.813   3.862
29845WAT     H289778   0.543   3.850   3.923
29846WAT      O89779   1.685   4.152   0.637
29846WAT     H189780   1.707   4.159   0.540
29846WAT     H289781   1.702   4.240   0.681
29847WAT      O89782   6.972   6.410   1.771
29847WAT     H189783   6.997   6.332   1.715
29847WAT     H289784   6.948   6.488   1.713
29848WAT      O89785   9.140   1.851   8.942
29848WAT     H189786   9.177   1.942   8.924
29848WAT     H289787   9.210   1.782   8.922
29849WAT      O89788   7.583   9.126   7.852
29849WAT     H189789   7.635   9.087   7.928
29849WAT     H289790   7.485   9.116   7.871
29850WAT      O89791   8.187   7.840   7.588
29850WAT     H189792   8.207   7.765   7.525
29850WAT     H289793   8.185   7.926   7.539
29851WAT      O89794   3.467   0.724   4.298
29851WAT     H189795   3.485   0.713   4.200
29851WAT     H289796   3.443   0.635   4.338
29852WAT      O89797   2.973   3.471   0.414
29852WAT     H189798   2.969   3.391   0.355
29852WAT     H289799   3.068   3.496   0.431
29853WAT      O89800   5.729   0.392   0.045
29853WAT     H189801   5.638   0.350   0.041
29853WAT     H289802   5.739   0.457  -0.031
29854WAT      O89803   0.134   8.761   2.608
29854WAT     H189804   0.206   8.819   2.570
29854WAT     H289805   0.172   8.699   2.676
29855WAT      O89806   1.277   6.387   9.463
29855WAT     H189807   1.290   6.476   9.507
29855WAT     H289808   1.200   6.340   9.505
29856WAT      O89809   4.158   0.927   5.132
29856WAT     H189810   4.118   0.956   5.219
29856WAT     H289811   4.093   0.943   5.058
29857WAT      O89812   3.026   6.249   9.535
29857WAT     H189813   2.977   6.293   9.610
29857WAT     H289814   2.965   6.234   9.458
29858WAT      O89815   0.900   2.720   5.397
29858WAT     H189816   0.842   2.781   5.343
29858WAT     H289817   0.996   2.734   5.374
29859WAT      O89818   5.970   2.241   5.805
29859WAT     H189819   6.058   2.203   5.778
29859WAT     H289820   5.966   2.337   5.779
29860WAT      O89821   9.681   9.041   2.275
29860WAT     H189822   9.723   8.967   2.223
29860WAT     H289823   9.630   9.100   2.214
29861WAT      O89824   7.002   6.931   3.405
29861WAT     H189825   6.962   7.013   3.448
29861WAT     H289826   6.980   6.851   3.460
29862WAT      O89827   1.894   5.442   6.624
29862WAT     H189828   1.872   5.425   6.528
29862WAT     H289829   1.889   5.540   6.643
29863WAT      O89830   0.722   1.540   9.001
29863WAT     H189831   0.625   1.556   8.985
29863WAT     H289832   0.735   1.503   9.093
29864WAT      O89833   5.151   2.249   1.652
29864WAT     H189834   5.091   2.187   1.601
29864WAT     H289835   5.165   2.333   1.600
29865WAT      O89836   3.940   8.833   3.209
29865WAT     H189837   3.876   8.875   3.144
29865WAT     H289838   3.889   8.779   3.276
29866WAT      O89839   4.130   3.956   3.230
29866WAT     H189840   4.168   4.045   3.254
29866WAT     H289841   4.145   3.891   3.305
29867WAT      O89842   0.290   2.469   4.324
29867WAT     H189843   0.362   2.485   4.256
29867WAT     H289844   0.203   2.453   4.278
29868WAT      O89845   7.469   4.106   8.180
29868WAT     H189846   7.509   4.173   8.117
29868WAT     H289847   7.535   4.086   8.252
29869WAT      O89848   2.097   3.711   7.910
29869WAT     H189849   2.032   3.681   7.840
29869WAT     H289850   2.189   3.711   7.871
29870WAT      O89851   5.238   6.756   7.235
29870WAT     H189852   5.289   6.732   7.318
29870WAT     H289853   5.294   6.816   7.178
29871WAT      O89854   2.307   6.767   5.864
29871WAT     H189855   2.304   6.670   5.838
29871WAT     H289856   2.338   6.775   5.959
29872WAT      O89857   6.064   8.657   8.533
29872WAT     H189858   6.044   8.574   8.586
29872WAT     H289859   6.010   8.733   8.569
29873WAT      O89860   9.635   1.076   4.993
29873WAT     H189861   9.713   1.079   4.931
29873WAT     H289862   9.595   0.985   4.992
29874WAT      O89863   9.579   7.634   2.250
29874WAT     H189864   9.550   7.564   2.316
29874WAT     H289865   9.678   7.631   2.240
29875WAT      O89866   5.167   1.607   5.156
29875WAT     H189867   5.068   1.615   5.145
29875WAT     H289868   5.193   1.638   5.247
29876WAT      O89869   8.183   8.873   4.855
29876WAT     H189870   8.195   8.823   4.941
29876WAT     H289871   8.217   8.966   4.867
29877WAT      O89872   3.074   5.652   5.939
29877WAT     H189873   3.112   5.580   5.997
29877WAT     H289874   2.975   5.643   5.934
29878WAT      O89875   2.496   9.262   6.581
29878WAT     H189876   2.489   9.266   6.680
29878WAT     H289877   2.497   9.166   6.551
29879WAT      O89878   0.023   4.522   5.168
29879WAT     H189879  -0.024   4.549   5.253
29879WAT     H289880  -0.018   4.569   5.091
29880WAT      O89881   5.995   1.044   9.271
29880WAT     H189882   6.051   0.961   9.261
29880WAT     H289883   5.898   1.020   9.260
29881WAT      O89884   2.552   4.642   1.550
29881WAT     H189885   2.629   4.600   1.596
29881WAT     H289886   2.496   4.572   1.505
29882WAT      O89887   4.794   5.246   8.753
29882WAT     H189888   4.764   5.310   8.682
29882WAT     H289889   4.742   5.262   8.837
29883WAT      O89890   4.294   8.295   8.551
29883WAT     H189891   4.209   8.249   8.578
29883WAT     H289892   4.363   8.281   8.622
29884WAT      O89893   8.644   1.248   0.219
29884WAT     H189894   8.732   1.256   0.172
29884WAT     H289895   8.571   1.237   0.152
29885WAT      O89896   5.638   7.005   8.132
29885WAT     H189897   5.723   6.959   8.107
29885WAT     H289898   5.648   7.049   8.221
29886WAT      O89899   0.943   7.379   6.162
29886WAT     H189900   0.899   7.451   6.217
29886WAT     H289901   0.982   7.420   6.080
29887WAT      O89902   5.924   5.300   8.998
29887WAT     H189903   6.005   5.245   8.979
29887WAT     H289904   5.846   5.239   9.015
29888WAT      O89905   3.276   2.141   3.709
29888WAT     H189906   3.252   2.224   3.660
29888WAT     H289907   3.329   2.081   3.649
29889WAT      O89908   3.132   3.658   9.180
29889WAT     H189909   3.082   3.611   9.253
29889WAT     H289910   3.145   3.754   9.205
29890WAT      O89911   7.661   2.817   7.910
29890WAT     H189912   7.627   2.736   7.960
29890WAT     H289913   7.687   2.790   7.818
29891WAT      O89914   3.923   5.515   4.292
29891WAT     H189915   3.986   5.557   4.358
29891WAT     H289916   3.964   5.517   4.201
29892WAT      O89917   7.046   8.734   4.274
29892WAT     H189918   7.101   8.653   4.251
29892WAT     H289919   6.990   8.758   4.194
29893WAT      O89920   0.472   5.623   6.527
29893WAT     H189921   0.477   5.567   6.444
29893WAT     H289922   0.449   5.564   6.605
29894WAT      O89923   6.520   6.159   4.556
29894WAT     H189924   6.555   6.077   4.602
29894WAT     H289925   6.568   6.240   4.591
29895WAT      O89926   2.168   8.009   9.053
29895WAT     H189927   2.173   7.957   8.968
29895WAT     H289928   2.091   7.977   9.108
29896WAT      O89929   1.326   0.785   0.873
29896WAT     H189930   1.289   0.843   0.945
29896WAT     H289931   1.350   0.842   0.794
29897WAT      O89932   9.318   9.591   8.797
29897WAT     H189933   9.263   9.565   8.718
29897WAT     H289934   9.414   9.567   8.780
29898WAT      O89935   1.586   5.379   9.587
29898WAT     H189936   1.580   5.372   9.487
29898WAT     H289937   1.673   5.422   9.612
29899WAT      O89938   4.338   2.321   7.015
29899WAT     H189939   4.408   2.377   7.059
29899WAT     H289940   4.248   2.356   7.038
29900WAT      O89941   6.169   4.859   0.214
29900WAT     H189942   6.145   4.943   0.165
29900WAT     H289943   6.214   4.796   0.151
29901WAT      O89944   7.395   9.057   5.755
29901WAT     H189945   7.302   9.023   5.746
29901WAT     H289946   7.400   9.121   5.832
29902WAT      O89947   1.146   2.444   7.983
29902WAT     H189948   1.231   2.496   7.989
29902WAT     H289949   1.072   2.503   7.950
29903WAT      O89950   2.876   1.763   2.324
29903WAT     H189951   2.835   1.851   2.350
29903WAT     H289952   2.950   1.741   2.388
29904WAT      O89953   2.095   3.823   8.148
29904WAT     H189954   2.189   3.854   8.153
29904WAT     H289955   2.077   3.785   8.057
29905WAT      O89956   8.639   1.424   7.814
29905WAT     H189957   8.640   1.452   7.718
29905WAT     H289958   8.610   1.501   7.871
29906WAT      O89959   7.787   3.128   7.464
29906WAT     H189960   7.708   3.190   7.468
29906WAT     H289961   7.787   3.078   7.378
29907WAT      O89962   8.673   4.335   1.470
29907WAT     H189963   8.638   4.361   1.560
29907WAT     H289964   8.663   4.236   1.458
29908WAT      O89965   8.381   2.009   8.644
29908WAT     H189966   8.480   2.016   8.634
29908WAT     H289967   8.359   1.954   8.724
29909WAT      O89968   6.039   8.098   0.444
29909WAT     H189969   6.088   8.077   0.360
29909WAT     H289970   5.988   8.184   0.432
29910WAT      O89971   4.879   3.136   7.714
29910WAT     H189972   4.949   3.207   7.708
29910WAT     H289973   4.911   3.062   7.773
29911WAT      O89974   1.802   3.785   9.092
29911WAT     H189975   1.704   3.806   9.090
29911WAT     H289976   1.822   3.712   9.026
29912WAT      O89977   8.427   4.700   0.139
29912WAT     H189978   8.466   4.666   0.054
29912WAT     H289979   8.490   4.767   0.179
29913WAT      O89980   1.598   0.797   8.288
29913WAT     H189981   1.605   0.699   8.302
29913WAT     H289982   1.512   0.820   8.242
29914WAT      O89983   6.146   9.660   7.884
29914WAT     H189984   6.165   9.621   7.794
29914WAT     H289985   6.185   9.752   7.890
29915WAT      O89986   7.750   2.364   3.396
29915WAT     H189987   7.807   2.446   3.406
29915WAT     H289988   7.796   2.286   3.439
29916WAT      O89989   0.414   9.255   4.030
29916WAT     H189990   0.434   9.301   4.117
29916WAT     H289991   0.492   9.268   3.968
29917WAT      O89992   1.836   9.175   2.729
29917WAT     H189993   1.880   9.125   2.803
29917WAT     H289994   1.822   9.114   2.651
29918WAT      O89995   4.971   8.546   3.656
29918WAT     H189996   4.971   8.552   3.756
29918WAT     H289997   5.047   8.601   3.620
29919WAT      O89998   8.645   8.669   2.661
29919WAT     H189999   8.704   8.749   2.650
29919WAT     H290000   8.693   8.588   2.626
29920WAT      O90001   7.623   7.565   8.820
29920WAT     H190002   7.696   7.626   8.852
29920WAT     H290003   7.664   7.488   8.771
29921WAT      O90004   3.827   6.011   4.282
29921WAT     H190005   3.897   6.078   4.306
29921WAT     H290006   3.857   5.958   4.204
29922WAT      O90007   6.533   1.980   4.979
29922WAT     H190008   6.512   1.923   5.059
29922WAT     H290009   6.632   1.977   4.962
29923WAT      O90010   0.940   6.622   8.956
29923WAT     H190011   0.884   6.576   8.887
29923WAT     H290012   0.995   6.694   8.912
29924WAT      O90013   2.714   3.217   7.489
29924WAT     H190014   2.623   3.257   7.505
29924WAT     H290015   2.712   3.164   7.404
29925WAT      O90016   9.237   5.637   5.811
29925WAT     H190017   9.238   5.728   5.771
29925WAT     H290018   9.158   5.628   5.872
29926WAT      O90019   5.951   0.697   2.566
29926WAT     H190020   5.979   0.675   2.659
29926WAT     H290021   5.874   0.640   2.540
29927WAT      O90022   7.719   3.093   2.867
29927WAT     H190023   7.718   3.111   2.768
29927WAT     H290024   7.763   3.005   2.884
29928WAT      O90025   9.275   8.229   4.844
29928WAT     H190026   9.212   8.223   4.921
29928WAT     H290027   9.328   8.144   4.837
29929WAT      O90028   2.241   7.994   4.426
29929WAT     H190029   2.305   8.005   4.503
29929WAT     H290030   2.217   7.897   4.417
29930WAT      O90031   7.682   1.278   6.529
29930WAT     H190032   7.661   1.371   6.558
29930WAT     H290033   7.659   1.267   6.433
29931WAT      O90034   7.405   2.224   9.771
29931WAT     H190035   7.320   2.240   9.721
29931WAT     H290036   7.472   2.183   9.709
29932WAT      O90037   4.966   6.352   7.513
29932WAT     H190038   4.991   6.350   7.416
29932WAT     H290039   5.037   6.398   7.565
29933WAT      O90040   1.515   5.008   1.370
29933WAT     H190041   1.436   5.056   1.331
29933WAT     H290042   1.584   5.075   1.399
29934WAT      O90043   3.230   9.201   6.466
29934WAT     H190044   3.239   9.235   6.372
29934WAT     H290045   3.282   9.117   6.476
29935WAT      O90046   7.495   3.638   5.409
29935WAT     H190047   7.437   3.557   5.419
29935WAT     H290048   7.464   3.709   5.473
29936WAT      O90049   2.812   0.251   2.323
29936WAT     H190050   2.786   0.347   2.331
29936WAT     H290051   2.899   0.243   2.274
29937WAT      O90052   4.275   7.338   5.868
29937WAT     H190053   4.337   7.265   5.842
29937WAT     H290054   4.259   7.335   5.967
29938WAT      O90055   9.241   2.548   3.140
29938WAT     H190056   9.297   2.557   3.058
29938WAT     H290057   9.237   2.451   3.168
29939WAT      O90058   8.783   1.659   5.356
29939WAT     H190059   8.713   1.590   5.380
29939WAT     H290060   8.828   1.690   5.440
29940WAT      O90061   4.014   3.003   3.948
29940WAT     H190062   3.997   2.967   4.040
29940WAT     H290063   4.042   2.928   3.887
29941WAT      O90064   4.741   9.594   3.467
29941WAT     H190065   4.787   9.679   3.491
29941WAT     H290066   4.664   9.613   3.407
29942WAT      O90067   4.935   3.321   9.468
29942WAT     H190068   4.835   3.324   9.463
29942WAT     H290069   4.963   3.318   9.564
29943WAT      O90070   8.806   4.759   9.089
29943WAT     H190071   8.786   4.662   9.103
29943WAT     H290072   8.758   4.792   9.008
29944WAT      O90073   1.692   8.053   1.916
29944WAT     H190074   1.746   8.135   1.896
29944WAT     H290075   1.614   8.049   1.854
29945WAT      O90076   4.105   2.222   0.852
29945WAT     H190077   4.189   2.273   0.828
29945WAT     H290078   4.041   2.284   0.897
29946WAT      O90079   1.019   3.312   0.881
29946WAT     H190080   1.013   3.387   0.814
29946WAT     H290081   0.960   3.237   0.852
29947WAT      O90082   9.856   0.310   3.789
29947WAT     H190083   9.866   0.355   3.701
29947WAT     H290084   9.887   0.215   3.783
29948WAT      O90085   2.952   2.712   7.264
29948WAT     H190086   3.036   2.688   7.312
29948WAT     H290087   2.884   2.744   7.330
29949WAT      O90088   8.811   8.763   9.199
29949WAT     H190089   8.861   8.733   9.281
29949WAT     H290090   8.836   8.857   9.178
29950WAT      O90091   4.624   2.946   2.676
29950WAT     H190092   4.577   3.013   2.618
29950WAT     H290093   4.717   2.932   2.642
29951WAT      O90094   9.829   8.343   0.079
29951WAT     H190095   9.803   8.247   0.090
29951WAT     H290096   9.885   8.353  -0.004
29952WAT      O90097   0.224   3.515   8.290
29952WAT     H190098   0.146   3.571   8.261
29952WAT     H290099   0.309   3.563   8.269
29953WAT      O90100   5.143   0.273   3.390
29953WAT     H190101   5.112   0.227   3.307
29953WAT     H290102   5.160   0.206   3.461
29954WAT      O90103   4.265   6.531   9.215
29954WAT     H190104   4.214   6.560   9.133
29954WAT     H290105   4.201   6.518   9.291
29955WAT      O90106   9.810   7.154   4.787
29955WAT     H190107   9.780   7.059   4.800
29955WAT     H290108   9.853   7.187   4.871
29956WAT      O90109   8.952   1.593   1.609
29956WAT     H190110   8.932   1.563   1.515
29956WAT     H290111   8.869   1.589   1.664
29957WAT      O90112   7.322   2.189   9.056
29957WAT     H190113   7.276   2.278   9.056
29957WAT     H290114   7.345   2.164   9.150
29958WAT      O90115   2.071   1.421   7.852
29958WAT     H190116   2.060   1.386   7.759
29958WAT     H290117   2.156   1.474   7.857
29959WAT      O90118   5.265   0.451   5.629
29959WAT     H190119   5.223   0.528   5.581
29959WAT     H290120   5.362   0.444   5.602
29960WAT      O90121   2.533   0.948   7.394
29960WAT     H190122   2.477   0.867   7.409
29960WAT     H290123   2.482   1.029   7.424
29961WAT      O90124   1.727   0.026   7.460
29961WAT     H190125   1.804   0.057   7.516
29961WAT     H290126   1.763  -0.020   7.378
29962WAT      O90127   4.116   1.748   5.176
29962WAT     H190128   4.086   1.681   5.244
29962WAT     H290129   4.040   1.771   5.115
29963WAT      O90130   9.448   9.095   8.971
29963WAT     H190131   9.428   9.013   8.917
29963WAT     H290132   9.378   9.106   9.042
29964WAT      O90133   6.714   0.917   2.828
29964WAT     H190134   6.757   0.847   2.772
29964WAT     H290135   6.615   0.916   2.810
29965WAT      O90136   0.245   1.137   5.937
29965WAT     H190137   0.272   1.124   5.841
29965WAT     H290138   0.236   1.048   5.981
29966WAT      O90139   2.693   3.086   2.000
29966WAT     H190140   2.649   3.019   2.060
29966WAT     H290141   2.640   3.171   2.000
29967WAT      O90142   4.668   1.300   7.452
29967WAT     H190143   4.743   1.279   7.389
29967WAT     H290144   4.581   1.289   7.406
29968WAT      O90145   9.453   3.782   9.766
29968WAT     H190146   9.356   3.760   9.777
29968WAT     H290147   9.499   3.776   9.855
29969WAT      O90148   2.704   7.986   7.736
29969WAT     H190149   2.715   7.988   7.835
29969WAT     H290150   2.777   8.039   7.693
29970WAT      O90151   5.612   8.490   8.807
29970WAT     H190152   5.705   8.506   8.839
29970WAT     H290153   5.584   8.564   8.747
29971WAT      O90154   0.219   0.961   7.540
29971WAT     H190155   0.289   0.969   7.611
29971WAT     H290156   0.262   0.932   7.455
29972WAT      O90157   3.411   6.668   1.528
29972WAT     H190158   3.322   6.656   1.482
29972WAT     H290159   3.478   6.606   1.487
29973WAT      O90160   3.878   5.360   9.249
29973WAT     H190161   3.892   5.262   9.248
29973WAT     H290162   3.886   5.396   9.155
29974WAT      O90163   2.017   0.156   8.810
29974WAT     H190164   1.996   0.142   8.713
29974WAT     H290165   2.096   0.217   8.819
29975WAT      O90166   7.576   9.291   4.868
29975WAT     H190167   7.631   9.254   4.793
29975WAT     H290168   7.627   9.364   4.913
29976WAT      O90169   0.619   9.067   9.622
29976WAT     H190170   0.621   9.065   9.522
29976WAT     H290171   0.557   9.139   9.652
29977WAT      O90172   9.838   6.674   1.932
29977WAT     H190173   9.914   6.655   1.994
29977WAT     H290174   9.752   6.648   1.976
29978WAT      O90175   1.104   3.616   7.275
29978WAT     H190176   1.129   3.609   7.179
29978WAT     H290177   1.163   3.555   7.329
29979WAT      O90178   3.994   8.362   2.384
29979WAT     H190179   3.896   8.366   2.363
29979WAT     H290180   4.024   8.267   2.381
29980WAT      O90181   2.985   8.999   2.907
29980WAT     H190182   3.014   8.909   2.942
29980WAT     H290183   2.893   8.991   2.869
29981WAT      O90184   4.211   2.993   0.764
29981WAT     H190185   4.156   2.911   0.749
29981WAT     H290186   4.152   3.073   0.767
29982WAT      O90187   6.916   8.910   0.198
29982WAT     H190188   6.855   8.972   0.246
29982WAT     H290189   6.872   8.821   0.188
29983WAT      O90190   0.158   4.817   9.434
29983WAT     H190191   0.216   4.750   9.389
29983WAT     H290192   0.076   4.833   9.379
29984WAT      O90193   6.261   4.632   0.048
29984WAT     H190194   6.339   4.651  -0.011
29984WAT     H290195   6.190   4.585  -0.004
29985WAT      O90196   1.276   6.174   6.097
29985WAT     H190197   1.335   6.095   6.077
29985WAT     H290198   1.181   6.144   6.107
29986WAT      O90199   5.818   7.158   5.171
29986WAT     H190200   5.821   7.060   5.153
29986WAT     H290201   5.822   7.208   5.084
29987WAT      O90202   6.985   7.150   5.104
29987WAT     H190203   7.007   7.233   5.154
29987WAT     H290204   6.903   7.164   5.050
29988WAT      O90205   4.903   8.547   0.263
29988WAT     H190206   4.823   8.523   0.319
29988WAT     H290207   4.878   8.620   0.200
29989WAT      O90208   7.195   2.827   8.934
29989WAT     H190209   7.097   2.836   8.946
29989WAT     H290210   7.235   2.777   9.011
29990WAT      O90211   3.113   8.489   6.102
29990WAT     H190212   3.048   8.460   6.032
29990WAT     H290213   3.156   8.410   6.143
29991WAT      O90214   7.056   6.793   4.017
29991WAT     H190215   7.115   6.869   3.993
29991WAT     H290216   7.099   6.706   3.991
29992WAT      O90217   7.725   6.265   1.163
29992WAT     H190218   7.649   6.232   1.218
29992WAT     H290219   7.741   6.202   1.087
29993WAT      O90220   3.977   8.293   1.514
29993WAT     H190221   3.905   8.296   1.584
29993WAT     H290222   4.042   8.367   1.531
29994WAT      O90223   4.454   5.377   4.203
29994WAT     H190224   4.394   5.451   4.170
29994WAT     H290225   4.496   5.331   4.124
29995WAT      O90226   7.932   6.535   5.358
29995WAT     H190227   7.974   6.450   5.327
29995WAT     H290228   7.889   6.521   5.447
29996WAT      O90229   4.359   0.588   9.099
29996WAT     H190230   4.269   0.626   9.076
29996WAT     H290231   4.430   0.643   9.055
29997WAT      O90232   6.852   2.885   6.866
29997WAT     H190233   6.927   2.896   6.931
29997WAT     H290234   6.882   2.913   6.775
29998WAT      O90235   3.586   4.451   2.524
29998WAT     H190236   3.507   4.396   2.551
29998WAT     H290237   3.609   4.430   2.429
29999WAT      O90238   5.946   3.404   5.299
29999WAT     H190239   5.884   3.417   5.221
29999WAT     H290240   6.040   3.419   5.270
30000WAT      O90241   0.169   5.114   2.726
30000WAT     H190242   0.218   5.083   2.645
30000WAT     H290243   0.135   5.034   2.777
30001WAT      O90244   2.565   1.358   7.428
30001WAT     H190245   2.655   1.322   7.403
30001WAT     H290246   2.519   1.392   7.346
30002WAT      O90247   8.362   3.558   9.827
30002WAT     H190248   8.416   3.540   9.909
30002WAT     H290249   8.279   3.608   9.853
30003WAT      O90250   7.620   0.964   4.687
30003WAT     H190251   7.549   0.895   4.670
30003WAT     H290252   7.580   1.056   4.680
30004WAT      O90253   9.762   3.366   1.507
30004WAT     H190254   9.673   3.339   1.544
30004WAT     H290255   9.751   3.445   1.448
30005WAT      O90256   4.440   5.317   0.796
30005WAT     H190257   4.395   5.245   0.849
30005WAT     H290258   4.445   5.400   0.852
30006WAT      O90259   8.336   5.552   5.753
30006WAT     H190260   8.427   5.509   5.756
30006WAT     H290261   8.296   5.538   5.662
30007WAT      O90262   4.199   3.239   5.230
30007WAT     H190263   4.121   3.201   5.180
30007WAT     H290264   4.181   3.334   5.252
30008WAT      O90265   2.289   5.387   1.113
30008WAT     H190266   2.211   5.325   1.111
30008WAT     H290267   2.321   5.402   1.020
30009WAT      O90268   4.052   0.090   8.664
30009WAT     H190269   4.076   0.044   8.579
30009WAT     H290270   3.954   0.110   8.665
30010WAT      O90271   8.683   4.858   8.085
30010WAT     H190272   8.645   4.925   8.022
30010WAT     H290273   8.782   4.850   8.070
30011WAT      O90274   5.992   4.962   1.475
30011WAT     H190275   6.045   5.046   1.482
30011WAT     H290276   6.037   4.889   1.527
30012WAT      O90277   4.143   0.467   2.738
30012WAT     H190278   4.243   0.464   2.731
30012WAT     H290279   4.117   0.544   2.796
30013WAT      O90280   1.186   7.546   1.540
30013WAT     H190281   1.186   7.475   1.470
30013WAT     H290282   1.228   7.629   1.503
30014WAT      O90283   7.545   9.197   2.342
30014WAT     H190284   7.638   9.173   2.313
30014WAT     H290285   7.506   9.262   2.276
30015WAT      O90286   8.577   5.371   4.985
30015WAT     H190287   8.588   5.324   4.897
30015WAT     H290288   8.618   5.315   5.057
30016WAT      O90289   3.776   5.215   3.399
30016WAT     H190290   3.747   5.141   3.460
30016WAT     H290291   3.753   5.303   3.440
30017WAT      O90292   1.920   0.700   7.998
30017WAT     H190293   1.918   0.732   8.093
30017WAT     H290294   1.930   0.601   7.996
30018WAT      O90295   9.144   7.827   2.241
30018WAT     H190296   9.163   7.766   2.164
30018WAT     H290297   9.047   7.823   2.264
30019WAT      O90298   1.614   5.229   2.101
30019WAT     H190299   1.619   5.165   2.025
30019WAT     H290300   1.540   5.202   2.163
30020WAT      O90301   1.882   9.307   9.200
30020WAT     H190302   1.957   9.371   9.217
30020WAT     H290303   1.801   9.335   9.252
30021WAT      O90304   3.843   4.943   0.445
30021WAT     H190305   3.892   5.029   0.459
30021WAT     H290306   3.860   4.909   0.352
30022WAT      O90307   0.880   7.655   5.870
30022WAT     H190308   0.817   7.606   5.810
30022WAT     H290309   0.960   7.598   5.888
30023WAT      O90310   9.511   5.244   7.069
30023WAT     H190311   9.587   5.268   7.008
30023WAT     H290312   9.510   5.144   7.081
30024WAT      O90313   1.727   6.463   2.888
30024WAT     H190314   1.638   6.492   2.924
30024WAT     H290315   1.716   6.428   2.795
30025WAT      O90316   9.580   0.761   6.584
30025WAT     H190317   9.610   0.733   6.493
30025WAT     H290318   9.660   0.766   6.645
30026WAT      O90319   0.998   3.938   4.616
30026WAT     H190320   1.068   3.977   4.556
30026WAT     H290321   0.923   4.003   4.627
30027WAT      O90322   3.204   9.239   5.450
30027WAT     H190323   3.107   9.258   5.462
30027WAT     H290324   3.224   9.147   5.485
30028WAT      O90325   1.973   9.344   8.354
30028WAT     H190326   1.927   9.277   8.296
30028WAT     H290327   1.906   9.391   8.411
30029WAT      O90328   4.054   0.611   8.822
30029WAT     H190329   4.064   0.642   8.916
30029WAT     H290330   3.998   0.528   8.819
30030WAT      O90331   7.516   8.062   1.323
30030WAT     H190332   7.458   7.999   1.373
30030WAT     H290333   7.471   8.151   1.316
30031WAT      O90334   2.805   0.503   2.191
30031WAT     H190335   2.764   0.594   2.187
30031WAT     H290336   2.765   0.445   2.121
30032WAT      O90337   0.144   4.798   0.315
30032WAT     H190338   0.178   4.736   0.385
30032WAT     H290339   0.084   4.866   0.357
30033WAT      O90340   5.240   8.686   0.070
30033WAT     H190341   5.239   8.743   0.152
30033WAT     H290342   5.282   8.598   0.092
30034WAT      O90343   7.975   4.103   5.085
30034WAT     H190344   8.051   4.110   5.020
30034WAT     H290345   7.915   4.182   5.074
30035WAT      O90346   8.585   1.280   5.713
30035WAT     H190347   8.647   1.349   5.677
30035WAT     H290348   8.493   1.318   5.722
30036WAT      O90349   4.117   5.778   9.839
30036WAT     H190350   4.151   5.855   9.893
30036WAT     H290351   4.190   5.710   9.828
30037WAT      O90352   1.529   5.766   2.116
30037WAT     H190353   1.522   5.674   2.077
30037WAT     H290354   1.498   5.764   2.211
30038WAT      O90355   0.575   9.618   6.143
30038WAT     H190356   0.546   9.533   6.186
30038WAT     H290357   0.559   9.694   6.206
30039WAT      O90358   4.325   5.181   7.732
30039WAT     H190359   4.374   5.115   7.788
30039WAT     H290360   4.231   5.149   7.718
30040WAT      O90361   3.150   3.184   7.708
30040WAT     H190362   3.055   3.167   7.734
30040WAT     H290363   3.205   3.102   7.727
30041WAT      O90364   4.473   7.005   3.182
30041WAT     H190365   4.410   7.020   3.258
30041WAT     H290366   4.444   6.924   3.129
30042WAT      O90367   8.455   7.166   1.290
30042WAT     H190368   8.534   7.224   1.271
30042WAT     H290369   8.388   7.177   1.217
30043WAT      O90370   3.558   1.223   8.414
30043WAT     H190371   3.594   1.211   8.321
30043WAT     H290372   3.458   1.223   8.411
30044WAT      O90373   3.371   7.056   0.620
30044WAT     H190374   3.332   6.981   0.567
30044WAT     H290375   3.362   7.141   0.568
30045WAT      O90376   7.746   0.538   1.138
30045WAT     H190377   7.775   0.471   1.070
30045WAT     H290378   7.826   0.585   1.176
30046WAT      O90379   0.808   5.862   7.938
30046WAT     H190380   0.818   5.861   7.839
30046WAT     H290381   0.751   5.785   7.966
30047WAT      O90382   7.644   1.490   4.822
30047WAT     H190383   7.566   1.474   4.882
30047WAT     H290384   7.660   1.409   4.766
30048WAT      O90385   5.255   6.681   8.468
30048WAT     H190386   5.294   6.607   8.521
30048WAT     H290387   5.157   6.666   8.456
30049WAT      O90388   9.649   8.676   7.329
30049WAT     H190389   9.552   8.660   7.311
30049WAT     H290390   9.671   8.772   7.311
30050WAT      O90391   7.629   6.895   8.182
30050WAT     H190392   7.723   6.924   8.167
30050WAT     H290393   7.585   6.954   8.249
30051WAT      O90394   6.546   1.554   5.785
30051WAT     H190395   6.463   1.504   5.812
30051WAT     H290396   6.555   1.552   5.685
30052WAT      O90397   3.035   9.729   4.580
30052WAT     H190398   3.094   9.678   4.517
30052WAT     H290399   2.976   9.665   4.628
30053WAT      O90400   0.875   4.189   7.318
30053WAT     H190401   0.846   4.095   7.335
30053WAT     H290402   0.952   4.211   7.378
30054WAT      O90403   4.826   1.680   3.956
30054WAT     H190404   4.922   1.707   3.949
30054WAT     H290405   4.772   1.756   3.992
30055WAT      O90406   7.850   5.355   4.628
30055WAT     H190407   7.761   5.343   4.584
30055WAT     H290408   7.857   5.448   4.665
30056WAT      O90409   1.378   1.019   9.806
30056WAT     H190410   1.414   1.035   9.898
30056WAT     H290411   1.283   0.990   9.812
30057WAT      O90412   1.861   4.548   9.679
30057WAT     H190413   1.810   4.581   9.599
30057WAT     H290414   1.950   4.514   9.650
30058WAT      O90415   2.545   5.508   7.957
30058WAT     H190416   2.577   5.510   7.862
30058WAT     H290417   2.486   5.428   7.969
30059WAT      O90418   3.266   4.590   8.456
30059WAT     H190419   3.347   4.536   8.434
30059WAT     H290420   3.293   4.676   8.499
30060WAT      O90421   1.708   4.644   9.490
30060WAT     H190422   1.625   4.649   9.544
30060WAT     H290423   1.685   4.617   9.396
30061WAT      O90424   5.767   4.184   0.995
30061WAT     H190425   5.761   4.100   1.049
30061WAT     H290426   5.819   4.167   0.911
30062WAT      O90427   1.481   8.854   0.349
30062WAT     H190428   1.502   8.898   0.436
30062WAT     H290429   1.387   8.877   0.323
30063WAT      O90430   2.988   8.944   7.933
30063WAT     H190431   3.024   9.037   7.941
30063WAT     H290432   2.938   8.934   7.848
30064WAT      O90433   6.012   6.284   3.692
30064WAT     H190434   6.010   6.267   3.593
30064WAT     H290435   6.077   6.222   3.735
30065WAT      O90436   2.433   1.976   6.140
30065WAT     H190437   2.347   1.968   6.190
30065WAT     H290438   2.417   1.957   6.043
30066WAT      O90439   9.432   5.852   6.315
30066WAT     H190440   9.420   5.827   6.411
30066WAT     H290441   9.393   5.781   6.256
30067WAT      O90442   5.416   8.939   8.976
30067WAT     H190443   5.350   8.931   9.051
30067WAT     H290444   5.473   8.857   8.974
30068WAT      O90445   8.079   6.055   8.529
30068WAT     H190446   7.983   6.075   8.510
30068WAT     H290447   8.096   5.957   8.514
30069WAT      O90448   5.464   3.267   6.759
30069WAT     H190449   5.552   3.230   6.729
30069WAT     H290450   5.477   3.357   6.801
30070WAT      O90451   4.678   9.465   0.317
30070WAT     H190452   4.683   9.565   0.313
30070WAT     H290453   4.661   9.436   0.411
30071WAT      O90454   8.671   6.181   3.123
30071WAT     H190455   8.673   6.101   3.184
30071WAT     H290456   8.587   6.232   3.136
30072WAT      O90457   1.462   3.635   9.224
30072WAT     H190458   1.448   3.628   9.323
30072WAT     H290459   1.449   3.730   9.196
30073WAT      O90460   4.945   5.227   5.906
30073WAT     H190461   4.873   5.165   5.876
30073WAT     H290462   4.943   5.310   5.850
30074WAT      O90463   7.962   0.248   0.585
30074WAT     H190464   7.877   0.295   0.562
30074WAT     H290465   8.040   0.300   0.550
30075WAT      O90466   3.855   2.964   2.839
30075WAT     H190467   3.877   2.905   2.916
30075WAT     H290468   3.845   2.909   2.756
30076WAT      O90469   0.010   2.566   6.872
30076WAT     H190470  -0.027   2.653   6.839
30076WAT     H290471  -0.066   2.503   6.889
30077WAT      O90472   0.595   1.971   0.364
30077WAT     H190473   0.551   1.926   0.442
30077WAT     H290474   0.623   2.063   0.390
30078WAT      O90475   4.096   0.329   7.063
30078WAT     H190476   4.062   0.239   7.090
30078WAT     H290477   4.184   0.345   7.108
30079WAT      O90478   3.239   9.279   6.905
30079WAT     H190479   3.279   9.267   6.996
30079WAT     H290480   3.146   9.240   6.905
30080WAT      O90481   0.460   2.430   0.136
30080WAT     H190482   0.419   2.503   0.082
30080WAT     H290483   0.558   2.447   0.147
30081WAT      O90484   5.323   4.988   8.806
30081WAT     H190485   5.263   4.909   8.818
30081WAT     H290486   5.353   4.993   8.710
30082WAT      O90487   9.734   8.260   4.532
30082WAT     H190488   9.639   8.291   4.532
30082WAT     H290489   9.794   8.335   4.504
30083WAT      O90490   0.543   2.643   8.627
30083WAT     H190491   0.602   2.720   8.600
30083WAT     H290492   0.454   2.678   8.655
30084WAT      O90493   4.851   3.407   5.554
30084WAT     H190494   4.908   3.441   5.479
30084WAT     H290495   4.908   3.384   5.632
30085WAT      O90496   0.063   2.841   6.171
30085WAT     H190497  -0.034   2.861   6.154
30085WAT     H290498   0.082   2.853   6.269
30086WAT      O90499   0.021   7.326   0.825
30086WAT     H190500  -0.061   7.361   0.779
30086WAT     H290501   0.019   7.353   0.922
30087WAT      O90502   4.307   6.181   2.750
30087WAT     H190503   4.334   6.271   2.717
30087WAT     H290504   4.283   6.123   2.672
30088WAT      O90505   2.733   0.298   3.679
30088WAT     H190506   2.710   0.336   3.768
30088WAT     H290507   2.651   0.263   3.635
30089WAT      O90508   1.130   4.155   6.161
30089WAT     H190509   1.038   4.116   6.167
30089WAT     H290510   1.161   4.154   6.066
30090WAT      O90511   0.770   1.521   2.965
30090WAT     H190512   0.714   1.525   3.048
30090WAT     H290513   0.718   1.556   2.887
30091WAT      O90514   1.151   3.648   6.619
30091WAT     H190515   1.195   3.560   6.631
30091WAT     H290516   1.183   3.712   6.689
30092WAT      O90517   8.506   7.526   4.727
30092WAT     H190518   8.574   7.505   4.797
30092WAT     H290519   8.552   7.552   4.642
30093WAT      O90520   3.302   6.639   5.776
30093WAT     H190521   3.399   6.659   5.764
30093WAT     H290522   3.253   6.657   5.690
30094WAT      O90523   1.565   9.709   7.641
30094WAT     H190524   1.603   9.748   7.557
30094WAT     H290525   1.629   9.723   7.716
30095WAT      O90526   7.759   9.752   8.983
30095WAT     H190527   7.756   9.781   9.078
30095WAT     H290528   7.854   9.752   8.951
30096WAT      O90529   4.950   3.421   3.720
30096WAT     H190530   4.978   3.434   3.625
30096WAT     H290531   5.015   3.465   3.782
30097WAT      O90532   4.052   3.845   7.795
30097WAT     H190533   4.103   3.760   7.808
30097WAT     H290534   4.050   3.867   7.698
30098WAT      O90535   2.352   0.511   3.162
30098WAT     H190536   2.439   0.562   3.161
30098WAT     H290537   2.311   0.517   3.253
30099WAT      O90538   6.644   2.591   0.352
30099WAT     H190539   6.740   2.614   0.362
30099WAT     H290540   6.592   2.675   0.332
30100WAT      O90541   8.606   7.725   5.500
30100WAT     H190542   8.704   7.740   5.497
30100WAT     H290543   8.581   7.654   5.433
30101WAT      O90544   5.951   8.274   2.446
30101WAT     H190545   6.018   8.277   2.372
30101WAT     H290546   5.956   8.358   2.500
30102WAT      O90547   9.737   7.295   7.474
30102WAT     H190548   9.772   7.319   7.383
30102WAT     H290549   9.651   7.343   7.490
30103WAT      O90550   2.823   0.619   2.727
30103WAT     H190551   2.896   0.555   2.704
30103WAT     H290552   2.734   0.574   2.716
30104WAT      O90553   4.329   4.442   4.612
30104WAT     H190554   4.309   4.472   4.706
30104WAT     H290555   4.416   4.393   4.612
30105WAT      O90556   1.407   0.194   5.594
30105WAT     H190557   1.350   0.143   5.658
30105WAT     H290558   1.504   0.174   5.612
30106WAT      O90559   6.850   8.066   0.583
30106WAT     H190560   6.813   8.158   0.575
30106WAT     H290561   6.904   8.058   0.667
30107WAT      O90562   7.502   3.342   6.861
30107WAT     H190563   7.526   3.403   6.785
30107WAT     H290564   7.580   3.332   6.922
30108WAT      O90565   3.494   4.703   9.460
30108WAT     H190566   3.588   4.720   9.488
30108WAT     H290567   3.442   4.666   9.538
30109WAT      O90568   9.862   9.582   9.750
30109WAT     H190569   9.920   9.663   9.757
30109WAT     H290570   9.771   9.603   9.786
30110WAT      O90571   9.559   2.443   0.527
30110WAT     H190572   9.496   2.438   0.603
30110WAT     H290573   9.509   2.463   0.442
30111WAT      O90574   6.515   4.373   9.777
30111WAT     H190575   6.496   4.354   9.873
30111WAT     H290576   6.431   4.362   9.724
30112WAT      O90577   9.673   4.727   3.864
30112WAT     H190578   9.738   4.798   3.893
30112WAT     H290579   9.666   4.658   3.937
30113WAT      O90580   0.610   8.743   7.739
30113WAT     H190581   0.576   8.760   7.646
30113WAT     H290582   0.612   8.645   7.757
30114WAT      O90583   5.765   1.947   2.417
30114WAT     H190584   5.744   1.855   2.451
30114WAT     H290585   5.834   1.989   2.476
30115WAT      O90586   7.330   9.807   0.859
30115WAT     H190587   7.291   9.715   0.857
30115WAT     H290588   7.274   9.869   0.804
30116WAT      O90589   7.179   9.452   9.728
30116WAT     H190590   7.152   9.472   9.633
30116WAT     H290591   7.260   9.395   9.728
30117WAT      O90592   8.949   3.391   2.969
30117WAT     H190593   8.975   3.474   3.019
30117WAT     H290594   8.858   3.403   2.930
30118WAT      O90595   5.929   6.382   1.004
30118WAT     H190596   5.971   6.320   0.938
30118WAT     H290597   5.882   6.329   1.075
30119WAT      O90598   4.755   0.198   5.323
30119WAT     H190599   4.685   0.195   5.252
30119WAT     H290600   4.845   0.179   5.283
30120WAT      O90601   3.559   3.209   7.946
30120WAT     H190602   3.479   3.226   8.003
30120WAT     H290603   3.601   3.297   7.921
30121WAT      O90604   1.172   4.863   9.251
30121WAT     H190605   1.194   4.958   9.273
30121WAT     H290606   1.076   4.845   9.272
30122WAT      O90607   6.814   7.081   0.599
30122WAT     H190608   6.734   7.091   0.658
30122WAT     H290609   6.897   7.099   0.651
30123WAT      O90610   1.298   7.124   2.655
30123WAT     H190611   1.232   7.050   2.660
30123WAT     H290612   1.282   7.189   2.730
30124WAT      O90613   0.445   7.892   4.512
30124WAT     H190614   0.460   7.936   4.423
30124WAT     H290615   0.369   7.828   4.505
30125WAT      O90616   6.559   5.087   8.675
30125WAT     H190617   6.635   5.068   8.738
30125WAT     H290618   6.563   5.022   8.599
30126WAT      O90619   1.717   0.887   3.078
30126WAT     H190620   1.735   0.849   3.169
30126WAT     H290621   1.770   0.971   3.066
30127WAT      O90622   7.085   6.281   5.406
30127WAT     H190623   7.096   6.302   5.503
30127WAT     H290624   7.037   6.195   5.396
30128WAT      O90625   6.210   5.600   8.938
30128WAT     H190626   6.184   5.628   9.030
30128WAT     H290627   6.299   5.640   8.916
30129WAT      O90628   0.259   2.186   6.667
30129WAT     H190629   0.270   2.283   6.690
30129WAT     H290630   0.309   2.165   6.583
30130WAT      O90631   9.438   5.652   8.784
30130WAT     H190632   9.506   5.579   8.794
30130WAT     H290633   9.379   5.633   8.706
30131WAT      O90634   8.057   3.121   3.036
30131WAT     H190635   8.083   3.118   2.939
30131WAT     H290636   7.976   3.179   3.046
30132WAT      O90637   9.375   1.642   8.965
30132WAT     H190638   9.467   1.631   9.002
30132WAT     H290639   9.314   1.575   9.007
30133WAT      O90640   8.652   2.702   6.876
30133WAT     H190641   8.628   2.607   6.859
30133WAT     H290642   8.694   2.710   6.966
30134WAT      O90643   3.588   3.499   7.738
30134WAT     H190644   3.526   3.424   7.716
30134WAT     H290645   3.619   3.542   7.653
30135WAT      O90646   7.555   4.738   8.623
30135WAT     H190647   7.530   4.794   8.544
30135WAT     H290648   7.504   4.770   8.703
30136WAT      O90649   5.908   1.581   9.544
30136WAT     H190650   5.868   1.650   9.605
30136WAT     H290651   5.840   1.551   9.478
30137WAT      O90652   4.715   6.151   4.866
30137WAT     H190653   4.754   6.159   4.958
30137WAT     H290654   4.685   6.056   4.852
30138WAT      O90655   0.753   9.482   8.080
30138WAT     H190656   0.780   9.427   8.000
30138WAT     H290657   0.802   9.449   8.161
30139WAT      O90658   1.282   8.533   0.011
30139WAT     H190659   1.356   8.526   0.078
30139WAT     H290660   1.206   8.474   0.039
30140WAT      O90661   1.408   5.930   5.375
30140WAT     H190662   1.357   5.845   5.385
30140WAT     H290663   1.388   5.970   5.285
30141WAT      O90664   8.530   5.975   8.510
30141WAT     H190665   8.511   6.011   8.601
30141WAT     H290666   8.616   5.925   8.511
30142WAT      O90667   0.368   6.534   5.211
30142WAT     H190668   0.395   6.490   5.125
30142WAT     H290669   0.385   6.632   5.205
30143WAT      O90670   9.196   8.054   5.675
30143WAT     H190671   9.121   8.120   5.679
30143WAT     H290672   9.243   8.051   5.764
30144WAT      O90673   9.314   9.044   3.648
30144WAT     H190674   9.302   8.950   3.615
30144WAT     H290675   9.262   9.057   3.733
30145WAT      O90676   2.058   6.618   3.216
30145WAT     H190677   2.044   6.532   3.167
30145WAT     H290678   2.125   6.605   3.289
30146WAT      O90679   4.247   4.885   2.348
30146WAT     H190680   4.148   4.871   2.337
30146WAT     H290681   4.264   4.969   2.398
30147WAT      O90682   4.762   0.483   3.648
30147WAT     H190683   4.663   0.486   3.655
30147WAT     H290684   4.791   0.529   3.564
30148WAT      O90685   6.917   6.306   3.273
30148WAT     H190686   6.949   6.217   3.306
30148WAT     H290687   6.978   6.338   3.200
30149WAT      O90688   2.779   2.734   9.393
30149WAT     H190689   2.728   2.712   9.476
30149WAT     H290690   2.873   2.758   9.416
30150WAT      O90691   6.477   1.093   4.312
30150WAT     H190692   6.478   1.185   4.351
30150WAT     H290693   6.404   1.040   4.355
30151WAT      O90694   7.432   3.659   4.232
30151WAT     H190695   7.443   3.741   4.176
30151WAT     H290696   7.338   3.625   4.225
30152WAT      O90697   3.308   8.547   0.707
30152WAT     H190698   3.269   8.588   0.624
30152WAT     H290699   3.335   8.453   0.687
30153WAT      O90700   9.814   9.628   8.345
30153WAT     H190701   9.779   9.674   8.263
30153WAT     H290702   9.888   9.566   8.319
30154WAT      O90703   4.419   0.281   8.008
30154WAT     H190704   4.371   0.334   8.078
30154WAT     H290705   4.457   0.198   8.049
30155WAT      O90706   6.837   8.457   0.719
30155WAT     H190707   6.845   8.549   0.679
30155WAT     H290708   6.828   8.390   0.646
30156WAT      O90709   9.349   7.941   5.912
30156WAT     H190710   9.271   7.966   5.970
30156WAT     H290711   9.334   7.851   5.873
30157WAT      O90712   3.223   7.426   1.921
30157WAT     H190713   3.148   7.361   1.933
30157WAT     H290714   3.226   7.489   1.998
30158WAT      O90715   6.002   5.311   2.087
30158WAT     H190716   5.944   5.233   2.108
30158WAT     H290717   5.995   5.333   1.990
30159WAT      O90718   3.492   9.719   0.616
30159WAT     H190719   3.509   9.663   0.534
30159WAT     H290720   3.417   9.782   0.597
30160WAT      O90721   6.835   0.885   1.429
30160WAT     H190722   6.884   0.808   1.388
30160WAT     H290723   6.900   0.958   1.452
30161WAT      O90724   0.267   2.174   8.010
30161WAT     H190725   0.319   2.162   8.095
30161WAT     H290726   0.325   2.154   7.932
30162WAT      O90727   6.567   8.880   5.931
30162WAT     H190728   6.643   8.865   5.868
30162WAT     H290729   6.590   8.841   6.021
30163WAT      O90730   2.426   7.542   7.163
30163WAT     H190731   2.414   7.594   7.247
30163WAT     H290732   2.499   7.583   7.108
30164WAT      O90733   7.378   4.393   0.720
30164WAT     H190734   7.334   4.342   0.646
30164WAT     H290735   7.345   4.488   0.719
30165WAT      O90736   8.781   9.810   7.611
30165WAT     H190737   8.855   9.832   7.547
30165WAT     H290738   8.814   9.818   7.705
30166WAT      O90739   8.929   5.954   6.351
30166WAT     H190740   8.838   5.983   6.321
30166WAT     H290741   8.922   5.864   6.395
30167WAT      O90742   6.292   5.368   1.996
30167WAT     H190743   6.307   5.465   1.977
30167WAT     H290744   6.206   5.358   2.046
30168WAT      O90745   1.890   5.708   6.625
30168WAT     H190746   1.928   5.774   6.691
30168WAT     H290747   1.919   5.734   6.533
30169WAT      O90748   8.891   0.763   6.637
30169WAT     H190749   8.922   0.817   6.715
30169WAT     H290750   8.811   0.709   6.663
30170WAT      O90751   5.878   9.815   3.204
30170WAT     H190752   5.971   9.791   3.178
30170WAT     H290753   5.819   9.735   3.197
30171WAT      O90754   9.615   4.902   4.924
30171WAT     H190755   9.558   4.830   4.884
30171WAT     H290756   9.667   4.947   4.852
30172WAT      O90757   5.176   0.843   1.778
30172WAT     H190758   5.169   0.763   1.718
30172WAT     H290759   5.127   0.920   1.737
30173WAT      O90760   9.857   5.271   3.064
30173WAT     H190761   9.838   5.361   3.103
30173WAT     H290762   9.954   5.265   3.039
30174WAT      O90763   0.265   2.436   7.899
30174WAT     H190764   0.252   2.342   7.929
30174WAT     H290765   0.179   2.487   7.912
30175WAT      O90766   1.949   0.983   2.791
30175WAT     H190767   1.958   0.966   2.889
30175WAT     H290768   1.909   0.903   2.747
30176WAT      O90769   2.988   0.218   5.544
30176WAT     H190770   3.054   0.231   5.618
30176WAT     H290771   3.034   0.174   5.467
30177WAT      O90772   8.079   3.593   8.256
30177WAT     H190773   7.994   3.547   8.279
30177WAT     H290774   8.060   3.686   8.223
30178WAT      O90775   6.527   2.910   1.869
30178WAT     H190776   6.505   2.898   1.772
30178WAT     H290777   6.616   2.871   1.888
30179WAT      O90778   1.999   7.733   7.379
30179WAT     H190779   1.973   7.827   7.403
30179WAT     H290780   2.033   7.686   7.461
30180WAT      O90781   8.049   3.675   3.184
30180WAT     H190782   8.022   3.671   3.087
30180WAT     H290783   7.977   3.635   3.240
30181WAT      O90784   4.318   1.474   5.671
30181WAT     H190785   4.389   1.409   5.643
30181WAT     H290786   4.247   1.425   5.722
30182WAT      O90787   2.588   3.660   5.259
30182WAT     H190788   2.624   3.623   5.173
30182WAT     H290789   2.488   3.665   5.253
30183WAT      O90790   3.566   7.025   1.063
30183WAT     H190791   3.516   7.089   1.122
30183WAT     H290792   3.593   7.072   0.979
30184WAT      O90793   9.334   1.445   1.045
30184WAT     H190794   9.363   1.378   0.977
30184WAT     H290795   9.345   1.407   1.137
30185WAT      O90796   1.542   5.363   0.827
30185WAT     H190797   1.569   5.386   0.734
30185WAT     H290798   1.465   5.299   0.825
30186WAT      O90799   2.859   5.600   8.485
30186WAT     H190800   2.925   5.580   8.412
30186WAT     H290801   2.868   5.695   8.513
30187WAT      O90802   1.548   2.993   2.647
30187WAT     H190803   1.634   2.951   2.617
30187WAT     H290804   1.538   2.980   2.746
30188WAT      O90805   2.392   4.533   1.094
30188WAT     H190806   2.464   4.571   1.036
30188WAT     H290807   2.316   4.501   1.036
30189WAT      O90808   6.159   8.323   1.153
30189WAT     H190809   6.161   8.228   1.122
30189WAT     H290810   6.172   8.384   1.075
30190WAT      O90811   3.737   6.510   9.822
30190WAT     H190812   3.764   6.558   9.905
30190WAT     H290813   3.638   6.512   9.812
30191WAT      O90814   1.235   4.781   1.333
30191WAT     H190815   1.190   4.769   1.421
30191WAT     H290816   1.301   4.707   1.319
30192WAT      O90817   4.052   0.368   6.122
30192WAT     H190818   3.999   0.447   6.152
30192WAT     H290819   4.008   0.284   6.154
30193WAT      O90820   4.811   7.994   0.705
30193WAT     H190821   4.791   8.018   0.610
30193WAT     H290822   4.759   8.055   0.766
30194WAT      O90823   2.794   1.053   8.748
30194WAT     H190824   2.740   1.097   8.676
30194WAT     H290825   2.739   1.046   8.831
30195WAT      O90826   5.877   3.190   2.553
30195WAT     H190827   5.912   3.273   2.509
30195WAT     H290828   5.783   3.174   2.524
30196WAT      O90829   6.825   3.177   1.283
30196WAT     H190830   6.796   3.120   1.206
30196WAT     H290831   6.747   3.230   1.316
30197WAT      O90832   5.125   2.290   6.236
30197WAT     H190833   5.062   2.342   6.177
30197WAT     H290834   5.081   2.205   6.264
30198WAT      O90835   3.592   1.340   7.837
30198WAT     H190836   3.523   1.388   7.893
30198WAT     H290837   3.608   1.249   7.875
30199WAT      O90838   0.849   9.392   9.671
30199WAT     H190839   0.838   9.341   9.586
30199WAT     H290840   0.938   9.371   9.711
30200WAT      O90841   5.977   8.184   8.678
30200WAT     H190842   5.882   8.154   8.687
30200WAT     H290843   6.038   8.112   8.711
30201WAT      O90844   8.405   1.192   7.626
30201WAT     H190845   8.397   1.250   7.707
30201WAT     H290846   8.445   1.104   7.652
30202WAT      O90847   3.089   6.366   3.580
30202WAT     H190848   3.074   6.410   3.491
30202WAT     H290849   3.168   6.408   3.625
30203WAT      O90850   0.009   6.459   1.740
30203WAT     H190851   0.080   6.514   1.697
30203WAT     H290852  -0.028   6.509   1.818
30204WAT      O90853   3.629   9.809   1.953
30204WAT     H190854   3.645   9.714   1.923
30204WAT     H290855   3.717   9.853   1.970
30205WAT      O90856   8.630   5.731   4.705
30205WAT     H190857   8.594   5.726   4.612
30205WAT     H290858   8.570   5.681   4.767
30206WAT      O90859   4.158   8.494   1.583
30206WAT     H190860   4.164   8.496   1.683
30206WAT     H290861   4.154   8.587   1.548
30207WAT      O90862   2.326   0.423   9.787
30207WAT     H190863   2.367   0.364   9.718
30207WAT     H290864   2.238   0.456   9.754
30208WAT      O90865   5.949   2.614   0.766
30208WAT     H190866   5.877   2.562   0.721
30208WAT     H290867   5.908   2.687   0.821
30209WAT      O90868   8.690   6.909   4.452
30209WAT     H190869   8.669   6.856   4.534
30209WAT     H290870   8.770   6.967   4.469
30210WAT      O90871   7.989   8.067   8.476
30210WAT     H190872   8.079   8.062   8.434
30210WAT     H290873   7.923   8.103   8.411
30211WAT      O90874   1.699   7.656   5.773
30211WAT     H190875   1.740   7.668   5.682
30211WAT     H290876   1.732   7.728   5.834
30212WAT      O90877   4.822   9.098   2.975
30212WAT     H190878   4.812   9.005   2.942
30212WAT     H290879   4.895   9.102   3.043
30213WAT      O90880   9.262   1.635   3.096
30213WAT     H190881   9.291   1.590   3.181
30213WAT     H290882   9.340   1.643   3.034
30214WAT      O90883   5.746   5.630   6.394
30214WAT     H190884   5.692   5.680   6.326
30214WAT     H290885   5.716   5.657   6.486
30215WAT      O90886   2.972   1.951   4.002
30215WAT     H190887   2.975   2.024   3.934
30215WAT     H290888   2.883   1.905   3.997
30216WAT      O90889   0.752   4.322   6.135
30216WAT     H190890   0.781   4.236   6.093
30216WAT     H290891   0.700   4.376   6.068
30217WAT      O90892   9.443   7.442   0.395
30217WAT     H190893   9.538   7.415   0.377
30217WAT     H290894   9.409   7.391   0.474
30218WAT      O90895   1.474   9.165   1.602
30218WAT     H190896   1.471   9.229   1.526
30218WAT     H290897   1.396   9.180   1.662
30219WAT      O90898   7.638   2.731   5.763
30219WAT     H190899   7.716   2.683   5.722
30219WAT     H290900   7.667   2.824   5.789
30220WAT      O90901   5.385   8.530   2.631
30220WAT     H190902   5.402   8.619   2.588
30220WAT     H290903   5.385   8.541   2.730
30221WAT      O90904   2.990   4.580   3.875
30221WAT     H190905   2.904   4.619   3.908
30221WAT     H290906   3.066   4.619   3.926
30222WAT      O90907   2.647   1.758   2.075
30222WAT     H190908   2.601   1.770   1.988
30222WAT     H290909   2.741   1.727   2.059
30223WAT      O90910   1.308   2.830   0.948
30223WAT     H190911   1.274   2.911   0.996
30223WAT     H290912   1.361   2.859   0.868
30224WAT      O90913   0.032   1.265   6.712
30224WAT     H190914  -0.024   1.197   6.665
30224WAT     H290915   0.083   1.221   6.786
30225WAT      O90916   5.450   9.819   9.463
30225WAT     H190917   5.488   9.736   9.505
30225WAT     H290918   5.381   9.792   9.396
30226WAT      O90919   9.735   3.964   7.260
30226WAT     H190920   9.641   3.963   7.293
30226WAT     H290921   9.782   3.880   7.289
30227WAT      O90922   7.343   8.243   1.747
30227WAT     H190923   7.405   8.201   1.813
30227WAT     H290924   7.378   8.333   1.721
30228WAT      O90925   2.171   3.671   6.974
30228WAT     H190926   2.235   3.717   6.914
30228WAT     H290927   2.089   3.645   6.923
30229WAT      O90928   3.587   6.466   2.396
30229WAT     H190929   3.667   6.511   2.436
30229WAT     H290930   3.527   6.535   2.357
30230WAT      O90931   7.999   2.496   6.424
30230WAT     H190932   7.933   2.442   6.372
30230WAT     H290933   8.035   2.570   6.367
30231WAT      O90934   2.258   7.240   9.400
30231WAT     H190935   2.356   7.245   9.420
30231WAT     H290936   2.244   7.196   9.312
30232WAT      O90937   3.584   4.605   1.822
30232WAT     H190938   3.579   4.705   1.817
30232WAT     H290939   3.632   4.570   1.742
30233WAT      O90940   4.412   6.757   2.190
30233WAT     H190941   4.475   6.680   2.190
30233WAT     H290942   4.456   6.837   2.148
30234WAT      O90943   0.382   5.817   6.897
30234WAT     H190944   0.476   5.842   6.921
30234WAT     H290945   0.329   5.900   6.878
30235WAT      O90946   7.481   7.110   4.153
30235WAT     H190947   7.385   7.080   4.156
30235WAT     H290948   7.505   7.135   4.059
30236WAT      O90949   4.604   1.707   6.331
30236WAT     H190950   4.504   1.700   6.335
30236WAT     H290951   4.644   1.616   6.345
30237WAT      O90952   0.899   2.509   0.899
30237WAT     H190953   0.900   2.591   0.956
30237WAT     H290954   0.810   2.465   0.905
30238WAT      O90955   5.384   8.905   0.283
30238WAT     H190956   5.438   8.988   0.271
30238WAT     H290957   5.431   8.828   0.241
30239WAT      O90958   7.360   3.166   9.800
30239WAT     H190959   7.362   3.116   9.713
30239WAT     H290960   7.400   3.109   9.872
30240WAT      O90961   5.497   9.656   9.824
30240WAT     H190962   5.461   9.631   9.734
30240WAT     H290963   5.596   9.670   9.818
30241WAT      O90964   8.841   0.931   0.059
30241WAT     H190965   8.880   1.002   0.118
30241WAT     H290966   8.852   0.842   0.103
30242WAT      O90967   5.878   8.675   6.862
30242WAT     H190968   5.884   8.771   6.890
30242WAT     H290969   5.801   8.663   6.799
30243WAT      O90970   7.399   2.461   0.396
30243WAT     H190971   7.384   2.437   0.491
30243WAT     H290972   7.495   2.485   0.382
30244WAT      O90973   6.564   5.646   7.676
30244WAT     H190974   6.616   5.561   7.678
30244WAT     H290975   6.472   5.628   7.640
30245WAT      O90976   9.634   2.104   4.711
30245WAT     H190977   9.660   2.065   4.622
30245WAT     H290978   9.555   2.054   4.747
30246WAT      O90979   4.157   7.074   6.264
30246WAT     H190980   4.249   7.044   6.288
30246WAT     H290981   4.123   7.137   6.334
30247WAT      O90982   4.947   0.095   2.583
30247WAT     H190983   4.936   0.193   2.596
30247WAT     H290984   4.864   0.047   2.612
30248WAT      O90985   5.760   1.400   5.687
30248WAT     H190986   5.816   1.475   5.722
30248WAT     H290987   5.807   1.356   5.610
30249WAT      O90988   0.561   9.744   6.424
30249WAT     H190989   0.634   9.681   6.451
30249WAT     H290990   0.567   9.828   6.479
30250WAT      O90991   7.155   2.676   6.319
30250WAT     H190992   7.220   2.618   6.368
30250WAT     H290993   7.092   2.619   6.267
30251WAT      O90994   5.491   9.196   5.639
30251WAT     H190995   5.551   9.147   5.575
30251WAT     H290996   5.531   9.191   5.731
30252WAT      O90997   6.050   5.257   2.983
30252WAT     H190998   5.990   5.217   3.053
30252WAT     H290999   6.063   5.354   3.003
30253WAT      O91000   3.179   2.899   6.107
30253WAT     H191001   3.246   2.868   6.039
30253WAT     H291002   3.195   2.850   6.193
30254WAT      O91003   8.952   9.778   1.677
30254WAT     H191004   8.889   9.707   1.645
30254WAT     H291005   9.046   9.749   1.659
30255WAT      O91006   8.700   4.984   3.673
30255WAT     H191007   8.630   5.009   3.740
30255WAT     H291008   8.656   4.951   3.590
30256WAT      O91009   1.467   8.186   6.979
30256WAT     H191010   1.558   8.224   6.964
30256WAT     H291011   1.398   8.258   6.967
30257WAT      O91012   7.644   4.361   1.434
30257WAT     H191013   7.712   4.362   1.508
30257WAT     H291014   7.608   4.269   1.423
30258WAT      O91015   9.340   1.333   3.756
30258WAT     H191016   9.346   1.402   3.829
30258WAT     H291017   9.432   1.297   3.737
30259WAT      O91018   4.089   5.461   7.210
30259WAT     H191019   4.103   5.483   7.306
30259WAT     H291020   4.147   5.383   7.185
30260WAT      O91021   1.894   4.789   8.384
30260WAT     H191022   1.886   4.691   8.366
30260WAT     H291023   1.990   4.816   8.382
30261WAT      O91024   6.224   5.840   3.553
30261WAT     H191025   6.261   5.922   3.509
30261WAT     H291026   6.297   5.793   3.603
30262WAT      O91027   4.867   9.503   0.663
30262WAT     H191028   4.908   9.495   0.572
30262WAT     H291029   4.901   9.430   0.722
30263WAT      O91030   7.113   0.975   9.164
30263WAT     H191031   7.086   0.883   9.192
30263WAT     H291032   7.079   0.992   9.071
30264WAT      O91033   2.607   6.914   4.485
30264WAT     H191034   2.549   6.985   4.524
30264WAT     H291035   2.658   6.950   4.408
30265WAT      O91036   3.552   5.802   0.368
30265WAT     H191037   3.497   5.790   0.285
30265WAT     H291038   3.631   5.860   0.347
30266WAT      O91039   5.723   1.962   3.912
30266WAT     H191040   5.764   1.992   3.826
30266WAT     H291041   5.758   2.017   3.988
30267WAT      O91042   4.273   1.079   1.067
30267WAT     H191043   4.305   1.054   0.975
30267WAT     H291044   4.227   1.167   1.063
30268WAT      O91045   4.992   8.450   6.763
30268WAT     H191046   5.087   8.480   6.764
30268WAT     H291047   4.953   8.462   6.854
30269WAT      O91048   4.697   6.917   2.396
30269WAT     H191049   4.730   6.883   2.484
30269WAT     H291050   4.662   7.010   2.406
30270WAT      O91051   4.013   2.081   7.707
30270WAT     H191052   4.064   2.157   7.667
30270WAT     H291053   3.955   2.039   7.637
30271WAT      O91054   5.933   4.610   8.774
30271WAT     H191055   5.962   4.705   8.785
30271WAT     H291056   5.971   4.574   8.689
30272WAT      O91057   7.408   5.291   2.726
30272WAT     H191058   7.356   5.370   2.695
30272WAT     H291059   7.463   5.256   2.649
30273WAT      O91060   3.563   1.711   5.501
30273WAT     H191061   3.610   1.702   5.413
30273WAT     H291062   3.547   1.620   5.539
30274WAT      O91063   0.533   9.356   0.191
30274WAT     H191064   0.582   9.360   0.104
30274WAT     H291065   0.434   9.362   0.173
30275WAT      O91066   8.672   4.047   6.431
30275WAT     H191067   8.759   4.068   6.476
30275WAT     H291068   8.687   3.982   6.357
30276WAT      O91069   4.504   0.539   1.843
30276WAT     H191070   4.576   0.605   1.864
30276WAT     H291071   4.465   0.560   1.753
30277WAT      O91072   2.210   5.786   8.822
30277WAT     H191073   2.242   5.839   8.901
30277WAT     H291074   2.283   5.781   8.754
30278WAT      O91075   0.741   2.047   8.293
30278WAT     H191076   0.666   2.072   8.354
30278WAT     H291077   0.775   1.956   8.317
30279WAT      O91078   5.544   0.977   0.792
30279WAT     H191079   5.502   0.915   0.859
30279WAT     H291080   5.585   1.054   0.839
30280WAT      O91081   1.847   6.576   8.423
30280WAT     H191082   1.904   6.658   8.429
30280WAT     H291083   1.808   6.569   8.332
30281WAT      O91084   9.459   6.108   3.750
30281WAT     H191085   9.505   6.020   3.739
30281WAT     H291086   9.361   6.096   3.731
30282WAT      O91087   5.795   5.130   1.437
30282WAT     H191088   5.783   5.165   1.530
30282WAT     H291089   5.854   5.050   1.440
30283WAT      O91090   7.782   7.059   8.447
30283WAT     H191091   7.825   6.999   8.514
30283WAT     H291092   7.693   7.020   8.420
30284WAT      O91093   0.377   0.641   9.685
30284WAT     H191094   0.430   0.563   9.651
30284WAT     H291095   0.303   0.608   9.744
30285WAT      O91096   3.587   2.071   9.434
30285WAT     H191097   3.515   2.106   9.374
30285WAT     H291098   3.553   1.993   9.487
30286WAT      O91099   1.277   4.165   5.494
30286WAT     H191100   1.217   4.144   5.417
30286WAT     H291101   1.255   4.105   5.571
30287WAT      O91102   1.907   6.415   4.944
30287WAT     H191103   1.941   6.322   4.932
30287WAT     H291104   1.812   6.420   4.913
30288WAT      O91105   9.550   5.355   4.208
30288WAT     H191106   9.641   5.395   4.194
30288WAT     H291107   9.529   5.351   4.305
30289WAT      O91108   0.848   2.227   4.491
30289WAT     H191109   0.763   2.277   4.511
30289WAT     H291110   0.834   2.171   4.410
30290WAT      O91111   1.472   4.405   5.914
30290WAT     H191112   1.505   4.313   5.891
30290WAT     H291113   1.458   4.412   6.012
30291WAT      O91114   7.592   5.889   0.160
30291WAT     H191115   7.499   5.859   0.138
30291WAT     H291116   7.594   5.927   0.252
30292WAT      O91117   1.973   6.675   6.284
30292WAT     H191118   1.917   6.592   6.276
30292WAT     H291119   1.955   6.735   6.206
30293WAT      O91120   0.070   4.495   8.561
30293WAT     H191121   0.045   4.508   8.465
30293WAT     H291122   0.019   4.558   8.619
30294WAT      O91123   9.162   2.960   5.979
30294WAT     H191124   9.230   2.889   5.963
30294WAT     H291125   9.071   2.927   5.954
30295WAT      O91126   2.807   7.180   2.649
30295WAT     H191127   2.833   7.247   2.579
30295WAT     H291128   2.729   7.126   2.616
30296WAT      O91129   0.790   0.442   3.443
30296WAT     H191130   0.711   0.435   3.504
30296WAT     H291131   0.759   0.438   3.348
30297WAT      O91132   1.810   9.612   2.605
30297WAT     H191133   1.726   9.650   2.645
30297WAT     H291134   1.877   9.684   2.593
30298WAT      O91135   0.119   9.042   2.010
30298WAT     H191136   0.052   8.980   2.051
30298WAT     H291137   0.164   8.995   1.934
30299WAT      O91138   8.039   0.420   5.250
30299WAT     H191139   8.117   0.375   5.207
30299WAT     H291140   8.017   0.374   5.336
30300WAT      O91141   3.985   1.001   4.035
30300WAT     H191142   3.933   0.964   4.112
30300WAT     H291143   4.082   1.001   4.057
30301WAT      O91144   1.087   0.841   2.949
30301WAT     H191145   1.080   0.923   3.005
30301WAT     H291146   1.134   0.863   2.863
30302WAT      O91147   6.362   7.851   9.001
30302WAT     H191148   6.420   7.829   9.079
30302WAT     H291149   6.295   7.920   9.028
30303WAT      O91150   6.448   0.032   9.687
30303WAT     H191151   6.365   0.019   9.740
30303WAT     H291152   6.527   0.001   9.740
30304WAT      O91153   3.076   6.834   1.806
30304WAT     H191154   3.058   6.894   1.728
30304WAT     H291155   3.040   6.742   1.786
30305WAT      O91156   4.636   4.795   9.559
30305WAT     H191157   4.617   4.728   9.632
30305WAT     H291158   4.566   4.787   9.488
30306WAT      O91159   8.720   6.074   2.837
30306WAT     H191160   8.685   6.118   2.920
30306WAT     H291161   8.792   6.010   2.861
30307WAT      O91162   1.305   2.518   4.218
30307WAT     H191163   1.241   2.488   4.148
30307WAT     H291164   1.341   2.438   4.266
30308WAT      O91165   4.189   3.901   3.704
30308WAT     H191166   4.232   3.833   3.763
30308WAT     H291167   4.173   3.861   3.614
30309WAT      O91168   4.576   1.177   5.029
30309WAT     H191169   4.659   1.152   5.079
30309WAT     H291170   4.573   1.276   5.017
30310WAT      O91171   5.065   9.275   1.053
30310WAT     H191172   5.087   9.189   1.098
30310WAT     H291173   5.033   9.257   0.960
30311WAT      O91174   5.996   0.904   8.870
30311WAT     H191175   6.068   0.913   8.939
30311WAT     H291176   6.010   0.974   8.799
30312WAT      O91177   7.494   4.188   0.236
30312WAT     H191178   7.452   4.175   0.147
30312WAT     H291179   7.422   4.199   0.305
30313WAT      O91180   2.027   3.157   8.436
30313WAT     H191181   2.114   3.111   8.421
30313WAT     H291182   1.958   3.119   8.374
30314WAT      O91183   3.603   8.188   5.294
30314WAT     H191184   3.639   8.104   5.335
30314WAT     H291185   3.675   8.231   5.238
30315WAT      O91186   5.294   7.314   5.644
30315WAT     H191187   5.344   7.363   5.715
30315WAT     H291188   5.196   7.326   5.658
30316WAT      O91189   6.119   7.073   1.999
30316WAT     H191190   6.111   7.161   1.953
30316WAT     H291191   6.198   7.023   1.963
30317WAT      O91192   0.646   4.878   1.580
30317WAT     H191193   0.650   4.920   1.671
30317WAT     H291194   0.662   4.948   1.511
30318WAT      O91195   7.980   9.614   2.533
30318WAT     H191196   7.925   9.614   2.617
30318WAT     H291197   8.073   9.642   2.556
30319WAT      O91198   2.197   6.279   7.884
30319WAT     H191199   2.236   6.227   7.808
30319WAT     H291200   2.263   6.282   7.960
30320WAT      O91201   4.819   3.569   5.968
30320WAT     H191202   4.781   3.511   5.896
30320WAT     H291203   4.897   3.524   6.010
30321WAT      O91204   0.481   5.691   5.594
30321WAT     H191205   0.449   5.659   5.504
30321WAT     H291206   0.492   5.790   5.592
30322WAT      O91207   7.297   1.386   8.429
30322WAT     H191208   7.224   1.344   8.483
30322WAT     H291209   7.373   1.410   8.489
30323WAT      O91210   5.969   5.208   9.879
30323WAT     H191211   5.900   5.180   9.945
30323WAT     H291212   6.004   5.127   9.831
30324WAT      O91213   4.653   1.902   8.204
30324WAT     H191214   4.734   1.924   8.259
30324WAT     H291215   4.658   1.950   8.116
30325WAT      O91216   6.201   8.333   4.310
30325WAT     H191217   6.195   8.417   4.257
30325WAT     H291218   6.185   8.254   4.251
30326WAT      O91219   5.818   6.703   9.520
30326WAT     H191220   5.864   6.622   9.486
30326WAT     H291221   5.824   6.776   9.452
30327WAT      O91222   5.696   9.193   3.040
30327WAT     H191223   5.793   9.183   3.017
30327WAT     H291224   5.658   9.272   2.991
30328WAT      O91225   4.270   3.073   2.134
30328WAT     H191226   4.326   3.002   2.091
30328WAT     H291227   4.230   3.036   2.219
30329WAT      O91228   3.861   8.941   3.630
30329WAT     H191229   3.876   8.845   3.654
30329WAT     H291230   3.935   8.997   3.668
30330WAT      O91231   9.247   7.615   2.930
30330WAT     H191232   9.289   7.537   2.883
30330WAT     H291233   9.278   7.618   3.024
30331WAT      O91234   0.774   2.725   2.184
30331WAT     H191235   0.772   2.803   2.247
30331WAT     H291236   0.831   2.653   2.223
30332WAT      O91237   3.055   6.961   6.702
30332WAT     H191238   3.140   6.953   6.753
30332WAT     H291239   2.986   7.005   6.760
30333WAT      O91240   6.159   5.037   0.596
30333WAT     H191241   6.238   5.078   0.552
30333WAT     H291242   6.092   5.108   0.619
30334WAT      O91243   8.439   5.419   3.647
30334WAT     H191244   8.486   5.346   3.598
30334WAT     H291245   8.500   5.499   3.653
30335WAT      O91246   7.316   0.106   5.130
30335WAT     H191247   7.293   0.081   5.223
30335WAT     H291248   7.240   0.156   5.089
30336WAT      O91249   6.938   7.069   7.659
30336WAT     H191250   6.891   6.987   7.629
30336WAT     H291251   6.949   7.066   7.759
30337WAT      O91252   6.402   7.337   4.035
30337WAT     H191253   6.461   7.356   4.114
30337WAT     H291254   6.340   7.414   4.020
30338WAT      O91255   6.876   2.038   7.949
30338WAT     H191256   6.782   2.069   7.941
30338WAT     H291257   6.931   2.108   7.995
30339WAT      O91258   0.341   0.000   8.733
30339WAT     H191259   0.340   0.061   8.653
30339WAT     H291260   0.404   0.037   8.801
30340WAT      O91261   2.479   3.932   5.906
30340WAT     H191262   2.484   4.032   5.900
30340WAT     H291263   2.461   3.905   6.000
30341WAT      O91264   0.897   2.814   9.386
30341WAT     H191265   0.895   2.901   9.338
30341WAT     H291266   0.922   2.829   9.482
30342WAT      O91267   5.693   6.612   0.524
30342WAT     H191268   5.640   6.697   0.518
30342WAT     H291269   5.774   6.627   0.580
30343WAT      O91270   1.241   1.092   6.663
30343WAT     H191271   1.279   1.008   6.623
30343WAT     H291272   1.314   1.157   6.682
30344WAT      O91273   1.339   7.471   2.283
30344WAT     H191274   1.403   7.526   2.230
30344WAT     H291275   1.261   7.445   2.226
30345WAT      O91276   6.001   9.757   8.740
30345WAT     H191277   5.921   9.813   8.760
30345WAT     H291278   6.003   9.735   8.642
30346WAT      O91279   4.283   9.000   1.279
30346WAT     H191280   4.347   9.059   1.230
30346WAT     H291281   4.189   9.026   1.255
30347WAT      O91282   4.750   8.309   5.094
30347WAT     H191283   4.754   8.261   5.007
30347WAT     H291284   4.840   8.306   5.139
30348WAT      O91285   3.842   1.643   5.728
30348WAT     H191286   3.779   1.670   5.655
30348WAT     H291287   3.905   1.719   5.747
30349WAT      O91288   2.658   6.374   0.206
30349WAT     H191289   2.609   6.302   0.158
30349WAT     H291290   2.598   6.416   0.274
30350WAT      O91291   5.259   6.660   7.502
30350WAT     H191292   5.180   6.722   7.500
30350WAT     H291293   5.235   6.575   7.547
30351WAT      O91294   7.546   9.365   0.425
30351WAT     H191295   7.638   9.335   0.454
30351WAT     H291296   7.547   9.388   0.328
30352WAT      O91297   3.698   0.187   0.238
30352WAT     H191298   3.676   0.090   0.246
30352WAT     H291299   3.653   0.238   0.311
30353WAT      O91300   8.071   7.894   8.177
30353WAT     H191301   8.097   7.805   8.140
30353WAT     H291302   7.981   7.919   8.142
30354WAT      O91303   5.519   2.722   8.219
30354WAT     H191304   5.453   2.647   8.223
30354WAT     H291305   5.533   2.748   8.123
30355WAT      O91306   4.484   2.800   0.358
30355WAT     H191307   4.404   2.740   0.365
30355WAT     H291308   4.499   2.847   0.445
30356WAT      O91309   3.094   0.571   5.022
30356WAT     H191310   3.053   0.487   4.986
30356WAT     H291311   3.030   0.617   5.082
30357WAT      O91312   7.967   8.495   8.957
30357WAT     H191313   7.901   8.504   8.882
30357WAT     H291314   8.046   8.554   8.939
30358WAT      O91315   0.151   8.699   7.911
30358WAT     H191316   0.124   8.702   8.008
30358WAT     H291317   0.191   8.610   7.891
30359WAT      O91318   7.113   5.414   0.663
30359WAT     H191319   7.131   5.484   0.594
30359WAT     H291320   7.014   5.409   0.681
30360WAT      O91321   3.828   1.657   6.244
30360WAT     H191322   3.785   1.723   6.182
30360WAT     H291323   3.817   1.688   6.339
30361WAT      O91324   8.793   2.314   5.954
30361WAT     H191325   8.805   2.413   5.959
30361WAT     H291326   8.876   2.268   5.988
30362WAT      O91327   6.102   2.077   0.018
30362WAT     H191328   6.194   2.038   0.017
30362WAT     H291329   6.047   2.031   0.088
30363WAT      O91330   6.335   9.063   1.263
30363WAT     H191331   6.327   9.101   1.171
30363WAT     H291332   6.246   9.029   1.293
30364WAT      O91333   8.718   2.029   5.103
30364WAT     H191334   8.631   2.003   5.145
30364WAT     H291335   8.782   1.953   5.109
30365WAT      O91336   8.003   0.510   9.481
30365WAT     H191337   8.023   0.421   9.521
30365WAT     H291338   8.055   0.521   9.396
30366WAT      O91339   0.027   2.047   6.483
30366WAT     H191340   0.027   2.146   6.498
30366WAT     H291341   0.050   2.027   6.388
30367WAT      O91342   6.349   5.786   3.302
30367WAT     H191343   6.290   5.862   3.275
30367WAT     H291344   6.412   5.817   3.374
30368WAT      O91345   6.471   2.466   2.830
30368WAT     H191346   6.498   2.495   2.738
30368WAT     H291347   6.373   2.476   2.841
30369WAT      O91348   5.142   6.291   3.308
30369WAT     H191349   5.082   6.315   3.232
30369WAT     H291350   5.109   6.206   3.351
30370WAT      O91351   8.228   0.168   3.698
30370WAT     H191352   8.214   0.089   3.640
30370WAT     H291353   8.277   0.239   3.648
30371WAT      O91354   1.004   1.433   7.594
30371WAT     H191355   0.907   1.407   7.593
30371WAT     H291356   1.011   1.533   7.600
30372WAT      O91357   8.922   1.143   9.454
30372WAT     H191358   8.910   1.077   9.528
30372WAT     H291359   8.880   1.107   9.370
30373WAT      O91360   7.720   9.352   1.130
30373WAT     H191361   7.677   9.442   1.121
30373WAT     H291362   7.802   9.360   1.187
30374WAT      O91363   3.042   3.986   3.327
30374WAT     H191364   2.975   4.060   3.321
30374WAT     H291365   3.111   3.997   3.256
30375WAT      O91366   0.323   7.961   1.291
30375WAT     H191367   0.237   7.992   1.331
30375WAT     H291368   0.304   7.920   1.201
30376WAT      O91369   8.138   3.826   7.886
30376WAT     H191370   8.197   3.808   7.807
30376WAT     H291371   8.191   3.874   7.956
30377WAT      O91372   5.883   7.499   5.781
30377WAT     H191373   5.959   7.445   5.819
30377WAT     H291374   5.797   7.469   5.823
30378WAT      O91375   6.705   4.870   0.354
30378WAT     H191376   6.758   4.955   0.362
30378WAT     H291377   6.751   4.797   0.404
30379WAT      O91378   6.409   0.271   7.728
30379WAT     H191379   6.316   0.256   7.695
30379WAT     H291380   6.407   0.334   7.806
30380WAT      O91381   8.230   0.468   4.156
30380WAT     H191382   8.206   0.533   4.229
30380WAT     H291383   8.180   0.492   4.073
30381WAT      O91384   1.215   8.129   0.130
30381WAT     H191385   1.307   8.143   0.167
30381WAT     H291386   1.178   8.217   0.099
30382WAT      O91387   2.277   5.875   4.926
30382WAT     H191388   2.193   5.824   4.939
30382WAT     H291389   2.329   5.875   5.011
30383WAT      O91390   6.891   1.908   0.097
30383WAT     H191391   6.901   2.004   0.070
30383WAT     H291392   6.961   1.885   0.165
30384WAT      O91393   2.487   7.065   4.145
30384WAT     H191394   2.477   6.982   4.091
30384WAT     H291395   2.483   7.145   4.086
30385WAT      O91396   2.376   2.763   6.056
30385WAT     H191397   2.300   2.826   6.076
30385WAT     H291398   2.409   2.723   6.141
30386WAT      O91399   5.986   0.735   7.566
30386WAT     H191400   6.030   0.800   7.504
30386WAT     H291401   6.036   0.734   7.653
30387WAT      O91402   3.332   8.976   4.020
30387WAT     H191403   3.399   9.050   4.010
30387WAT     H291404   3.379   8.888   4.026
30388WAT      O91405   6.313   4.362   1.249
30388WAT     H191406   6.235   4.396   1.197
30388WAT     H291407   6.281   4.331   1.339
30389WAT      O91408   1.040   0.379   5.617
30389WAT     H191409   0.986   0.457   5.584
30389WAT     H291410   1.060   0.319   5.540
30390WAT      O91411   7.718   0.538   7.644
30390WAT     H191412   7.638   0.566   7.697
30390WAT     H291413   7.700   0.554   7.547
30391WAT      O91414   0.965   5.871   1.411
30391WAT     H191415   1.039   5.936   1.432
30391WAT     H291416   0.998   5.778   1.425
30392WAT      O91417   0.816   5.983   4.540
30392WAT     H191418   0.785   6.049   4.609
30392WAT     H291419   0.913   5.962   4.554
30393WAT      O91420   4.362   9.217   1.753
30393WAT     H191421   4.357   9.208   1.654
30393WAT     H291422   4.276   9.187   1.794
30394WAT      O91423   5.611   7.563   0.611
30394WAT     H191424   5.628   7.579   0.514
30394WAT     H291425   5.698   7.552   0.660
30395WAT      O91426   1.032   9.702   5.611
30395WAT     H191427   0.969   9.758   5.666
30395WAT     H291428   1.113   9.680   5.665
30396WAT      O91429   2.532   0.303   8.256
30396WAT     H191430   2.482   0.267   8.177
30396WAT     H291431   2.586   0.230   8.297
30397WAT      O91432   7.349   9.477   5.263
30397WAT     H191433   7.367   9.498   5.167
30397WAT     H291434   7.275   9.410   5.269
30398WAT      O91435   7.910   7.758   3.700
30398WAT     H191436   7.987   7.734   3.761
30398WAT     H291437   7.920   7.710   3.613
30399WAT      O91438   8.185   8.960   6.049
30399WAT     H191439   8.090   8.957   6.078
30399WAT     H291440   8.244   8.955   6.130
30400WAT      O91441   8.440   3.089   0.642
30400WAT     H191442   8.470   3.115   0.734
30400WAT     H291443   8.365   3.023   0.650
30401WAT      O91444   3.802   1.322   7.365
30401WAT     H191445   3.812   1.367   7.454
30401WAT     H291446   3.729   1.255   7.370
30402WAT      O91447   3.541   3.944   4.820
30402WAT     H191448   3.491   3.976   4.901
30402WAT     H291449   3.475   3.916   4.750
30403WAT      O91450   6.503   8.775   8.379
30403WAT     H191451   6.542   8.778   8.471
30403WAT     H291452   6.572   8.744   8.314
30404WAT      O91453   6.635   8.291   0.230
30404WAT     H191454   6.576   8.212   0.247
30404WAT     H291455   6.580   8.366   0.193
30405WAT      O91456   9.792   2.461   1.426
30405WAT     H191457   9.816   2.551   1.464
30405WAT     H291458   9.874   2.419   1.387
30406WAT      O91459   0.950   7.977   6.878
30406WAT     H191460   0.941   7.957   6.780
30406WAT     H291461   1.033   8.032   6.893
30407WAT      O91462   4.203   9.134   4.157
30407WAT     H191463   4.226   9.184   4.074
30407WAT     H291464   4.268   9.058   4.169
30408WAT      O91465   6.577   5.046   1.343
30408WAT     H191466   6.632   5.081   1.419
30408WAT     H291467   6.536   4.959   1.369
30409WAT      O91468   7.537   2.773   9.161
30409WAT     H191469   7.579   2.827   9.089
30409WAT     H291470   7.457   2.726   9.125
30410WAT      O91471   9.174   6.802   8.259
30410WAT     H191472   9.193   6.723   8.201
30410WAT     H291473   9.111   6.864   8.211
30411WAT      O91474   8.980   8.109   1.196
30411WAT     H191475   8.915   8.145   1.264
30411WAT     H291476   9.067   8.090   1.240
30412WAT      O91477   7.475   1.445   3.450
30412WAT     H191478   7.456   1.507   3.374
30412WAT     H291479   7.470   1.351   3.419
30413WAT      O91480   8.230   5.330   4.755
30413WAT     H191481   8.163   5.304   4.686
30413WAT     H291482   8.195   5.305   4.846
30414WAT      O91483   9.236   5.307   3.920
30414WAT     H191484   9.242   5.386   3.981
30414WAT     H291485   9.255   5.223   3.971
30415WAT      O91486   7.598   4.433   3.085
30415WAT     H191487   7.634   4.343   3.060
30415WAT     H291488   7.657   4.473   3.156
30416WAT      O91489   7.669   7.143   2.197
30416WAT     H191490   7.597   7.189   2.250
30416WAT     H291491   7.628   7.070   2.143
30417WAT      O91492   0.497   7.543   4.022
30417WAT     H191493   0.476   7.447   4.004
30417WAT     H291494   0.593   7.560   4.002
30418WAT      O91495   7.108   1.267   2.045
30418WAT     H191496   7.098   1.366   2.037
30418WAT     H291497   7.036   1.231   2.103
30419WAT      O91498   0.454   4.472   0.549
30419WAT     H191499   0.499   4.457   0.636
30419WAT     H291500   0.506   4.428   0.476
30420WAT      O91501   9.725   1.824   5.759
30420WAT     H191502   9.773   1.742   5.729
30420WAT     H291503   9.654   1.847   5.693
30421WAT      O91504   4.553   4.106   2.914
30421WAT     H191505   4.592   4.187   2.959
30421WAT     H291506   4.624   4.038   2.901
30422WAT      O91507   6.906   1.295   3.740
30422WAT     H191508   6.983   1.315   3.678
30422WAT     H291509   6.941   1.285   3.833
30423WAT      O91510   5.218   7.091   9.654
30423WAT     H191511   5.132   7.041   9.659
30423WAT     H291512   5.282   7.041   9.595
30424WAT      O91513   2.526   2.083   8.035
30424WAT     H191514   2.555   2.006   7.978
30424WAT     H291515   2.584   2.087   8.117
30425WAT      O91516   9.844   4.305   7.435
30425WAT     H191517   9.915   4.238   7.417
30425WAT     H291518   9.856   4.384   7.374
30426WAT      O91519   1.556   0.798   7.932
30426WAT     H191520   1.499   0.860   7.986
30426WAT     H291521   1.525   0.704   7.946
30427WAT      O91522   2.170   2.887   1.023
30427WAT     H191523   2.269   2.880   1.038
30427WAT     H291524   2.123   2.885   1.111
30428WAT      O91525   1.552   4.263   8.913
30428WAT     H191526   1.619   4.191   8.932
30428WAT     H291527   1.582   4.349   8.953
30429WAT      O91528   9.175   3.797   1.540
30429WAT     H191529   9.223   3.709   1.538
30429WAT     H291530   9.242   3.872   1.542
30430WAT      O91531   2.352   1.760   4.258
30430WAT     H191532   2.379   1.736   4.351
30430WAT     H291533   2.349   1.859   4.249
30431WAT      O91534   2.335   4.281   8.757
30431WAT     H191535   2.367   4.240   8.842
30431WAT     H291536   2.255   4.339   8.775
30432WAT      O91537   3.187   1.997   0.612
30432WAT     H191538   3.126   1.921   0.587
30432WAT     H291539   3.132   2.074   0.645
30433WAT      O91540   0.566   8.212   1.045
30433WAT     H191541   0.469   8.201   1.021
30433WAT     H291542   0.614   8.125   1.031
30434WAT      O91543   5.572   4.514   3.996
30434WAT     H191544   5.621   4.597   4.025
30434WAT     H291545   5.614   4.477   3.914
30435WAT      O91546   5.237   7.703   1.273
30435WAT     H191547   5.220   7.796   1.241
30435WAT     H291548   5.193   7.638   1.211
30436WAT      O91549   3.598   1.150   7.447
30436WAT     H191550   3.635   1.075   7.393
30436WAT     H291551   3.503   1.167   7.421
30437WAT      O91552   6.656   8.655   5.523
30437WAT     H191553   6.663   8.589   5.448
30437WAT     H291554   6.690   8.744   5.493
30438WAT      O91555   7.561   5.538   1.245
30438WAT     H191556   7.579   5.451   1.199
30438WAT     H291557   7.590   5.614   1.187
30439WAT      O91558   7.890   3.901   1.274
30439WAT     H191559   7.912   3.982   1.328
30439WAT     H291560   7.830   3.841   1.327
30440WAT      O91561   7.714   3.030   6.764
30440WAT     H191562   7.770   3.059   6.685
30440WAT     H291563   7.618   3.030   6.738
30441WAT      O91564   6.170   3.712   3.824
30441WAT     H191565   6.116   3.785   3.866
30441WAT     H291566   6.237   3.679   3.889
30442WAT      O91567   2.186   9.659   9.521
30442WAT     H191568   2.173   9.717   9.441
30442WAT     H291569   2.275   9.677   9.563
30443WAT      O91570   3.652   5.253   0.657
30443WAT     H191571   3.579   5.240   0.724
30443WAT     H291572   3.643   5.185   0.585
30444WAT      O91573   5.080   5.904   2.314
30444WAT     H191574   5.167   5.942   2.282
30444WAT     H291575   5.007   5.972   2.304
30445WAT      O91576   0.816   7.716   1.501
30445WAT     H191577   0.867   7.759   1.426
30445WAT     H291578   0.812   7.778   1.578
30446WAT      O91579   1.864   1.704   2.736
30446WAT     H191580   1.868   1.776   2.666
30446WAT     H291581   1.785   1.719   2.795
30447WAT      O91582   2.382   6.626   5.397
30447WAT     H191583   2.463   6.566   5.390
30447WAT     H291584   2.313   6.595   5.331
30448WAT      O91585   4.804   9.355   6.081
30448WAT     H191586   4.842   9.412   6.008
30448WAT     H291587   4.771   9.269   6.043
30449WAT      O91588   8.008   9.109   1.212
30449WAT     H191589   7.996   9.208   1.215
30449WAT     H291590   8.004   9.078   1.117
30450WAT      O91591   5.507   8.242   8.774
30450WAT     H191592   5.476   8.198   8.858
30450WAT     H291593   5.560   8.324   8.798
30451WAT      O91594   3.102   4.026   2.042
30451WAT     H191595   3.077   3.970   1.963
30451WAT     H291596   3.136   3.968   2.115
30452WAT      O91597   1.259   1.265   4.206
30452WAT     H191598   1.183   1.257   4.271
30452WAT     H291599   1.288   1.361   4.202
30453WAT      O91600   8.037   4.808   4.018
30453WAT     H191601   8.117   4.824   3.961
30453WAT     H291602   8.036   4.872   4.094
30454WAT      O91603   5.770   3.137   1.862
30454WAT     H191604   5.785   3.056   1.805
30454WAT     H291605   5.679   3.173   1.843
30455WAT      O91606   8.148   9.148   3.631
30455WAT     H191607   8.082   9.083   3.667
30455WAT     H291608   8.135   9.158   3.532
30456WAT      O91609   6.769   1.791   7.966
30456WAT     H191610   6.822   1.876   7.960
30456WAT     H291611   6.758   1.753   7.874
30457WAT      O91612   5.568   8.732   6.442
30457WAT     H191613   5.471   8.757   6.447
30457WAT     H291614   5.582   8.665   6.369
30458WAT      O91615   5.473   1.657   1.908
30458WAT     H191616   5.380   1.652   1.871
30458WAT     H291617   5.539   1.657   1.833
30459WAT      O91618   8.220   8.651   5.725
30459WAT     H191619   8.193   8.708   5.648
30459WAT     H291620   8.237   8.558   5.693
30460WAT      O91621   1.544   2.471   5.382
30460WAT     H191622   1.475   2.403   5.357
30460WAT     H291623   1.614   2.428   5.439
30461WAT      O91624   2.216   6.761   9.580
30461WAT     H191625   2.167   6.774   9.494
30461WAT     H291626   2.161   6.797   9.655
30462WAT      O91627   8.426   8.781   7.564
30462WAT     H191628   8.356   8.774   7.493
30462WAT     H291629   8.393   8.737   7.648
30463WAT      O91630   8.070   5.873   7.637
30463WAT     H191631   8.143   5.866   7.705
30463WAT     H291632   8.030   5.783   7.622
30464WAT      O91633   9.281   0.236   4.408
30464WAT     H191634   9.296   0.159   4.469
30464WAT     H291635   9.184   0.262   4.410
30465WAT      O91636   8.283   5.846   5.372
30465WAT     H191637   8.228   5.906   5.429
30465WAT     H291638   8.226   5.770   5.339
30466WAT      O91639   2.208   3.016   7.606
30466WAT     H191640   2.300   3.016   7.567
30466WAT     H291641   2.143   3.055   7.541
30467WAT      O91642   2.107   2.644   7.166
30467WAT     H191643   2.078   2.554   7.197
30467WAT     H291644   2.029   2.706   7.166
30468WAT      O91645   7.314   2.373   9.405
30468WAT     H191646   7.253   2.349   9.480
30468WAT     H291647   7.296   2.468   9.377
30469WAT      O91648   0.491   3.352   7.993
30469WAT     H191649   0.481   3.275   7.929
30469WAT     H291650   0.532   3.430   7.946
30470WAT      O91651   2.470   7.629   2.271
30470WAT     H191652   2.393   7.568   2.294
30470WAT     H291653   2.447   7.681   2.189
30471WAT      O91654   4.018   3.168   0.788
30471WAT     H191655   3.962   3.203   0.712
30471WAT     H291656   4.022   3.237   0.860
30472WAT      O91657   5.827   7.435   8.586
30472WAT     H191658   5.859   7.475   8.500
30472WAT     H291659   5.730   7.411   8.577
30473WAT      O91660   3.542   6.048   5.974
30473WAT     H191661   3.539   5.989   6.055
30473WAT     H291662   3.604   6.009   5.907
30474WAT      O91663   7.164   3.514   8.027
30474WAT     H191664   7.247   3.533   8.079
30474WAT     H291665   7.128   3.424   8.053
30475WAT      O91666   5.667   9.036   2.742
30475WAT     H191667   5.674   8.971   2.819
30475WAT     H291668   5.586   9.093   2.754
30476WAT      O91669   2.060   5.430   5.285
30476WAT     H191670   2.072   5.513   5.341
30476WAT     H291671   2.055   5.350   5.345
30477WAT      O91672   6.612   7.153   0.778
30477WAT     H191673   6.611   7.086   0.852
30477WAT     H291674   6.528   7.209   0.783
30478WAT      O91675   6.306   5.587   7.546
30478WAT     H191676   6.242   5.661   7.527
30478WAT     H291677   6.275   5.535   7.626
30479WAT      O91678   7.162   7.287   7.398
30479WAT     H191679   7.170   7.311   7.302
30479WAT     H291680   7.249   7.251   7.431
30480WAT      O91681   9.459   8.264   8.089
30480WAT     H191682   9.427   8.234   8.178
30480WAT     H291683   9.525   8.338   8.100
30481WAT      O91684   3.895   4.388   0.671
30481WAT     H191685   3.953   4.457   0.627
30481WAT     H291686   3.821   4.433   0.720
30482WAT      O91687   2.717   6.612   8.967
30482WAT     H191688   2.776   6.689   8.995
30482WAT     H291689   2.693   6.557   9.047
30483WAT      O91690   0.572   1.001   5.642
30483WAT     H191691   0.592   1.040   5.552
30483WAT     H291692   0.482   1.031   5.672
30484WAT      O91693   1.820   9.501   0.670
30484WAT     H191694   1.789   9.535   0.759
30484WAT     H291695   1.776   9.413   0.651
30485WAT      O91696   4.801   4.677   7.256
30485WAT     H191697   4.759   4.667   7.165
30485WAT     H291698   4.732   4.709   7.321
30486WAT      O91699   8.183   5.891   1.025
30486WAT     H191700   8.179   5.834   0.943
30486WAT     H291701   8.118   5.856   1.093
30487WAT      O91702   1.596   1.240   7.139
30487WAT     H191703   1.630   1.169   7.201
30487WAT     H291704   1.507   1.212   7.103
30488WAT      O91705   1.348   6.482   4.528
30488WAT     H191706   1.389   6.475   4.619
30488WAT     H291707   1.420   6.479   4.459
30489WAT      O91708   0.979   4.528   1.350
30489WAT     H191709   0.952   4.591   1.422
30489WAT     H291710   1.062   4.479   1.376
30490WAT      O91711   5.662   0.036   2.978
30490WAT     H191712   5.577   0.065   2.934
30490WAT     H291713   5.653   0.045   3.077
30491WAT      O91714   7.102   9.730   0.571
30491WAT     H191715   7.084   9.744   0.473
30491WAT     H291716   7.130   9.817   0.612
30492WAT      O91717   0.278   3.948   3.122
30492WAT     H191718   0.320   3.880   3.183
30492WAT     H291719   0.185   3.918   3.098
30493WAT      O91720   7.244   0.710   9.578
30493WAT     H191721   7.235   0.613   9.601
30493WAT     H291722   7.235   0.721   9.479
30494WAT      O91723   2.811   5.779   1.542
30494WAT     H191724   2.715   5.751   1.545
30494WAT     H291725   2.820   5.871   1.580
30495WAT      O91726   9.433   6.862   9.569
30495WAT     H191727   9.375   6.906   9.636
30495WAT     H291728   9.380   6.842   9.486
30496WAT      O91729   9.195   6.790   1.284
30496WAT     H191730   9.209   6.719   1.353
30496WAT     H291731   9.173   6.748   1.196
30497WAT      O91732   8.229   6.321   0.841
30497WAT     H191733   8.324   6.295   0.858
30497WAT     H291734   8.171   6.239   0.844
30498WAT      O91735   0.994   1.168   6.780
30498WAT     H191736   0.943   1.083   6.761
30498WAT     H291737   1.092   1.150   6.772
30499WAT      O91738   3.206   0.148   7.923
30499WAT     H191739   3.239   0.233   7.882
30499WAT     H291740   3.274   0.076   7.909
30500WAT      O91741   8.090   5.121   7.148
30500WAT     H191742   8.189   5.126   7.135
30500WAT     H291743   8.045   5.103   7.060
30501WAT      O91744   9.682   2.073   9.350
30501WAT     H191745   9.714   2.126   9.272
30501WAT     H291746   9.638   1.989   9.318
30502WAT      O91747   2.883   0.008   2.488
30502WAT     H191748   2.847   0.083   2.431
30502WAT     H291749   2.808  -0.054   2.511
30503WAT      O91750   9.761   6.657   5.968
30503WAT     H191751   9.719   6.739   6.007
30503WAT     H291752   9.769   6.586   6.039
30504WAT      O91753   8.060   1.111   0.893
30504WAT     H191754   8.101   1.058   0.819
30504WAT     H291755   8.119   1.189   0.915
30505WAT      O91756   9.094   7.467   6.884
30505WAT     H191757   9.182   7.424   6.905
30505WAT     H291758   9.062   7.434   6.795
30506WAT      O91759   8.884   8.010   4.991
30506WAT     H191760   8.924   7.922   5.016
30506WAT     H291761   8.904   8.031   4.895
30507WAT      O91762   5.178   0.100   9.593
30507WAT     H191763   5.226   0.187   9.600
30507WAT     H291764   5.203   0.054   9.508
30508WAT      O91765   3.944   2.670   0.016
30508WAT     H191766   3.882   2.736  -0.026
30508WAT     H291767   3.894   2.586   0.037
30509WAT      O91768   0.009   4.947   3.630
30509WAT     H191769   0.061   5.014   3.576
30509WAT     H291770   0.054   4.933   3.718
30510WAT      O91771   9.013   8.527   8.132
30510WAT     H191772   8.990   8.489   8.222
30510WAT     H291773   9.093   8.587   8.141
30511WAT      O91774   8.953   8.387   7.195
30511WAT     H191775   8.860   8.372   7.228
30511WAT     H291776   9.010   8.307   7.215
30512WAT      O91777   2.856   7.127   9.875
30512WAT     H191778   2.783   7.063   9.902
30512WAT     H291779   2.891   7.102   9.785
30513WAT      O91780   1.251   4.375   5.753
30513WAT     H191781   1.333   4.387   5.809
30513WAT     H291782   1.278   4.355   5.659
30514WAT      O91783   6.030   2.240   4.240
30514WAT     H191784   5.969   2.172   4.280
30514WAT     H291785   5.984   2.329   4.238
30515WAT      O91786   7.776   2.135   6.212
30515WAT     H191787   7.774   2.086   6.299
30515WAT     H291788   7.791   2.232   6.230
30516WAT      O91789   6.626   3.417   0.789
30516WAT     H191790   6.650   3.506   0.828
30516WAT     H291791   6.528   3.400   0.803
30517WAT      O91792   6.494   7.317   9.816
30517WAT     H191793   6.423   7.263   9.770
30517WAT     H291794   6.579   7.309   9.764
30518WAT      O91795   8.079   6.864   1.747
30518WAT     H191796   8.028   6.782   1.721
30518WAT     H291797   8.173   6.856   1.714
30519WAT      O91798   9.089   8.898   7.229
30519WAT     H191799   9.178   8.941   7.216
30519WAT     H291800   9.027   8.963   7.272
30520WAT      O91801   6.259   2.806   7.652
30520WAT     H191802   6.255   2.725   7.711
30520WAT     H291803   6.173   2.813   7.600
30521WAT      O91804   8.564   3.360   7.030
30521WAT     H191805   8.598   3.303   7.104
30521WAT     H291806   8.568   3.456   7.057
30522WAT      O91807   5.309   6.094   3.019
30522WAT     H191808   5.209   6.095   3.030
30522WAT     H291809   5.341   6.187   3.003
30523WAT      O91810   3.316   4.824   0.995
30523WAT     H191811   3.312   4.923   0.984
30523WAT     H291812   3.229   4.791   1.032
30524WAT      O91813   1.300   9.275   9.720
30524WAT     H191814   1.253   9.235   9.641
30524WAT     H291815   1.232   9.311   9.785
30525WAT      O91816   3.897   8.385   9.353
30525WAT     H191817   3.930   8.401   9.260
30525WAT     H291818   3.810   8.335   9.350
30526WAT      O91819   3.671   6.381   9.131
30526WAT     H191820   3.698   6.463   9.181
30526WAT     H291821   3.673   6.399   9.032
30527WAT      O91822   8.398   7.469   4.375
30527WAT     H191823   8.352   7.553   4.404
30527WAT     H291824   8.333   7.393   4.377
30528WAT      O91825   8.804   9.017   3.111
30528WAT     H191826   8.731   9.077   3.144
30528WAT     H291827   8.883   9.024   3.172
30529WAT      O91828   1.506   2.152   8.320
30529WAT     H191829   1.441   2.218   8.283
30529WAT     H291830   1.531   2.087   8.248
30530WAT      O91831   6.430   2.060   7.182
30530WAT     H191832   6.410   1.995   7.256
30530WAT     H291833   6.382   2.145   7.199
30531WAT      O91834   6.257   7.375   0.353
30531WAT     H191835   6.343   7.348   0.398
30531WAT     H291836   6.254   7.334   0.262
30532WAT      O91837   9.405   6.250   9.404
30532WAT     H191838   9.427   6.211   9.493
30532WAT     H291839   9.434   6.345   9.401
30533WAT      O91840   3.197   7.609   8.514
30533WAT     H191841   3.109   7.578   8.549
30533WAT     H291842   3.183   7.691   8.458
30534WAT      O91843   7.289   0.190   0.305
30534WAT     H191844   7.373   0.167   0.255
30534WAT     H291845   7.248   0.272   0.265
30535WAT      O91846   5.365   3.878   2.799
30535WAT     H191847   5.385   3.821   2.878
30535WAT     H291848   5.414   3.965   2.806
30536WAT      O91849   5.494   3.610   5.834
30536WAT     H191850   5.563   3.599   5.906
30536WAT     H291851   5.539   3.628   5.747
30537WAT      O91852   9.274   9.037   6.037
30537WAT     H191853   9.204   8.996   5.980
30537WAT     H291854   9.252   9.022   6.133
30538WAT      O91855   8.682   1.809   0.620
30538WAT     H191856   8.609   1.744   0.597
30538WAT     H291857   8.766   1.783   0.573
30539WAT      O91858   7.135   6.302   7.070
30539WAT     H191859   7.128   6.382   7.010
30539WAT     H291860   7.227   6.265   7.066
30540WAT      O91861   1.305   3.105   8.456
30540WAT     H191862   1.234   3.076   8.520
30540WAT     H291863   1.286   3.197   8.423
30541WAT      O91864   0.869   9.424   2.704
30541WAT     H191865   0.954   9.372   2.714
30541WAT     H291866   0.850   9.475   2.787
30542WAT      O91867   2.814   8.663   8.386
30542WAT     H191868   2.804   8.736   8.454
30542WAT     H291869   2.911   8.652   8.364
30543WAT      O91870   8.796   8.671   1.098
30543WAT     H191871   8.835   8.707   1.014
30543WAT     H291872   8.866   8.670   1.170
30544WAT      O91873   5.850   3.056   4.788
30544WAT     H191874   5.847   3.036   4.690
30544WAT     H291875   5.757   3.066   4.824
30545WAT      O91876   5.819   0.536   3.620
30545WAT     H191877   5.916   0.544   3.645
30545WAT     H291878   5.771   0.620   3.646
30546WAT      O91879   5.626   6.933   7.675
30546WAT     H191880   5.722   6.955   7.690
30546WAT     H291881   5.593   6.875   7.749
30547WAT      O91882   1.753   6.076   8.075
30547WAT     H191883   1.799   5.990   8.098
30547WAT     H291884   1.817   6.152   8.086
30548WAT      O91885   5.937   7.518   9.352
30548WAT     H191886   5.905   7.554   9.440
30548WAT     H291887   5.859   7.497   9.294
30549WAT      O91888   3.217   3.575   8.922
30549WAT     H191889   3.199   3.634   9.001
30549WAT     H291890   3.170   3.612   8.842
30550WAT      O91891   1.852   7.643   5.263
30550WAT     H191892   1.944   7.604   5.259
30550WAT     H291893   1.842   7.711   5.190
30551WAT      O91894   6.542   7.105   3.931
30551WAT     H191895   6.496   7.185   3.971
30551WAT     H291896   6.611   7.072   3.995
30552WAT      O91897   0.769   6.427   2.303
30552WAT     H191898   0.674   6.457   2.314
30552WAT     H291899   0.787   6.410   2.206
30553WAT      O91900   2.906   9.754   4.190
30553WAT     H191901   2.865   9.664   4.176
30553WAT     H291902   3.006   9.744   4.191
30554WAT      O91903   7.588   8.275   9.596
30554WAT     H191904   7.574   8.371   9.621
30554WAT     H291905   7.686   8.258   9.583
30555WAT      O91906   3.916   4.121   6.717
30555WAT     H191907   3.915   4.058   6.640
30555WAT     H291908   3.826   4.121   6.762
30556WAT      O91909   2.150   1.714   6.788
30556WAT     H191910   2.188   1.623   6.802
30556WAT     H291911   2.051   1.711   6.797
30557WAT      O91912   9.697   1.030   1.626
30557WAT     H191913   9.621   1.054   1.566
30557WAT     H291914   9.762   0.973   1.577
30558WAT      O91915   3.847   8.629   9.461
30558WAT     H191916   3.846   8.614   9.560
30558WAT     H291917   3.857   8.541   9.415
30559WAT      O91918   4.555   0.982   0.129
30559WAT     H191919   4.549   0.882   0.136
30559WAT     H291920   4.575   1.007   0.035
30560WAT      O91921   3.350   8.791   1.503
30560WAT     H191922   3.269   8.758   1.455
30560WAT     H291923   3.329   8.880   1.545
30561WAT      O91924   0.055   9.291   4.931
30561WAT     H191925   0.072   9.386   4.958
30561WAT     H291926  -0.043   9.271   4.938
30562WAT      O91927   3.090   5.032   4.947
30562WAT     H191928   3.156   5.062   4.878
30562WAT     H291929   3.135   5.030   5.037
30563WAT      O91930   0.159   5.388   7.879
30563WAT     H191931   0.191   5.452   7.949
30563WAT     H291932   0.232   5.322   7.859
30564WAT      O91933   8.126   5.310   6.499
30564WAT     H191934   8.106   5.408   6.508
30564WAT     H291935   8.223   5.294   6.520
30565WAT      O91936   3.879   9.348   4.869
30565WAT     H191937   3.929   9.300   4.941
30565WAT     H291938   3.920   9.328   4.780
30566WAT      O91939   6.345   7.888   7.623
30566WAT     H191940   6.410   7.816   7.602
30566WAT     H291941   6.367   7.928   7.712
30567WAT      O91942   0.766   1.892   7.260
30567WAT     H191943   0.865   1.881   7.270
30567WAT     H291944   0.729   1.941   7.339
30568WAT      O91945   4.081   1.325   1.059
30568WAT     H191946   4.137   1.405   1.078
30568WAT     H291947   4.004   1.322   1.123
30569WAT      O91948   5.978   9.322   1.853
30569WAT     H191949   6.053   9.296   1.914
30569WAT     H291950   5.904   9.362   1.908
30570WAT      O91951   7.597   2.196   0.180
30570WAT     H191952   7.532   2.270   0.163
30570WAT     H291953   7.673   2.203   0.116
30571WAT      O91954   9.810   7.385   9.479
30571WAT     H191955   9.731   7.333   9.511
30571WAT     H291956   9.797   7.412   9.384
30572WAT      O91957   6.861   5.409   8.862
30572WAT     H191958   6.802   5.417   8.782
30572WAT     H291959   6.921   5.489   8.867
30573WAT      O91960   3.663   0.727   2.608
30573WAT     H191961   3.676   0.763   2.700
30573WAT     H291962   3.590   0.778   2.562
30574WAT      O91963   2.424   0.968   5.074
30574WAT     H191964   2.497   0.995   5.011
30574WAT     H291965   2.402   0.871   5.061
30575WAT      O91966   5.585   0.936   3.801
30575WAT     H191967   5.661   0.916   3.739
30575WAT     H291968   5.505   0.962   3.747
30576WAT      O91969   4.506   5.380   8.409
30576WAT     H191970   4.557   5.434   8.343
30576WAT     H291971   4.447   5.440   8.464
30577WAT      O91972   3.527   5.984   7.300
30577WAT     H191973   3.485   6.037   7.373
30577WAT     H291974   3.463   5.976   7.224
30578WAT      O91975   2.502   4.941   3.962
30578WAT     H191976   2.530   4.966   4.055
30578WAT     H291977   2.508   4.842   3.951
30579WAT      O91978   6.060   2.990   0.638
30579WAT     H191979   6.040   3.086   0.659
30579WAT     H291980   6.096   2.982   0.545
30580WAT      O91981   3.845   0.665   9.649
30580WAT     H191982   3.870   0.688   9.555
30580WAT     H291983   3.775   0.729   9.681
30581WAT      O91984   6.600   7.149   6.602
30581WAT     H191985   6.512   7.102   6.611
30581WAT     H291986   6.592   7.243   6.635
30582WAT      O91987   2.372   5.666   0.706
30582WAT     H191988   2.310   5.690   0.631
30582WAT     H291989   2.347   5.717   0.788
30583WAT      O91990   8.440   1.185   4.023
30583WAT     H191991   8.384   1.116   4.068
30583WAT     H291992   8.441   1.268   4.079
30584WAT      O91993   8.954   6.991   6.651
30584WAT     H191994   8.888   7.063   6.671
30584WAT     H291995   8.993   6.957   6.737
30585WAT      O91996   1.926   7.563   3.854
30585WAT     H191997   1.899   7.485   3.797
30585WAT     H291998   2.018   7.592   3.830
30586WAT      O91999   2.042   7.334   7.432
30586WAT     H192000   2.013   7.322   7.337
30586WAT     H292001   1.964   7.361   7.488
30587WAT      O92002   8.885   8.724   6.049
30587WAT     H192003   8.845   8.694   6.136
30587WAT     H292004   8.972   8.678   6.035
30588WAT      O92005   2.504   8.928   4.358
30588WAT     H192006   2.579   8.868   4.331
30588WAT     H292007   2.420   8.898   4.312
30589WAT      O92008   4.297   0.202   6.292
30589WAT     H192009   4.359   0.278   6.310
30589WAT     H292010   4.329   0.150   6.213
30590WAT      O92011   9.705   2.515   5.402
30590WAT     H192012   9.733   2.473   5.316
30590WAT     H292013   9.650   2.450   5.454
30591WAT      O92014   0.237   3.211   6.327
30591WAT     H192015   0.249   3.142   6.256
30591WAT     H292016   0.327   3.247   6.354
30592WAT      O92017   4.096   2.518   7.690
30592WAT     H192018   4.164   2.492   7.759
30592WAT     H292019   4.126   2.601   7.644
30593WAT      O92020   1.546   6.401   9.077
30593WAT     H192021   1.519   6.495   9.095
30593WAT     H292022   1.646   6.395   9.073
30594WAT      O92023   0.675   8.605   9.841
30594WAT     H192024   0.761   8.604   9.789
30594WAT     H292025   0.694   8.589   9.937
30595WAT      O92026   3.059   2.830   4.197
30595WAT     H192027   3.116   2.908   4.170
30595WAT     H292028   3.116   2.749   4.207
30596WAT      O92029   6.783   8.137   4.022
30596WAT     H192030   6.840   8.206   4.067
30596WAT     H292031   6.831   8.050   4.020
30597WAT      O92032   7.425   6.293   6.758
30597WAT     H192033   7.419   6.239   6.841
30597WAT     H292034   7.344   6.277   6.701
30598WAT      O92035   0.145   4.381   6.382
30598WAT     H192036   0.098   4.389   6.470
30598WAT     H292037   0.223   4.444   6.380
30599WAT      O92038   2.020   6.184   2.813
30599WAT     H192039   1.941   6.136   2.850
30599WAT     H292040   2.057   6.246   2.883
30600WAT      O92041   9.140   0.040   4.079
30600WAT     H192042   9.125  -0.028   4.151
30600WAT     H292043   9.234   0.074   4.084
30601WAT      O92044   9.604   5.731   4.008
30601WAT     H192045   9.653   5.707   4.092
30601WAT     H292046   9.508   5.746   4.029
30602WAT      O92047   1.256   2.304   0.625
30602WAT     H192048   1.236   2.212   0.659
30602WAT     H292049   1.203   2.322   0.543
30603WAT      O92050   2.475   8.897   3.963
30603WAT     H192051   2.478   8.798   3.955
30603WAT     H292052   2.380   8.928   3.972
30604WAT      O92053   5.111   9.669   5.498
30604WAT     H192054   5.164   9.630   5.574
30604WAT     H292055   5.130   9.616   5.415
30605WAT      O92056   9.488   7.661   6.130
30605WAT     H192057   9.416   7.643   6.063
30605WAT     H292058   9.540   7.742   6.103
30606WAT      O92059   2.652   5.906   3.615
30606WAT     H192060   2.590   5.978   3.645
30606WAT     H292061   2.732   5.904   3.676
30607WAT      O92062   6.141   4.048   5.221
30607WAT     H192063   6.157   3.952   5.196
30607WAT     H292064   6.049   4.058   5.258
30608WAT      O92065   3.137   1.051   9.072
30608WAT     H192066   3.189   1.100   9.001
30608WAT     H292067   3.169   0.957   9.078
30609WAT      O92068   7.406   5.328   5.617
30609WAT     H192069   7.386   5.239   5.656
30609WAT     H292070   7.442   5.317   5.524
30610WAT      O92071   6.246   1.735   8.400
30610WAT     H192072   6.324   1.796   8.383
30610WAT     H292073   6.225   1.683   8.318
30611WAT      O92074   6.725   2.282   7.687
30611WAT     H192075   6.687   2.249   7.774
30611WAT     H292076   6.708   2.380   7.678
30612WAT      O92077   5.028   8.181   6.666
30612WAT     H192078   5.104   8.200   6.605
30612WAT     H292079   4.994   8.266   6.705
30613WAT      O92080   9.065   3.449   1.660
30613WAT     H192081   9.074   3.441   1.560
30613WAT     H292082   9.036   3.361   1.698
30614WAT      O92083   8.164   7.992   0.856
30614WAT     H192084   8.159   8.030   0.764
30614WAT     H292085   8.252   7.944   0.867
30615WAT      O92086   1.590   3.356   7.315
30615WAT     H192087   1.584   3.334   7.217
30615WAT     H292088   1.581   3.272   7.368
30616WAT      O92089   3.774   6.152   1.465
30616WAT     H192090   3.749   6.070   1.414
30616WAT     H292091   3.807   6.126   1.556
30617WAT      O92092   5.508   2.742   5.745
30617WAT     H192093   5.487   2.838   5.760
30617WAT     H292094   5.597   2.720   5.787
30618WAT      O92095   6.747   8.113   3.349
30618WAT     H192096   6.686   8.126   3.270
30618WAT     H292097   6.719   8.032   3.400
30619WAT      O92098   8.582   8.422   8.862
30619WAT     H192099   8.530   8.372   8.793
30619WAT     H292100   8.531   8.426   8.947
30620WAT      O92101   4.665   1.123   6.511
30620WAT     H192102   4.602   1.144   6.436
30620WAT     H292103   4.711   1.036   6.492
30621WAT      O92104   7.212   0.315   9.891
30621WAT     H192105   7.269   0.258   9.832
30621WAT     H292106   7.236   0.411   9.876
30622WAT      O92107   0.632   9.127   7.579
30622WAT     H192108   0.607   9.171   7.493
30622WAT     H292109   0.572   9.049   7.595
30623WAT      O92110   4.649   7.424   4.899
30623WAT     H192111   4.704   7.501   4.867
30623WAT     H292112   4.698   7.338   4.882
30624WAT      O92113   7.896   6.136   5.271
30624WAT     H192114   7.986   6.179   5.266
30624WAT     H292115   7.860   6.144   5.364
30625WAT      O92116   4.063   4.433   1.206
30625WAT     H192117   4.015   4.520   1.198
30625WAT     H292118   4.014   4.363   1.154
30626WAT      O92119   8.789   0.415   1.419
30626WAT     H192120   8.821   0.509   1.403
30626WAT     H292121   8.753   0.378   1.334
30627WAT      O92122   4.028   8.634   6.690
30627WAT     H192123   4.024   8.559   6.756
30627WAT     H292124   4.121   8.669   6.684
30628WAT      O92125   3.338   0.127   1.242
30628WAT     H192126   3.253   0.123   1.295
30628WAT     H292127   3.321   0.173   1.154
30629WAT      O92128   3.203   8.237   6.934
30629WAT     H192129   3.184   8.312   6.997
30629WAT     H292130   3.131   8.232   6.865
30630WAT      O92131   2.337   3.446   4.638
30630WAT     H192132   2.301   3.503   4.712
30630WAT     H292133   2.266   3.430   4.570
30631WAT      O92134   8.826   2.098   3.802
30631WAT     H192135   8.894   2.162   3.766
30631WAT     H292136   8.852   2.004   3.779
30632WAT      O92137   1.813   1.485   4.269
30632WAT     H192138   1.904   1.445   4.270
30632WAT     H292139   1.777   1.486   4.176
30633WAT      O92140   3.406   2.219   9.670
30633WAT     H192141   3.473   2.289   9.647
30633WAT     H292142   3.340   2.256   9.736
30634WAT      O92143   8.634   5.582   2.858
30634WAT     H192144   8.540   5.583   2.892
30634WAT     H292145   8.647   5.661   2.797
30635WAT      O92146   8.304   5.548   9.294
30635WAT     H192147   8.401   5.540   9.317
30635WAT     H292148   8.283   5.489   9.216
30636WAT      O92149   2.157   3.359   4.370
30636WAT     H192150   2.131   3.281   4.312
30636WAT     H292151   2.138   3.444   4.321
30637WAT      O92152   9.653   3.842   1.977
30637WAT     H192153   9.578   3.902   1.949
30637WAT     H292154   9.734   3.897   1.997
30638WAT      O92155   9.374   8.043   7.943
30638WAT     H192156   9.276   8.046   7.926
30638WAT     H292157   9.405   8.131   7.980
30639WAT      O92158   8.003   7.895   3.356
30639WAT     H192159   8.021   7.880   3.259
30639WAT     H292160   8.072   7.956   3.394
30640WAT      O92161   5.803   7.778   9.041
30640WAT     H192162   5.816   7.714   8.965
30640WAT     H292163   5.737   7.848   9.014
30641WAT      O92164   8.486   7.970   6.309
30641WAT     H192165   8.420   7.898   6.290
30641WAT     H292166   8.534   7.950   6.394
30642WAT      O92167   1.992   2.899   6.964
30642WAT     H192168   1.965   2.866   7.055
30642WAT     H292169   2.044   2.983   6.973
30643WAT      O92170   9.351   3.384   6.854
30643WAT     H192171   9.375   3.377   6.950
30643WAT     H292172   9.325   3.479   6.832
30644WAT      O92173   4.626   1.393   3.056
30644WAT     H192174   4.700   1.364   3.117
30644WAT     H292175   4.597   1.315   3.000
30645WAT      O92176   1.067   5.421   5.165
30645WAT     H192177   0.977   5.381   5.179
30645WAT     H292178   1.069   5.513   5.206
30646WAT      O92179   2.222   6.520   9.708
30646WAT     H192180   2.296   6.537   9.772
30646WAT     H292181   2.220   6.594   9.640
30647WAT      O92182   5.286   4.686   2.396
30647WAT     H192183   5.190   4.671   2.421
30647WAT     H292184   5.345   4.648   2.467
30648WAT      O92185   1.115   8.150   8.933
30648WAT     H192186   1.164   8.200   8.863
30648WAT     H292187   1.105   8.208   9.015
30649WAT      O92188   3.200   7.931   9.335
30649WAT     H192189   3.153   8.008   9.378
30649WAT     H292190   3.242   7.961   9.249
30650WAT      O92191   7.433   3.153   1.075
30650WAT     H192192   7.454   3.121   0.982
30650WAT     H292193   7.335   3.171   1.082
30651WAT      O92194   3.717   4.624   8.470
30651WAT     H192195   3.699   4.722   8.462
30651WAT     H292196   3.670   4.588   8.551
30652WAT      O92197   5.248   0.089   5.533
30652WAT     H192198   5.179   0.159   5.516
30652WAT     H292199   5.205  -0.001   5.536
30653WAT      O92200   5.376   4.963   2.058
30653WAT     H192201   5.337   4.871   2.048
30653WAT     H292202   5.383   4.985   2.155
30654WAT      O92203   5.477   4.279   6.804
30654WAT     H192204   5.540   4.330   6.746
30654WAT     H292205   5.439   4.340   6.874
30655WAT      O92206   7.894   2.508   0.238
30655WAT     H192207   7.859   2.429   0.287
30655WAT     H292208   7.818   2.564   0.205
30656WAT      O92209   5.115   4.886   5.753
30656WAT     H192210   5.049   4.812   5.767
30656WAT     H292211   5.110   4.950   5.830
30657WAT      O92212   7.173   8.276   9.493
30657WAT     H192213   7.218   8.353   9.539
30657WAT     H292214   7.114   8.311   9.420
30658WAT      O92215   2.575   2.232   5.312
30658WAT     H192216   2.566   2.305   5.244
30658WAT     H292217   2.635   2.262   5.385
30659WAT      O92218   9.432   6.499   0.495
30659WAT     H192219   9.367   6.512   0.421
30659WAT     H292220   9.514   6.553   0.477
30660WAT      O92221   7.722   7.466   1.201
30660WAT     H192222   7.659   7.540   1.178
30660WAT     H292223   7.815   7.501   1.206
30661WAT      O92224   6.750   0.367   8.822
30661WAT     H192225   6.835   0.353   8.873
30661WAT     H292226   6.704   0.449   8.856
30662WAT      O92227   6.385   5.304   0.089
30662WAT     H192228   6.429   5.214   0.090
30662WAT     H292229   6.433   5.366   0.152
30663WAT      O92230   8.336   3.610   3.872
30663WAT     H192231   8.277   3.626   3.950
30663WAT     H292232   8.324   3.517   3.839
30664WAT      O92233   7.163   5.206   9.636
30664WAT     H192234   7.076   5.156   9.637
30664WAT     H292235   7.231   5.155   9.688
30665WAT      O92236   9.762   9.355   8.156
30665WAT     H192237   9.674   9.393   8.126
30665WAT     H292238   9.832   9.377   8.088
30666WAT      O92239   1.154   9.264   6.655
30666WAT     H192240   1.141   9.171   6.688
30666WAT     H292241   1.121   9.272   6.561
30667WAT      O92242   8.101   2.522   0.647
30667WAT     H192243   8.076   2.588   0.718
30667WAT     H292244   8.168   2.564   0.586
30668WAT      O92245   7.202   1.276   7.779
30668WAT     H192246   7.283   1.310   7.826
30668WAT     H292247   7.131   1.255   7.845
30669WAT      O92248   9.088   3.172   8.980
30669WAT     H192249   9.110   3.075   8.992
30669WAT     H292250   9.136   3.207   8.899
30670WAT      O92251   8.474   9.598   1.059
30670WAT     H192252   8.417   9.524   1.094
30670WAT     H292253   8.490   9.665   1.131
30671WAT      O92254   1.535   3.535   8.981
30671WAT     H192255   1.484   3.565   9.062
30671WAT     H292256   1.537   3.609   8.914
30672WAT      O92257   8.793   8.614   5.409
30672WAT     H192258   8.850   8.642   5.487
30672WAT     H292259   8.850   8.605   5.328
30673WAT      O92260   0.757   9.823   8.307
30673WAT     H192261   0.688   9.784   8.367
30673WAT     H292262   0.731   9.808   8.212
30674WAT      O92263   8.252   6.212   5.529
30674WAT     H192264   8.218   6.140   5.589
30674WAT     H292265   8.341   6.184   5.491
30675WAT      O92266   1.225   8.714   4.498
30675WAT     H192267   1.322   8.712   4.524
30675WAT     H292268   1.171   8.752   4.574
30676WAT      O92269   2.652   5.580   2.416
30676WAT     H192270   2.564   5.622   2.395
30676WAT     H292271   2.684   5.530   2.335
30677WAT      O92272   1.928   8.291   7.652
30677WAT     H192273   1.975   8.257   7.570
30677WAT     H292274   1.948   8.388   7.663
30678WAT      O92275   3.721   8.959   4.384
30678WAT     H192276   3.727   8.926   4.290
30678WAT     H292277   3.808   9.001   4.410
30679WAT      O92278   2.287   5.531   8.721
30679WAT     H192279   2.338   5.618   8.721
30679WAT     H292280   2.272   5.502   8.815
30680WAT      O92281   4.281   8.165   6.463
30680WAT     H192282   4.250   8.253   6.498
30680WAT     H292283   4.294   8.102   6.539
30681WAT      O92284   5.023   0.148   1.834
30681WAT     H192285   5.000   0.232   1.785
30681WAT     H292286   5.122   0.139   1.841
30682WAT      O92287   4.251   2.849   6.261
30682WAT     H192288   4.338   2.817   6.299
30682WAT     H292289   4.188   2.772   6.251
30683WAT      O92290   5.486   0.418   3.727
30683WAT     H192291   5.579   0.385   3.741
30683WAT     H292292   5.482   0.516   3.747
30684WAT      O92293   5.586   7.151   8.972
30684WAT     H192294   5.488   7.169   8.982
30684WAT     H292295   5.633   7.175   9.057
30685WAT      O92296   5.182   9.822   2.654
30685WAT     H192297   5.191   9.818   2.753
30685WAT     H292298   5.104   9.881   2.630
30686WAT      O92299   9.244   1.736   6.444
30686WAT     H192300   9.291   1.818   6.410
30686WAT     H292301   9.150   1.760   6.469
30687WAT      O92302   9.447   0.775   1.540
30687WAT     H192303   9.367   0.810   1.589
30687WAT     H292304   9.423   0.688   1.496
30688WAT      O92305   5.272   6.617   8.887
30688WAT     H192306   5.345   6.643   8.823
30688WAT     H292307   5.298   6.535   8.937
30689WAT      O92308   6.704   6.217   1.236
30689WAT     H192309   6.686   6.123   1.268
30689WAT     H292310   6.628   6.276   1.263
30690WAT      O92311   7.631   3.550   0.923
30690WAT     H192312   7.717   3.565   0.973
30690WAT     H292313   7.650   3.512   0.833
30691WAT      O92314   6.725   8.319   8.770
30691WAT     H192315   6.729   8.228   8.727
30691WAT     H292316   6.635   8.331   8.812
30692WAT      O92317   2.057   0.643   3.024
30692WAT     H192318   2.016   0.639   3.115
30692WAT     H292319   2.051   0.553   2.981
30693WAT      O92320   8.739   3.518   7.682
30693WAT     H192321   8.740   3.418   7.675
30693WAT     H292322   8.833   3.552   7.682
30694WAT      O92323   7.846   1.006   4.137
30694WAT     H192324   7.803   1.010   4.227
30694WAT     H292325   7.901   0.923   4.130
30695WAT      O92326   6.012   3.134   5.936
30695WAT     H192327   6.028   3.191   6.016
30695WAT     H292328   6.099   3.109   5.894
30696WAT      O92329   4.367   6.964   6.904
30696WAT     H192330   4.301   6.923   6.842
30696WAT     H292331   4.456   6.921   6.891
30697WAT      O92332   2.699   3.779   3.248
30697WAT     H192333   2.640   3.812   3.322
30697WAT     H292334   2.749   3.698   3.278
30698WAT      O92335   4.802   4.812   1.433
30698WAT     H192336   4.796   4.896   1.487
30698WAT     H292337   4.735   4.746   1.466
30699WAT      O92338   7.460   0.288   4.498
30699WAT     H192339   7.484   0.385   4.499
30699WAT     H292340   7.537   0.235   4.534
30700WAT      O92341   8.883   1.459   7.969
30700WAT     H192342   8.872   1.393   8.043
30700WAT     H292343   8.819   1.438   7.896
30701WAT      O92344   4.656   7.535   9.407
30701WAT     H192345   4.740   7.589   9.407
30701WAT     H292346   4.678   7.438   9.418
30702WAT      O92347   7.901   5.802   2.054
30702WAT     H192348   7.923   5.708   2.027
30702WAT     H292349   7.978   5.840   2.106
30703WAT      O92350   5.448   9.600   8.416
30703WAT     H192351   5.402   9.623   8.331
30703WAT     H292352   5.480   9.505   8.412
30704WAT      O92353   6.091   0.748   5.117
30704WAT     H192354   6.085   0.675   5.049
30704WAT     H292355   6.135   0.828   5.076
30705WAT      O92356   1.724   9.594   2.240
30705WAT     H192357   1.747   9.686   2.271
30705WAT     H292358   1.800   9.557   2.187
30706WAT      O92359   1.964   1.454   6.585
30706WAT     H192360   1.934   1.523   6.519
30706WAT     H292361   1.957   1.363   6.545
30707WAT      O92362   4.067   0.778   1.183
30707WAT     H192363   3.979   0.770   1.136
30707WAT     H292364   4.085   0.695   1.235
30708WAT      O92365   4.663   6.619   7.859
30708WAT     H192366   4.621   6.556   7.794
30708WAT     H292367   4.708   6.567   7.932
30709WAT      O92368   2.685   2.547   2.869
30709WAT     H192369   2.657   2.642   2.877
30709WAT     H292370   2.604   2.488   2.878
30710WAT      O92371   1.445   2.840   7.193
30710WAT     H192372   1.448   2.835   7.293
30710WAT     H292373   1.356   2.875   7.164
30711WAT      O92374   1.118   6.611   4.501
30711WAT     H192375   1.043   6.580   4.559
30711WAT     H292376   1.200   6.556   4.518
30712WAT      O92377   5.953   2.822   5.156
30712WAT     H192378   5.961   2.730   5.117
30712WAT     H292379   5.887   2.822   5.230
30713WAT      O92380   1.638   1.526   7.180
30713WAT     H192381   1.604   1.444   7.135
30713WAT     H292382   1.640   1.512   7.279
30714WAT      O92383   6.436   5.306   6.533
30714WAT     H192384   6.434   5.403   6.508
30714WAT     H292385   6.531   5.276   6.539
30715WAT      O92386   3.025   6.544   5.031
30715WAT     H192387   2.943   6.572   5.082
30715WAT     H292388   3.102   6.603   5.057
30716WAT      O92389   8.578   9.329   0.702
30716WAT     H192390   8.506   9.353   0.637
30716WAT     H292391   8.611   9.411   0.748
30717WAT      O92392   4.617   1.649   8.089
30717WAT     H192393   4.636   1.735   8.136
30717WAT     H292394   4.567   1.667   8.004
30718WAT      O92395   9.030   7.748   3.369
30718WAT     H192396   8.996   7.780   3.457
30718WAT     H292397   9.074   7.824   3.321
30719WAT      O92398   1.990   7.351   4.840
30719WAT     H192399   2.076   7.326   4.883
30719WAT     H292400   1.915   7.300   4.883
30720WAT      O92401   5.403   8.461   6.308
30720WAT     H192402   5.479   8.396   6.299
30720WAT     H292403   5.371   8.463   6.402
30721WAT      O92404   7.339   6.553   8.934
30721WAT     H192405   7.262   6.505   8.891
30721WAT     H292406   7.321   6.563   9.032
30722WAT      O92407   3.586   4.706   1.398
30722WAT     H192408   3.591   4.643   1.475
30722WAT     H292409   3.584   4.654   1.313
30723WAT      O92410   0.176   9.207   3.878
30723WAT     H192411   0.248   9.236   3.942
30723WAT     H292412   0.218   9.176   3.793
30724WAT      O92413   6.011   6.839   2.434
30724WAT     H192414   6.091   6.843   2.374
30724WAT     H292415   5.938   6.787   2.389
30725WAT      O92416   5.409   8.459   7.122
30725WAT     H192417   5.503   8.472   7.090
30725WAT     H292418   5.407   8.385   7.189
30726WAT      O92419   1.850   6.895   9.207
30726WAT     H192420   1.801   6.881   9.122
30726WAT     H292421   1.921   6.965   9.193
30727WAT      O92422   1.469   4.869   3.302
30727WAT     H192423   1.426   4.862   3.392
30727WAT     H292424   1.435   4.951   3.255
30728WAT      O92425   3.385   0.261   9.620
30728WAT     H192426   3.308   0.246   9.682
30728WAT     H292427   3.351   0.274   9.527
30729WAT      O92428   0.627   3.670   8.523
30729WAT     H192429   0.716   3.694   8.561
30729WAT     H292430   0.583   3.751   8.486
30730WAT      O92431   6.485   5.191   3.570
30730WAT     H192432   6.460   5.099   3.597
30730WAT     H292433   6.568   5.188   3.513
30731WAT      O92434   8.344   0.581   7.049
30731WAT     H192435   8.328   0.491   7.007
30731WAT     H292436   8.307   0.652   6.989
30732WAT      O92437   2.040   3.057   0.846
30732WAT     H192438   2.082   2.985   0.901
30732WAT     H292439   2.107   3.092   0.780
30733WAT      O92440   6.500   9.765   3.949
30733WAT     H192441   6.570   9.774   3.878
30733WAT     H292442   6.451   9.679   3.938
30734WAT      O92443   1.581   9.035   6.557
30734WAT     H192444   1.511   9.015   6.626
30734WAT     H292445   1.665   9.064   6.603
30735WAT      O92446   9.224   9.557   1.879
30735WAT     H192447   9.295   9.487   1.865
30735WAT     H292448   9.218   9.579   1.977
30736WAT      O92449   0.507   7.028   5.558
30736WAT     H192450   0.465   6.993   5.474
30736WAT     H292451   0.445   7.014   5.635
30737WAT      O92452   8.273   1.155   9.708
30737WAT     H192453   8.243   1.062   9.689
30737WAT     H292454   8.197   1.219   9.695
30738WAT      O92455   1.869   9.024   6.131
30738WAT     H192456   1.937   9.090   6.100
30738WAT     H292457   1.817   9.063   6.206
30739WAT      O92458   3.501   2.108   1.372
30739WAT     H192459   3.423   2.156   1.333
30739WAT     H292460   3.481   2.082   1.467
30740WAT      O92461   4.193   1.986   9.280
30740WAT     H192462   4.169   2.074   9.241
30740WAT     H292463   4.266   1.944   9.226
30741WAT      O92464   0.154   3.304   5.503
30741WAT     H192465   0.096   3.303   5.584
30741WAT     H292466   0.240   3.257   5.524
30742WAT      O92467   3.341   0.259   3.136
30742WAT     H192468   3.258   0.203   3.138
30742WAT     H292469   3.418   0.205   3.169
30743WAT      O92470   7.313   9.378   4.250
30743WAT     H192471   7.339   9.393   4.155
30743WAT     H292472   7.388   9.334   4.299
30744WAT      O92473   0.848   4.671   2.679
30744WAT     H192474   0.796   4.681   2.764
30744WAT     H292475   0.806   4.728   2.608
30745WAT      O92476   3.162   6.251   1.513
30745WAT     H192477   3.147   6.277   1.418
30745WAT     H292478   3.233   6.308   1.552
30746WAT      O92479   3.988   2.698   9.127
30746WAT     H192480   3.912   2.672   9.186
30746WAT     H292481   4.064   2.731   9.182
30747WAT      O92482   3.038   3.170   9.880
30747WAT     H192483   2.949   3.125   9.891
30747WAT     H292484   3.035   3.229   9.799
30748WAT      O92485   6.500   0.481   0.916
30748WAT     H192486   6.434   0.406   0.908
30748WAT     H292487   6.453   0.563   0.948
30749WAT      O92488   6.667   4.367   6.632
30749WAT     H192489   6.703   4.279   6.664
30749WAT     H292490   6.734   4.411   6.573
30750WAT      O92491   4.853   0.229   3.886
30750WAT     H192492   4.846   0.217   3.787
30750WAT     H292493   4.807   0.314   3.913
30751WAT      O92494   7.777   5.975   1.579
30751WAT     H192495   7.710   5.970   1.505
30751WAT     H292496   7.798   6.071   1.599
30752WAT      O92497   0.403   5.641   5.336
30752WAT     H192498   0.331   5.697   5.294
30752WAT     H292499   0.450   5.589   5.265
30753WAT      O92500   9.794   3.636   0.735
30753WAT     H192501   9.820   3.618   0.830
30753WAT     H292502   9.736   3.562   0.701
30754WAT      O92503   1.838   0.542   4.898
30754WAT     H192504   1.768   0.560   4.829
30754WAT     H292505   1.927   0.573   4.865
30755WAT      O92506   0.569   5.327   5.449
30755WAT     H192507   0.630   5.347   5.527
30755WAT     H292508   0.529   5.412   5.416
30756WAT      O92509   3.653   6.610   5.013
30756WAT     H192510   3.713   6.617   5.093
30756WAT     H292511   3.572   6.557   5.037
30757WAT      O92512   2.073   2.166   8.411
30757WAT     H192513   2.082   2.110   8.494
30757WAT     H292514   1.977   2.167   8.383
30758WAT      O92515   8.336   4.395   7.483
30758WAT     H192516   8.431   4.419   7.502
30758WAT     H292517   8.310   4.433   7.394
30759WAT      O92518   4.944   7.011   3.054
30759WAT     H192519   4.985   6.970   2.973
30759WAT     H292520   5.015   7.020   3.125
30760WAT      O92521   7.650   5.146   9.550
30760WAT     H192522   7.644   5.238   9.511
30760WAT     H292523   7.592   5.084   9.496
30761WAT      O92524   5.651   3.437   7.726
30761WAT     H192525   5.735   3.482   7.697
30761WAT     H292526   5.673   3.353   7.776
30762WAT      O92527   8.912   7.405   6.030
30762WAT     H192528   8.921   7.305   6.031
30762WAT     H292529   8.825   7.431   6.072
30763WAT      O92530   8.439   4.979   8.499
30763WAT     H192531   8.364   4.969   8.564
30763WAT     H292532   8.440   4.902   8.436
30764WAT      O92533   8.018   4.333   6.533
30764WAT     H192534   8.093   4.359   6.595
30764WAT     H292535   7.961   4.264   6.577
30765WAT      O92536   7.101   5.856   4.500
30765WAT     H192537   7.086   5.941   4.449
30765WAT     H292538   7.196   5.852   4.531
30766WAT      O92539   8.976   0.510   6.266
30766WAT     H192540   8.897   0.559   6.231
30766WAT     H292541   9.021   0.460   6.192
30767WAT      O92542   0.537   8.204   1.596
30767WAT     H192543   0.564   8.298   1.618
30767WAT     H292544   0.518   8.198   1.498
30768WAT      O92545   1.563   4.144   3.953
30768WAT     H192546   1.646   4.133   4.007
30768WAT     H292547   1.581   4.207   3.877
30769WAT      O92548   6.428   0.081   5.949
30769WAT     H192549   6.513   0.035   5.922
30769WAT     H292550   6.360   0.012   5.976
30770WAT      O92551   8.652   0.505   4.642
30770WAT     H192552   8.590   0.432   4.614
30770WAT     H292553   8.736   0.500   4.587
30771WAT      O92554   2.494   5.059   7.688
30771WAT     H192555   2.532   5.108   7.766
30771WAT     H292556   2.404   5.096   7.664
30772WAT      O92557   7.271   0.556   3.981
30772WAT     H192558   7.303   0.540   4.074
30772WAT     H292559   7.213   0.480   3.952
30773WAT      O92560   6.046   0.941   3.695
30773WAT     H192561   6.127   0.942   3.636
30773WAT     H292562   6.054   0.867   3.762
30774WAT      O92563   8.921   7.063   4.443
30774WAT     H192564   8.999   7.017   4.485
30774WAT     H292565   8.952   7.112   4.361
30775WAT      O92566   1.540   1.743   0.699
30775WAT     H192567   1.542   1.796   0.784
30775WAT     H292568   1.447   1.710   0.683
30776WAT      O92569   6.745   9.784   4.721
30776WAT     H192570   6.833   9.819   4.751
30776WAT     H292571   6.712   9.715   4.786
30777WAT      O92572   8.353   0.103   0.198
30777WAT     H192573   8.346   0.106   0.298
30777WAT     H292574   8.449   0.092   0.172
30778WAT      O92575   7.847   7.116   0.937
30778WAT     H192576   7.851   7.046   1.009
30778WAT     H292577   7.765   7.172   0.950
30779WAT      O92578   3.641   8.886   0.139
30779WAT     H192579   3.700   8.815   0.103
30779WAT     H292580   3.545   8.859   0.127
30780WAT      O92581   6.484   7.879   6.691
30780WAT     H192582   6.427   7.864   6.610
30780WAT     H292583   6.568   7.826   6.683
30781WAT      O92584   6.241   8.323   3.468
30781WAT     H192585   6.288   8.303   3.382
30781WAT     H292586   6.146   8.347   3.449
30782WAT      O92587   1.164   7.722   0.891
30782WAT     H192588   1.146   7.769   0.804
30782WAT     H292589   1.182   7.790   0.962
30783WAT      O92590   0.894   5.173   4.958
30783WAT     H192591   0.869   5.261   4.916
30783WAT     H292592   0.879   5.178   5.057
30784WAT      O92593   7.068   1.396   1.619
30784WAT     H192594   7.112   1.467   1.564
30784WAT     H292595   7.138   1.341   1.665
30785WAT      O92596   4.409   4.812   4.451
30785WAT     H192597   4.499   4.843   4.418
30785WAT     H292598   4.373   4.742   4.389
30786WAT      O92599   8.989   8.650   7.543
30786WAT     H192600   8.983   8.737   7.591
30786WAT     H292601   9.003   8.666   7.445
30787WAT      O92602   9.569   1.321   5.267
30787WAT     H192603   9.623   1.236   5.273
30787WAT     H292604   9.548   1.340   5.171
30788WAT      O92605   0.318   6.902   8.786
30788WAT     H192606   0.298   6.983   8.730
30788WAT     H292607   0.273   6.823   8.746
30789WAT      O92608   9.791   1.557   7.013
30789WAT     H192609   9.877   1.517   7.044
30789WAT     H292610   9.748   1.496   6.946
30790WAT      O92611   4.980   3.014   6.062
30790WAT     H192612   4.970   3.091   6.124
30790WAT     H292613   5.040   3.039   5.986
30791WAT      O92614   6.580   6.707   6.968
30791WAT     H192615   6.506   6.647   7.001
30791WAT     H292616   6.663   6.690   7.021
30792WAT      O92617   5.193   3.115   8.105
30792WAT     H192618   5.220   3.029   8.148
30792WAT     H292619   5.099   3.137   8.132
30793WAT      O92620   7.153   4.428   3.764
30793WAT     H192621   7.225   4.369   3.799
30793WAT     H292622   7.064   4.385   3.781
30794WAT      O92623   1.960   9.049   2.956
30794WAT     H192624   1.941   8.966   3.009
30794WAT     H292625   1.963   9.128   3.017
30795WAT      O92626   5.661   4.006   4.035
30795WAT     H192627   5.631   4.087   4.084
30795WAT     H292628   5.663   3.928   4.098
30796WAT      O92629   0.478   9.004   6.605
30796WAT     H192630   0.521   8.922   6.567
30796WAT     H292631   0.459   8.988   6.702
30797WAT      O92632   1.127   9.702   9.709
30797WAT     H192633   1.046   9.676   9.761
30797WAT     H292634   1.207   9.700   9.769
30798WAT      O92635   1.748   9.399   9.790
30798WAT     H192636   1.724   9.489   9.752
30798WAT     H292637   1.834   9.406   9.840
30799WAT      O92638   0.141   1.507   9.395
30799WAT     H192639   0.147   1.500   9.495
30799WAT     H292640   0.147   1.416   9.355
30800WAT      O92641   8.924   1.620   3.322
30800WAT     H192642   8.883   1.536   3.357
30800WAT     H292643   8.974   1.600   3.237
30801WAT      O92644   4.140   5.814   6.789
30801WAT     H192645   4.158   5.778   6.881
30801WAT     H292646   4.133   5.914   6.793
30802WAT      O92647   8.320   8.520   8.657
30802WAT     H192648   8.335   8.431   8.700
30802WAT     H292649   8.403   8.576   8.666
30803WAT      O92650   9.307   0.534   9.745
30803WAT     H192651   9.360   0.571   9.822
30803WAT     H292652   9.343   0.571   9.659
30804WAT      O92653   5.120   1.982   6.588
30804WAT     H192654   5.056   1.936   6.650
30804WAT     H292655   5.156   1.916   6.523
30805WAT      O92656   8.527   1.172   1.400
30805WAT     H192657   8.460   1.125   1.342
30805WAT     H292658   8.618   1.163   1.359
30806WAT      O92659   3.993   1.838   5.574
30806WAT     H192660   4.052   1.843   5.654
30806WAT     H292661   4.040   1.874   5.494
30807WAT      O92662   7.324   5.398   1.959
30807WAT     H192663   7.298   5.304   1.937
30807WAT     H292664   7.242   5.455   1.962
30808WAT      O92665   5.451   7.387   3.233
30808WAT     H192666   5.498   7.439   3.304
30808WAT     H292667   5.468   7.431   3.144
30809WAT      O92668   1.830   7.925   6.206
30809WAT     H192669   1.850   7.839   6.254
30809WAT     H292670   1.872   8.001   6.256
30810WAT      O92671   3.973   7.107   8.291
30810WAT     H192672   3.919   7.128   8.372
30810WAT     H292673   3.924   7.141   8.210
30811WAT      O92674   8.040   2.988   2.703
30811WAT     H192675   8.136   2.967   2.685
30811WAT     H292676   8.030   3.085   2.726
30812WAT      O92677   0.720   7.989   2.170
30812WAT     H192678   0.750   8.038   2.088
30812WAT     H292679   0.620   7.984   2.171
30813WAT      O92680   8.399   8.758   0.542
30813WAT     H192681   8.330   8.830   0.555
30813WAT     H292682   8.459   8.783   0.466
30814WAT      O92683   6.207   1.677   5.160
30814WAT     H192684   6.263   1.595   5.171
30814WAT     H292685   6.180   1.687   5.064
30815WAT      O92686   0.068   4.359   6.643
30815WAT     H192687  -0.017   4.309   6.662
30815WAT     H292688   0.049   4.457   6.641
30816WAT      O92689   2.863   4.240   0.212
30816WAT     H192690   2.907   4.328   0.195
30816WAT     H292691   2.807   4.215   0.133
30817WAT      O92692   6.750   3.486   1.838
30817WAT     H192693   6.779   3.502   1.933
30817WAT     H292694   6.820   3.433   1.791
30818WAT      O92695   3.616   7.541   4.263
30818WAT     H192696   3.527   7.587   4.267
30818WAT     H292697   3.626   7.495   4.175
30819WAT      O92698   6.511   9.119   4.023
30819WAT     H192699   6.494   9.189   4.093
30819WAT     H292700   6.446   9.130   3.949
30820WAT      O92701   1.365   0.168   8.063
30820WAT     H192702   1.331   0.148   8.155
30820WAT     H292703   1.365   0.267   8.048
30821WAT      O92704   7.405   9.259   9.761
30821WAT     H192705   7.480   9.221   9.707
30821WAT     H292706   7.426   9.250   9.859
30822WAT      O92707   2.816   4.646   6.047
30822WAT     H192708   2.727   4.667   6.088
30822WAT     H292709   2.820   4.686   5.956
30823WAT      O92710   6.905   5.667   6.973
30823WAT     H192711   6.849   5.728   7.028
30823WAT     H292712   6.875   5.669   6.878
30824WAT      O92713   8.304   4.884   5.722
30824WAT     H192714   8.306   4.925   5.630
30824WAT     H292715   8.217   4.906   5.766
30825WAT      O92716   1.659   1.819   8.324
30825WAT     H192717   1.693   1.859   8.409
30825WAT     H292718   1.625   1.892   8.264
30826WAT      O92719   3.087   5.065   3.386
30826WAT     H192720   3.070   4.989   3.448
30826WAT     H292721   3.171   5.048   3.335
30827WAT      O92722   0.817   2.615   8.634
30827WAT     H192723   0.824   2.686   8.704
30827WAT     H292724   0.788   2.656   8.548
30828WAT      O92725   1.037   2.405   4.398
30828WAT     H192726   1.009   2.500   4.384
30828WAT     H292727   0.959   2.352   4.432
30829WAT      O92728   5.515   2.831   7.549
30829WAT     H192729   5.563   2.919   7.546
30829WAT     H292730   5.494   2.801   7.456
30830WAT      O92731   2.321   4.999   8.002
30830WAT     H192732   2.394   4.938   7.969
30830WAT     H292733   2.319   4.996   8.102
30831WAT      O92734   0.441   1.123   8.386
30831WAT     H192735   0.344   1.105   8.404
30831WAT     H292736   0.463   1.216   8.415
30832WAT      O92737   9.687   9.387   1.266
30832WAT     H192738   9.721   9.478   1.289
30832WAT     H292739   9.655   9.386   1.171
30833WAT      O92740   1.770   3.351   6.897
30833WAT     H192741   1.763   3.297   6.813
30833WAT     H292742   1.786   3.446   6.874
30834WAT      O92743   5.954   1.273   6.456
30834WAT     H192744   5.956   1.186   6.407
30834WAT     H292745   6.004   1.264   6.542
30835WAT      O92746   6.299   3.935   2.971
30835WAT     H192747   6.310   3.883   2.886
30835WAT     H292748   6.297   4.033   2.950
30836WAT      O92749   2.022   1.739   6.234
30836WAT     H192750   2.036   1.822   6.287
30836WAT     H292751   2.028   1.759   6.136
30837WAT      O92752   4.125   0.529   1.302
30837WAT     H192753   4.124   0.528   1.402
30837WAT     H292754   4.121   0.434   1.268
30838WAT      O92755   4.921   0.407   9.778
30838WAT     H192756   4.993   0.457   9.730
30838WAT     H292757   4.924   0.311   9.753
30839WAT      O92758   2.294   5.970   9.012
30839WAT     H192759   2.353   5.944   9.088
30839WAT     H292760   2.256   6.061   9.028
30840WAT      O92761   3.563   7.199   3.368
30840WAT     H192762   3.499   7.132   3.406
30840WAT     H292763   3.553   7.286   3.416
30841WAT      O92764   7.816   5.066   1.255
30841WAT     H192765   7.892   5.030   1.308
30841WAT     H292766   7.741   5.092   1.316
30842WAT      O92767   3.105   5.661   2.461
30842WAT     H192768   3.011   5.692   2.476
30842WAT     H292769   3.134   5.686   2.369
30843WAT      O92770   4.504   3.349   6.696
30843WAT     H192771   4.498   3.398   6.782
30843WAT     H292772   4.591   3.371   6.651
30844WAT      O92773   2.865   3.378   4.312
30844WAT     H192774   2.826   3.455   4.362
30844WAT     H292775   2.815   3.295   4.334
30845WAT      O92776   3.738   4.698   4.845
30845WAT     H192777   3.689   4.627   4.896
30845WAT     H292778   3.755   4.776   4.905
30846WAT      O92779   5.773   2.726   1.055
30846WAT     H192780   5.805   2.633   1.073
30846WAT     H292781   5.805   2.787   1.129
30847WAT      O92782   4.346   0.841   1.205
30847WAT     H192783   4.331   0.907   1.132
30847WAT     H292784   4.262   0.788   1.221
30848WAT      O92785   1.030   6.853   7.137
30848WAT     H192786   0.985   6.917   7.199
30848WAT     H292787   0.994   6.761   7.152
30849WAT      O92788   9.782   2.832   3.300
30849WAT     H192789   9.845   2.758   3.322
30849WAT     H292790   9.695   2.793   3.269
30850WAT      O92791   4.769   3.678   3.440
30850WAT     H192792   4.824   3.699   3.359
30850WAT     H292793   4.781   3.751   3.507
30851WAT      O92794   9.540   3.708   3.190
30851WAT     H192795   9.508   3.798   3.220
30851WAT     H292796   9.636   3.714   3.162
30852WAT      O92797   2.099   4.469   4.603
30852WAT     H192798   2.043   4.529   4.661
30852WAT     H292799   2.125   4.518   4.520
30853WAT      O92800   7.262   4.100   3.477
30853WAT     H192801   7.298   4.018   3.523
30853WAT     H292802   7.336   4.143   3.425
30854WAT      O92803   7.412   0.795   2.569
30854WAT     H192804   7.361   0.751   2.643
30854WAT     H292805   7.354   0.862   2.523
30855WAT      O92806   9.432   5.247   3.691
30855WAT     H192807   9.466   5.155   3.710
30855WAT     H292808   9.390   5.285   3.773
30856WAT      O92809   2.592   0.546   9.747
30856WAT     H192810   2.540   0.472   9.791
30856WAT     H292811   2.552   0.566   9.658
30857WAT      O92812   2.206   8.978   2.069
30857WAT     H192813   2.248   8.910   2.128
30857WAT     H292814   2.184   8.936   1.980
30858WAT      O92815   7.484   3.809   9.794
30858WAT     H192816   7.557   3.758   9.749
30858WAT     H292817   7.476   3.899   9.752
30859WAT      O92818   6.377   9.835   3.656
30859WAT     H192819   6.331   9.832   3.567
30859WAT     H292820   6.385   9.742   3.692
30860WAT      O92821   8.087   7.963   3.081
30860WAT     H192822   8.127   7.977   2.990
30860WAT     H292823   8.018   8.033   3.098
30861WAT      O92824   3.749   5.296   8.590
30861WAT     H192825   3.716   5.308   8.497
30861WAT     H292826   3.715   5.371   8.647
30862WAT      O92827   4.417   5.324   7.307
30862WAT     H192828   4.442   5.292   7.216
30862WAT     H292829   4.484   5.392   7.338
30863WAT      O92830   3.232   7.530   3.390
30863WAT     H192831   3.195   7.454   3.444
30863WAT     H292832   3.262   7.496   3.302
30864WAT      O92833   6.244   5.867   2.949
30864WAT     H192834   6.273   5.876   2.853
30864WAT     H292835   6.218   5.957   2.984
30865WAT      O92836   0.279   4.231   8.459
30865WAT     H192837   0.369   4.209   8.497
30865WAT     H292838   0.263   4.176   8.378
30866WAT      O92839   8.171   0.894   9.664
30866WAT     H192840   8.079   0.885   9.627
30866WAT     H292841   8.230   0.824   9.624
30867WAT      O92842   5.777   3.480   5.095
30867WAT     H192843   5.711   3.421   5.049
30867WAT     H292844   5.733   3.567   5.119
30868WAT      O92845   1.325   6.099   6.609
30868WAT     H192846   1.376   6.014   6.598
30868WAT     H292847   1.227   6.080   6.604
30869WAT      O92848   6.832   3.756   4.138
30869WAT     H192849   6.862   3.712   4.223
30869WAT     H292850   6.834   3.689   4.064
30870WAT      O92851   6.642   2.256   3.895
30870WAT     H192852   6.728   2.288   3.856
30870WAT     H292853   6.594   2.199   3.829
30871WAT      O92854   5.856   7.139   9.635
30871WAT     H192855   5.774   7.082   9.645
30871WAT     H292856   5.847   7.220   9.692
30872WAT      O92857   5.877   6.448   6.086
30872WAT     H192858   5.912   6.364   6.044
30872WAT     H292859   5.925   6.527   6.047
30873WAT      O92860   3.967   1.471   6.100
30873WAT     H192861   4.066   1.487   6.094
30873WAT     H292862   3.924   1.549   6.145
30874WAT      O92863   0.316   2.790   4.619
30874WAT     H192864   0.411   2.779   4.591
30874WAT     H292865   0.311   2.846   4.702
30875WAT      O92866   1.353   2.578   0.238
30875WAT     H192867   1.378   2.496   0.289
30875WAT     H292868   1.343   2.655   0.301
30876WAT      O92869   8.908   3.255   8.404
30876WAT     H192870   8.902   3.330   8.470
30876WAT     H292871   8.816   3.222   8.384
30877WAT      O92872   4.106   2.082   4.014
30877WAT     H192873   4.137   1.992   4.044
30877WAT     H292874   4.010   2.077   3.987
30878WAT      O92875   6.474   2.525   1.062
30878WAT     H192876   6.550   2.585   1.036
30878WAT     H292877   6.428   2.562   1.143
30879WAT      O92878   3.070   1.367   2.254
30879WAT     H192879   2.987   1.320   2.223
30879WAT     H292880   3.055   1.404   2.346
30880WAT      O92881   9.798   5.924   9.455
30880WAT     H192882   9.775   5.938   9.551
30880WAT     H292883   9.789   6.010   9.405
30881WAT      O92884   6.548   8.318   5.832
30881WAT     H192885   6.548   8.416   5.853
30881WAT     H292886   6.461   8.293   5.789
30882WAT      O92887   6.544   4.763   7.237
30882WAT     H192888   6.503   4.854   7.243
30882WAT     H292889   6.525   4.724   7.147
30883WAT      O92890   2.847   1.675   9.278
30883WAT     H192891   2.798   1.680   9.366
30883WAT     H292892   2.944   1.693   9.293
30884WAT      O92893   0.748   8.034   9.136
30884WAT     H192894   0.660   8.066   9.173
30884WAT     H292895   0.757   8.063   9.041
30885WAT      O92896   6.139   2.713   1.687
30885WAT     H192897   6.041   2.702   1.668
30885WAT     H292898   6.188   2.632   1.656
30886WAT      O92899   0.918   4.848   9.357
30886WAT     H192900   0.864   4.931   9.345
30886WAT     H292901   0.881   4.795   9.433
30887WAT      O92902   2.681   2.353   4.445
30887WAT     H192903   2.702   2.340   4.542
30887WAT     H292904   2.683   2.265   4.398
30888WAT      O92905   2.754   6.595   0.467
30888WAT     H192906   2.736   6.686   0.504
30888WAT     H292907   2.852   6.579   0.464
30889WAT      O92908   2.193   8.709   1.596
30889WAT     H192909   2.276   8.673   1.553
30889WAT     H292910   2.120   8.641   1.589
30890WAT      O92911   4.701   6.780   1.448
30890WAT     H192912   4.617   6.764   1.396
30890WAT     H292913   4.742   6.693   1.473
30891WAT      O92914   6.027   1.231   5.928
30891WAT     H192915   6.030   1.172   5.848
30891WAT     H292916   6.020   1.326   5.899
30892WAT      O92917   7.907   7.691   6.371
30892WAT     H192918   7.853   7.763   6.328
30892WAT     H292919   7.935   7.720   6.463
30893WAT      O92920   3.890   1.871   2.605
30893WAT     H192921   3.948   1.888   2.525
30893WAT     H292922   3.835   1.789   2.590
30894WAT      O92923   0.041   7.811   3.466
30894WAT     H192924   0.003   7.864   3.542
30894WAT     H292925  -0.034   7.774   3.412
30895WAT      O92926   8.499   0.435   9.249
30895WAT     H192927   8.547   0.385   9.177
30895WAT     H292928   8.518   0.533   9.239
30896WAT      O92929   5.462   4.174   5.754
30896WAT     H192930   5.450   4.150   5.657
30896WAT     H292931   5.430   4.267   5.769
30897WAT      O92932   5.126   1.599   3.860
30897WAT     H192933   5.165   1.623   3.949
30897WAT     H292934   5.172   1.650   3.788
30898WAT      O92935   7.750   2.265   5.276
30898WAT     H192936   7.737   2.359   5.245
30898WAT     H292937   7.797   2.266   5.364
30899WAT      O92938   1.126   2.622   3.817
30899WAT     H192939   1.072   2.620   3.901
30899WAT     H292940   1.222   2.606   3.839
30900WAT      O92941   7.424   7.204   7.693
30900WAT     H192942   7.378   7.117   7.709
30900WAT     H292943   7.522   7.188   7.679
30901WAT      O92944   3.009   3.620   6.954
30901WAT     H192945   2.982   3.562   6.877
30901WAT     H292946   3.086   3.578   7.002
30902WAT      O92947   2.453   0.955   9.620
30902WAT     H192948   2.522   1.011   9.573
30902WAT     H292949   2.439   0.990   9.712
30903WAT      O92950   0.291   1.455   0.958
30903WAT     H192951   0.388   1.453   0.936
30903WAT     H292952   0.278   1.441   1.056
30904WAT      O92953   6.915   9.185   1.137
30904WAT     H192954   6.956   9.236   1.062
30904WAT     H292955   6.974   9.189   1.217
30905WAT      O92956   2.924   2.368   6.280
30905WAT     H192957   2.971   2.316   6.209
30905WAT     H292958   2.852   2.424   6.239
30906WAT      O92959   3.611   3.990   4.490
30906WAT     H192960   3.571   3.992   4.398
30906WAT     H292961   3.539   3.969   4.557
30907WAT      O92962   1.428   8.977   7.754
30907WAT     H192963   1.352   8.935   7.804
30907WAT     H292964   1.492   9.017   7.819
30908WAT      O92965   1.960   7.402   3.449
30908WAT     H192966   1.945   7.363   3.540
30908WAT     H292967   1.903   7.354   3.382
30909WAT      O92968   0.455   8.330   5.241
30909WAT     H192969   0.360   8.318   5.212
30909WAT     H292970   0.516   8.314   5.164
30910WAT      O92971   4.364   0.213   2.483
30910WAT     H192972   4.451   0.235   2.525
30910WAT     H292973   4.299   0.183   2.553
30911WAT      O92974   2.856   3.716   0.304
30911WAT     H192975   2.875   3.629   0.349
30911WAT     H292976   2.763   3.746   0.327
30912WAT      O92977   7.568   0.946   5.153
30912WAT     H192978   7.581   1.006   5.074
30912WAT     H292979   7.527   0.860   5.123
30913WAT      O92980   1.820   5.948   7.674
30913WAT     H192981   1.908   5.992   7.655
30913WAT     H292982   1.769   6.003   7.740
30914WAT      O92983   1.326   4.484   9.355
30914WAT     H192984   1.340   4.578   9.387
30914WAT     H292985   1.320   4.484   9.255
30915WAT      O92986   2.996   7.502   5.577
30915WAT     H192987   3.015   7.595   5.609
30915WAT     H292988   3.025   7.436   5.647
30916WAT      O92989   5.413   0.880   1.925
30916WAT     H192990   5.496   0.826   1.910
30916WAT     H292991   5.345   0.856   1.856
30917WAT      O92992   7.042   3.003   0.215
30917WAT     H192993   6.982   2.924   0.214
30917WAT     H292994   7.004   3.075   0.156
30918WAT      O92995   2.350   3.832   9.752
30918WAT     H192996   2.365   3.896   9.676
30918WAT     H292997   2.254   3.835   9.780
30919WAT      O92998   1.464   6.826   4.329
30919WAT     H192999   1.473   6.922   4.303
30919WAT     H293000   1.371   6.795   4.307
30920WAT      O93001   6.094   7.314   1.905
30920WAT     H193002   6.074   7.385   1.973
30920WAT     H293003   6.084   7.352   1.813
30921WAT      O93004   1.516   0.999   8.757
30921WAT     H193005   1.607   1.023   8.725
30921WAT     H293006   1.521   0.919   8.817
30922WAT      O93007   3.042   5.627   9.830
30922WAT     H193008   3.027   5.654   9.735
30922WAT     H293009   3.139   5.611   9.846
30923WAT      O93010   3.271   6.556   3.786
30923WAT     H193011   3.304   6.646   3.813
30923WAT     H293012   3.344   6.488   3.801
30924WAT      O93013   2.299   2.737   7.926
30924WAT     H193014   2.352   2.654   7.907
30924WAT     H293015   2.247   2.762   7.844
30925WAT      O93016   8.060   1.662   6.122
30925WAT     H193017   7.979   1.692   6.172
30925WAT     H293018   8.121   1.613   6.185
30926WAT      O93019   9.596   6.277   1.879
30926WAT     H193020   9.695   6.276   1.868
30926WAT     H293021   9.573   6.245   1.971
30927WAT      O93022   4.133   3.033   7.082
30927WAT     H193023   4.214   2.981   7.106
30927WAT     H293024   4.081   3.054   7.166
30928WAT      O93025   9.881   5.141   2.414
30928WAT     H193026   9.842   5.229   2.440
30928WAT     H293027   9.897   5.139   2.315
30929WAT      O93028   2.168   1.930   5.755
30929WAT     H193029   2.135   1.869   5.683
30929WAT     H293030   2.266   1.918   5.767
30930WAT      O93031   9.323   7.401   5.594
30930WAT     H193032   9.401   7.346   5.565
30930WAT     H293033   9.249   7.341   5.624
30931WAT      O93034   6.508   2.312   1.311
30931WAT     H193035   6.481   2.250   1.385
30931WAT     H293036   6.569   2.263   1.248
30932WAT      O93037   8.850   9.552   3.378
30932WAT     H193038   8.914   9.485   3.341
30932WAT     H293039   8.806   9.601   3.303
30933WAT      O93040   9.017   4.192   1.090
30933WAT     H193041   9.032   4.288   1.067
30933WAT     H293042   9.032   4.178   1.188
30934WAT      O93043   3.081   1.821   7.259
30934WAT     H193044   2.983   1.832   7.245
30934WAT     H293045   3.103   1.724   7.270
30935WAT      O93046   0.057   5.754   9.045
30935WAT     H193047  -0.013   5.729   8.978
30935WAT     H293048   0.072   5.678   9.108
30936WAT      O93049   7.042   4.021   8.027
30936WAT     H193050   6.980   4.060   7.959
30936WAT     H293051   7.109   4.091   8.055
30937WAT      O93052   2.544   0.363   2.116
30937WAT     H193053   2.512   0.271   2.138
30937WAT     H293054   2.522   0.425   2.191
30938WAT      O93055   8.252   8.248   0.447
30938WAT     H193056   8.174   8.253   0.383
30938WAT     H293057   8.323   8.190   0.408
30939WAT      O93058   4.230   2.754   8.302
30939WAT     H193059   4.189   2.675   8.257
30939WAT     H293060   4.160   2.825   8.314
30940WAT      O93061   5.891   2.061   4.410
30940WAT     H193062   5.858   1.970   4.387
30940WAT     H293063   5.818   2.114   4.453
30941WAT      O93064   5.882   7.872   0.369
30941WAT     H193065   5.783   7.879   0.355
30941WAT     H293066   5.915   7.952   0.418
30942WAT      O93067   5.431   6.043   8.821
30942WAT     H193068   5.335   6.041   8.850
30942WAT     H293069   5.488   6.070   8.899
30943WAT      O93070   5.469   5.967   3.355
30943WAT     H193071   5.526   5.888   3.375
30943WAT     H293072   5.526   6.041   3.318
30944WAT      O93073   7.523   8.778   3.825
30944WAT     H193074   7.445   8.719   3.805
30944WAT     H293075   7.607   8.724   3.828
30945WAT      O93076   6.140   9.741   2.468
30945WAT     H193077   6.160   9.830   2.509
30945WAT     H293078   6.222   9.707   2.421
30946WAT      O93079   3.837   3.519   7.231
30946WAT     H193080   3.877   3.438   7.187
30946WAT     H293081   3.885   3.601   7.200
30947WAT      O93082   1.803   0.580   6.012
30947WAT     H193083   1.850   0.640   5.947
30947WAT     H293084   1.819   0.613   6.105
30948WAT      O93085   6.152   1.109   4.632
30948WAT     H193086   6.097   1.026   4.642
30948WAT     H293087   6.128   1.155   4.547
30949WAT      O93088   6.834   6.700   9.166
30949WAT     H193089   6.787   6.785   9.145
30949WAT     H293090   6.859   6.653   9.081
30950WAT      O93091   8.222   7.671   3.382
30950WAT     H193092   8.224   7.588   3.437
30950WAT     H293093   8.135   7.719   3.398
30951WAT      O93094   6.896   6.386   2.025
30951WAT     H193095   6.924   6.395   1.930
30951WAT     H293096   6.918   6.470   2.074
30952WAT      O93097   0.874   0.162   6.814
30952WAT     H193098   0.798   0.221   6.842
30952WAT     H293099   0.959   0.213   6.819
30953WAT      O93100   1.559   5.566   6.924
30953WAT     H193101   1.487   5.623   6.964
30953WAT     H293102   1.575   5.595   6.830
30954WAT      O93103   5.346   4.685   3.255
30954WAT     H193104   5.277   4.749   3.222
30954WAT     H293105   5.322   4.655   3.348
30955WAT      O93106   0.063   0.094   4.453
30955WAT     H193107   0.072   0.193   4.464
30955WAT     H293108   0.130   0.061   4.387
30956WAT      O93109   1.581   8.234   3.346
30956WAT     H193110   1.629   8.147   3.356
30956WAT     H293111   1.555   8.268   3.436
30957WAT      O93112   7.012   1.689   6.554
30957WAT     H193113   7.002   1.737   6.467
30957WAT     H293114   7.092   1.724   6.602
30958WAT      O93115   0.894   4.056   6.230
30958WAT     H193116   0.924   4.051   6.325
30958WAT     H293117   0.795   4.042   6.226
30959WAT      O93118   5.757   0.528   8.512
30959WAT     H193119   5.705   0.513   8.428
30959WAT     H293120   5.696   0.564   8.582
30960WAT      O93121   2.113   0.893   8.298
30960WAT     H193122   2.023   0.858   8.271
30960WAT     H293123   2.105   0.944   8.383
30961WAT      O93124   7.779   5.381   7.978
30961WAT     H193125   7.778   5.291   7.933
30961WAT     H293126   7.739   5.449   7.917
30962WAT      O93127   8.374   6.880   4.033
30962WAT     H193128   8.289   6.898   4.083
30962WAT     H293129   8.451   6.879   4.098
30963WAT      O93130   3.665   3.067   0.555
30963WAT     H193131   3.646   3.165   0.562
30963WAT     H293132   3.701   3.034   0.643
30964WAT      O93133   2.131   0.926   9.290
30964WAT     H193134   2.101   0.831   9.292
30964WAT     H293135   2.211   0.935   9.230
30965WAT      O93136   6.657   3.682   7.607
30965WAT     H193137   6.661   3.781   7.600
30965WAT     H293138   6.749   3.644   7.604
30966WAT      O93139   8.073   2.253   6.633
30966WAT     H193140   8.097   2.175   6.575
30966WAT     H293141   8.094   2.338   6.584
30967WAT      O93142   8.412   7.234   8.430
30967WAT     H193143   8.371   7.313   8.385
30967WAT     H293144   8.385   7.232   8.527
30968WAT      O93145   2.492   8.997   3.481
30968WAT     H193146   2.526   9.061   3.550
30968WAT     H293147   2.438   9.046   3.413
30969WAT      O93148   8.359   6.046   8.989
30969WAT     H193149   8.421   5.984   9.037
30969WAT     H293150   8.264   6.022   9.011
30970WAT      O93151   0.372   0.305   7.940
30970WAT     H193152   0.407   0.243   7.870
30970WAT     H293153   0.371   0.398   7.904
30971WAT      O93154   2.803   1.556   3.255
30971WAT     H193155   2.733   1.528   3.321
30971WAT     H293156   2.765   1.625   3.193
30972WAT      O93157   1.610   3.781   2.957
30972WAT     H193158   1.600   3.858   2.893
30972WAT     H293159   1.574   3.698   2.915
30973WAT      O93160   0.690   1.089   7.877
30973WAT     H193161   0.660   1.097   7.782
30973WAT     H293162   0.726   1.177   7.909
30974WAT      O93163   4.464   0.181   1.133
30974WAT     H193164   4.538   0.147   1.074
30974WAT     H293165   4.439   0.109   1.198
30975WAT      O93166   3.393   6.261   5.451
30975WAT     H193167   3.352   6.258   5.360
30975WAT     H293168   3.476   6.206   5.453
30976WAT      O93169   3.724   5.946   1.321
30976WAT     H193170   3.780   5.864   1.335
30976WAT     H293171   3.663   5.931   1.243
30977WAT      O93172   8.176   2.118   6.039
30977WAT     H193173   8.180   2.075   5.949
30977WAT     H293174   8.172   2.046   6.109
30978WAT      O93175   4.009   2.852   4.760
30978WAT     H193176   3.986   2.773   4.704
30978WAT     H293177   4.028   2.822   4.854
30979WAT      O93178   6.511   8.764   8.679
30979WAT     H193179   6.448   8.694   8.646
30979WAT     H293180   6.598   8.722   8.704
30980WAT      O93181   6.610   6.162   2.560
30980WAT     H193182   6.676   6.237   2.553
30980WAT     H293183   6.640   6.085   2.505
30981WAT      O93184   6.976   4.984   6.414
30981WAT     H193185   6.889   4.936   6.409
30981WAT     H293186   6.990   5.037   6.330
30982WAT      O93187   5.159   0.210   1.542
30982WAT     H193188   5.228   0.282   1.551
30982WAT     H293189   5.127   0.206   1.448
30983WAT      O93190   6.237   0.036   2.713
30983WAT     H193191   6.290  -0.040   2.751
30983WAT     H293192   6.142   0.028   2.743
30984WAT      O93193   1.288   2.760   2.111
30984WAT     H193194   1.243   2.754   2.200
30984WAT     H293195   1.266   2.848   2.069
30985WAT      O93196   4.894   8.325   8.387
30985WAT     H193197   4.951   8.278   8.320
30985WAT     H293198   4.952   8.360   8.460
30986WAT      O93199   9.513   4.657   4.296
30986WAT     H193200   9.612   4.644   4.298
30986WAT     H293201   9.484   4.681   4.203
30987WAT      O93202   6.364   4.274   3.650
30987WAT     H193203   6.316   4.188   3.667
30987WAT     H293204   6.390   4.280   3.553
30988WAT      O93205   6.317   1.575   6.863
30988WAT     H193206   6.223   1.545   6.847
30988WAT     H293207   6.348   1.631   6.786
30989WAT      O93208   7.100   3.607   7.369
30989WAT     H193209   7.137   3.518   7.343
30989WAT     H293210   7.174   3.668   7.397
30990WAT      O93211   0.086   5.315   9.814
30990WAT     H193212   0.176   5.277   9.835
30990WAT     H293213   0.018   5.273   9.874
30991WAT      O93214   0.017   1.547   3.579
30991WAT     H193215  -0.076   1.534   3.547
30991WAT     H293216   0.034   1.491   3.660
30992WAT      O93217   8.487   4.695   9.719
30992WAT     H193218   8.401   4.742   9.700
30992WAT     H293219   8.482   4.601   9.685
30993WAT      O93220   7.704   3.545   3.119
30993WAT     H193221   7.740   3.478   3.184
30993WAT     H293222   7.639   3.605   3.166
30994WAT      O93223   5.150   9.205   5.137
30994WAT     H193224   5.052   9.197   5.119
30994WAT     H293225   5.194   9.117   5.120
30995WAT      O93226   3.183   5.471   6.103
30995WAT     H193227   3.104   5.418   6.134
30995WAT     H293228   3.238   5.497   6.182
30996WAT      O93229   7.931   6.716   0.372
30996WAT     H193230   7.922   6.813   0.354
30996WAT     H293231   7.976   6.671   0.295
30997WAT      O93232   8.588   3.195   8.037
30997WAT     H193233   8.652   3.147   7.977
30997WAT     H293234   8.514   3.233   7.982
30998WAT      O93235   3.250   2.795   7.928
30998WAT     H193236   3.324   2.727   7.931
30998WAT     H293237   3.166   2.752   7.894
30999WAT      O93238   8.118   0.482   6.318
30999WAT     H193239   8.081   0.403   6.365
30999WAT     H293240   8.214   0.467   6.295
31000WAT      O93241   8.109   0.928   4.732
31000WAT     H193242   8.157   0.982   4.800
31000WAT     H293243   8.017   0.965   4.718
31001WAT      O93244   0.507   2.693   1.083
31001WAT     H193245   0.566   2.625   1.126
31001WAT     H293246   0.496   2.671   0.987
31002WAT      O93247   2.457   8.455   8.224
31002WAT     H193248   2.400   8.433   8.144
31002WAT     H293249   2.399   8.468   8.304
31003WAT      O93250   6.918   8.275   7.600
31003WAT     H193251   7.007   8.277   7.554
31003WAT     H293252   6.877   8.366   7.600
31004WAT      O93253   3.776   5.582   5.515
31004WAT     H193254   3.821   5.540   5.594
31004WAT     H293255   3.677   5.568   5.522
31005WAT      O93256   4.354   5.534   8.556
31005WAT     H193257   4.371   5.626   8.592
31005WAT     H293258   4.257   5.523   8.538
31006WAT      O93259   2.400   6.437   3.136
31006WAT     H193260   2.352   6.516   3.097
31006WAT     H293261   2.339   6.358   3.136
31007WAT      O93262   9.442   9.043   0.921
31007WAT     H193263   9.374   9.079   0.857
31007WAT     H293264   9.422   9.077   1.013
31008WAT      O93265   3.396   5.584   4.856
31008WAT     H193266   3.470   5.558   4.793
31008WAT     H293267   3.425   5.566   4.949
31009WAT      O93268   6.183   8.032   1.079
31009WAT     H193269   6.121   7.969   1.032
31009WAT     H293270   6.265   7.983   1.108
31010WAT      O93271   7.066   8.892   2.040
31010WAT     H193272   7.163   8.892   2.016
31010WAT     H293273   7.056   8.897   2.139
31011WAT      O93274   9.496   8.644   9.087
31011WAT     H193275   9.538   8.553   9.086
31011WAT     H293276   9.400   8.637   9.060
31012WAT      O93277   7.317   8.326   0.725
31012WAT     H193278   7.296   8.393   0.796
31012WAT     H293279   7.328   8.372   0.638
31013WAT      O93280   6.374   6.570   7.116
31013WAT     H193281   6.340   6.500   7.179
31013WAT     H293282   6.298   6.614   7.069
31014WAT      O93283   7.671   9.206   6.982
31014WAT     H193284   7.605   9.205   7.057
31014WAT     H293285   7.679   9.114   6.944
31015WAT      O93286   0.001   9.690   2.893
31015WAT     H193287   0.087   9.675   2.942
31015WAT     H293288  -0.003   9.784   2.861
31016WAT      O93289   8.814   3.008   4.351
31016WAT     H193290   8.835   3.070   4.426
31016WAT     H293291   8.767   3.058   4.278
31017WAT      O93292   6.250   8.466   9.026
31017WAT     H193293   6.223   8.378   8.988
31017WAT     H293294   6.174   8.506   9.076
31018WAT      O93295   5.337   0.444   1.538
31018WAT     H193296   5.262   0.498   1.576
31018WAT     H293297   5.365   0.484   1.451
31019WAT      O93298   2.126   8.549   5.906
31019WAT     H193299   2.199   8.493   5.867
31019WAT     H293300   2.038   8.513   5.879
31020WAT      O93301   2.830   5.942   9.527
31020WAT     H193302   2.834   6.042   9.524
31020WAT     H293303   2.744   5.910   9.488
31021WAT      O93304   0.378   3.007   2.558
31021WAT     H193305   0.345   3.046   2.471
31021WAT     H293306   0.444   3.070   2.599
31022WAT      O93307   5.560   6.772   2.530
31022WAT     H193308   5.576   6.861   2.487
31022WAT     H293309   5.631   6.756   2.600
31023WAT      O93310   6.213   5.514   7.779
31023WAT     H193311   6.243   5.418   7.780
31023WAT     H293312   6.146   5.529   7.851
31024WAT      O93313   7.336   6.646   4.849
31024WAT     H193314   7.416   6.677   4.797
31024WAT     H293315   7.298   6.565   4.805
31025WAT      O93316   2.573   9.497   0.143
31025WAT     H193317   2.519   9.563   0.089
31025WAT     H293318   2.579   9.411   0.093
31026WAT      O93319   7.406   4.955   8.029
31026WAT     H193320   7.471   4.935   7.956
31026WAT     H293321   7.412   4.883   8.098
31027WAT      O93322   2.016   5.676   5.423
31027WAT     H193323   1.928   5.710   5.457
31027WAT     H293324   2.090   5.712   5.480
31028WAT      O93325   7.454   2.834   7.376
31028WAT     H193326   7.422   2.923   7.410
31028WAT     H293327   7.451   2.834   7.276
31029WAT      O93328   9.546   4.659   5.501
31029WAT     H193329   9.482   4.687   5.572
31029WAT     H293330   9.551   4.729   5.430
31030WAT      O93331   3.110   4.876   3.064
31030WAT     H193332   3.019   4.916   3.073
31030WAT     H293333   3.103   4.776   3.059
31031WAT      O93334   5.867   4.537   2.426
31031WAT     H193335   5.963   4.512   2.431
31031WAT     H293336   5.853   4.625   2.472
31032WAT      O93337   8.486   5.932   4.847
31032WAT     H193338   8.449   5.884   4.926
31032WAT     H293339   8.548   5.872   4.797
31033WAT      O93340   5.358   4.994   8.535
31033WAT     H193341   5.284   4.973   8.471
31033WAT     H293342   5.404   5.078   8.506
31034WAT      O93343   5.311   8.273   2.246
31034WAT     H193344   5.247   8.278   2.323
31034WAT     H293345   5.372   8.353   2.249
31035WAT      O93346   2.193   7.281   1.010
31035WAT     H193347   2.140   7.295   1.094
31035WAT     H293348   2.214   7.370   0.969
31036WAT      O93349   2.080   1.955   2.579
31036WAT     H193350   2.016   1.901   2.524
31036WAT     H293351   2.142   1.893   2.628
31037WAT      O93352   7.026   4.707   1.565
31037WAT     H193353   6.945   4.701   1.505
31037WAT     H293354   7.054   4.615   1.591
31038WAT      O93355   0.848   0.819   2.457
31038WAT     H193356   0.817   0.726   2.440
31038WAT     H293357   0.940   0.816   2.496
31039WAT      O93358   4.150   3.244   5.745
31039WAT     H193359   4.149   3.162   5.803
31039WAT     H293360   4.150   3.325   5.803
31040WAT      O93361   0.500   5.923   7.256
31040WAT     H193362   0.545   5.837   7.230
31040WAT     H293363   0.515   5.991   7.185
31041WAT      O93364   1.723   7.802   2.820
31041WAT     H193365   1.791   7.783   2.891
31041WAT     H293366   1.633   7.812   2.862
31042WAT      O93367   7.210   3.545   1.306
31042WAT     H193368   7.298   3.543   1.258
31042WAT     H293369   7.222   3.586   1.396
31043WAT      O93370   2.379   2.069   8.966
31043WAT     H193371   2.379   2.073   8.866
31043WAT     H293372   2.288   2.091   9.000
31044WAT      O93373   4.196   8.536   8.409
31044WAT     H193374   4.099   8.510   8.408
31044WAT     H293375   4.251   8.459   8.440
31045WAT      O93376   5.773   0.195   5.675
31045WAT     H193377   5.674   0.203   5.677
31045WAT     H293378   5.815   0.283   5.695
31046WAT      O93379   3.316   3.607  -0.001
31046WAT     H193380   3.311   3.659   0.084
31046WAT     H293381   3.379   3.530   0.010
31047WAT      O93382   1.957   6.834   6.007
31047WAT     H193383   2.044   6.878   5.988
31047WAT     H293384   1.884   6.902   6.011
31048WAT      O93385   3.958   4.950   9.813
31048WAT     H193386   3.991   4.862   9.849
31048WAT     H293387   4.036   5.007   9.788
31049WAT      O93388   8.595   0.334   7.360
31049WAT     H193389   8.661   0.345   7.285
31049WAT     H293390   8.503   0.329   7.322
31050WAT      O93391   3.212   0.085   4.665
31050WAT     H193392   3.305   0.066   4.636
31050WAT     H293393   3.152   0.010   4.635
31051WAT      O93394   4.886   7.704   6.907
31051WAT     H193395   4.912   7.642   6.982
31051WAT     H293396   4.923   7.795   6.925
31052WAT      O93397   2.093   4.396   3.043
31052WAT     H193398   2.126   4.490   3.030
31052WAT     H293399   2.076   4.354   2.954
31053WAT      O93400   1.676   4.446   8.587
31053WAT     H193401   1.701   4.543   8.584
31053WAT     H293402   1.656   4.414   8.495
31054WAT      O93403   6.278   9.200   3.856
31054WAT     H193404   6.235   9.253   3.783
31054WAT     H293405   6.226   9.213   3.941
31055WAT      O93406   1.064   4.583   5.132
31055WAT     H193407   1.017   4.509   5.084
31055WAT     H293408   1.112   4.640   5.066
31056WAT      O93409   0.364   9.052   7.071
31056WAT     H193410   0.354   9.094   7.161
31056WAT     H293411   0.286   9.076   7.013
31057WAT      O93412   5.373   0.375   4.205
31057WAT     H193413   5.354   0.357   4.301
31057WAT     H293414   5.450   0.319   4.175
31058WAT      O93415   1.460   9.576   5.611
31058WAT     H193416   1.468   9.525   5.526
31058WAT     H293417   1.526   9.651   5.612
31059WAT      O93418   7.019   4.598   0.765
31059WAT     H193419   6.975   4.685   0.785
31059WAT     H293420   7.116   4.603   0.790
31060WAT      O93421   3.906   6.211   0.791
31060WAT     H193422   3.878   6.234   0.698
31060WAT     H293423   3.850   6.136   0.825
31061WAT      O93424   5.523   9.681   7.980
31061WAT     H193425   5.456   9.641   8.043
31061WAT     H293426   5.607   9.702   8.030
31062WAT      O93427   3.423   4.975   4.182
31062WAT     H193428   3.390   4.915   4.109
31062WAT     H293429   3.346   5.001   4.241
31063WAT      O93430   0.829   5.829   9.458
31063WAT     H193431   0.871   5.747   9.497
31063WAT     H293432   0.738   5.841   9.497
31064WAT      O93433   2.028   4.596   9.309
31064WAT     H193434   2.089   4.566   9.382
31064WAT     H293435   1.994   4.517   9.259
31065WAT      O93436   0.146   4.898   3.840
31065WAT     H193437   0.231   4.878   3.890
31065WAT     H293438   0.072   4.912   3.906
31066WAT      O93439   2.319   3.732   9.089
31066WAT     H193440   2.367   3.814   9.058
31066WAT     H293441   2.264   3.694   9.015
31067WAT      O93442   8.241   7.812   0.035
31067WAT     H193443   8.327   7.859   0.058
31067WAT     H293444   8.164   7.867   0.067
31068WAT      O93445   3.545   9.097   1.535
31068WAT     H193446   3.523   9.072   1.440
31068WAT     H293447   3.484   9.049   1.597
31069WAT      O93448   6.515   5.625   3.173
31069WAT     H193449   6.438   5.683   3.199
31069WAT     H293450   6.599   5.679   3.174
31070WAT      O93451   5.254   4.968   9.677
31070WAT     H193452   5.302   4.907   9.739
31070WAT     H293453   5.274   5.063   9.701
31071WAT      O93454   0.203   1.014   9.367
31071WAT     H193455   0.244   0.924   9.358
31071WAT     H293456   0.175   1.029   9.462
31072WAT      O93457   9.684   4.064   4.546
31072WAT     H193458   9.648   4.032   4.458
31072WAT     H293459   9.738   3.992   4.588
31073WAT      O93460   9.794   7.369   5.681
31073WAT     H193461   9.728   7.303   5.646
31073WAT     H293462   9.879   7.362   5.629
31074WAT      O93463   9.026   2.857   2.893
31074WAT     H193464   8.995   2.764   2.913
31074WAT     H293465   8.969   2.896   2.820
31075WAT      O93466   2.604   7.059   3.862
31075WAT     H193467   2.689   7.013   3.838
31075WAT     H293468   2.533   6.991   3.880
31076WAT      O93469   5.270   0.007   0.500
31076WAT     H193470   5.292   0.025   0.596
31076WAT     H293471   5.336   0.054   0.442
31077WAT      O93472   5.103   5.701   4.571
31077WAT     H193473   5.085   5.772   4.503
31077WAT     H293474   5.166   5.736   4.640
31078WAT      O93475   4.809   1.905   4.501
31078WAT     H193476   4.847   1.997   4.507
31078WAT     H293477   4.724   1.900   4.553
31079WAT      O93478   7.165   8.442   6.179
31079WAT     H193479   7.260   8.466   6.198
31079WAT     H293480   7.155   8.343   6.182
31080WAT      O93481   8.373   8.511   5.415
31080WAT     H193482   8.291   8.559   5.384
31080WAT     H293483   8.354   8.413   5.422
31081WAT      O93484   5.304   7.941   7.157
31081WAT     H193485   5.320   7.913   7.062
31081WAT     H293486   5.307   8.040   7.164
31082WAT      O93487   2.294   1.280   6.448
31082WAT     H193488   2.382   1.262   6.405
31082WAT     H293489   2.272   1.207   6.513
31083WAT      O93490   6.692   5.261   1.815
31083WAT     H193491   6.592   5.254   1.822
31083WAT     H293492   6.717   5.341   1.762
31084WAT      O93493   8.728   9.231   5.483
31084WAT     H193494   8.695   9.140   5.457
31084WAT     H293495   8.650   9.288   5.508
31085WAT      O93496   9.381   9.746   9.683
31085WAT     H193497   9.315   9.685   9.726
31085WAT     H293498   9.412   9.707   9.597
31086WAT      O93499   3.487   1.010   4.071
31086WAT     H193500   3.397   1.053   4.065
31086WAT     H293501   3.511   0.998   4.168
31087WAT      O93502   9.021   8.864   8.950
31087WAT     H193503   9.107   8.835   8.993
31087WAT     H293504   8.971   8.924   9.012
31088WAT      O93505   2.651   4.074   5.706
31088WAT     H193506   2.642   4.169   5.736
31088WAT     H293507   2.683   4.072   5.611
31089WAT      O93508   0.949   9.591   4.648
31089WAT     H193509   0.925   9.588   4.745
31089WAT     H293510   0.888   9.655   4.601
31090WAT      O93511   4.476   3.934   4.534
31090WAT     H193512   4.389   3.983   4.523
31090WAT     H293513   4.465   3.839   4.505
31091WAT      O93514   3.707   7.905   7.815
31091WAT     H193515   3.628   7.861   7.857
31091WAT     H293516   3.680   7.947   7.728
31092WAT      O93517   0.626   3.513   4.515
31092WAT     H193518   0.657   3.475   4.602
31092WAT     H293519   0.550   3.457   4.480
31093WAT      O93520   1.398   4.483   9.054
31093WAT     H193521   1.401   4.462   8.956
31093WAT     H293522   1.412   4.581   9.068
31094WAT      O93523   4.179   8.762   4.344
31094WAT     H193524   4.245   8.833   4.319
31094WAT     H293525   4.103   8.803   4.393
31095WAT      O93526   7.657   5.131   5.526
31095WAT     H193527   7.674   5.050   5.469
31095WAT     H293528   7.722   5.203   5.502
31096WAT      O93529   4.939   2.586   7.202
31096WAT     H193530   4.876   2.664   7.199
31096WAT     H293531   5.001   2.591   7.123
31097WAT      O93532   4.133   3.315   9.846
31097WAT     H193533   4.040   3.289   9.819
31097WAT     H293534   4.146   3.293   9.943
31098WAT      O93535   5.658   8.940   3.018
31098WAT     H193536   5.674   9.031   3.056
31098WAT     H293537   5.738   8.882   3.037
31099WAT      O93538   5.677   1.252   7.833
31099WAT     H193539   5.758   1.200   7.860
31099WAT     H293540   5.614   1.258   7.911
31100WAT      O93541   7.514   1.356   4.294
31100WAT     H193542   7.531   1.331   4.198
31100WAT     H293543   7.601   1.364   4.342
31101WAT      O93544   9.367   0.273   9.124
31101WAT     H193545   9.281   0.319   9.143
31101WAT     H293546   9.357   0.215   9.044
31102WAT      O93547   7.446   7.109   4.471
31102WAT     H193548   7.373   7.177   4.469
31102WAT     H293549   7.497   7.112   4.385
31103WAT      O93550   3.131   5.494   5.710
31103WAT     H193551   3.084   5.406   5.716
31103WAT     H293552   3.107   5.550   5.790
31104WAT      O93553   8.029   6.944   2.591
31104WAT     H193554   8.029   6.845   2.605
31104WAT     H293555   8.123   6.978   2.594
31105WAT      O93556   8.651   8.373   7.237
31105WAT     H193557   8.620   8.396   7.145
31105WAT     H293558   8.679   8.457   7.285
31106WAT      O93559   6.300   6.839   8.589
31106WAT     H193560   6.329   6.752   8.627
31106WAT     H293561   6.364   6.911   8.617
31107WAT      O93562   0.419   1.003   9.042
31107WAT     H193563   0.320   1.018   9.036
31107WAT     H293564   0.437   0.908   9.067
31108WAT      O93565   9.603   7.737   7.109
31108WAT     H193566   9.513   7.697   7.093
31108WAT     H293567   9.669   7.698   7.044
31109WAT      O93568   7.137   4.379   7.254
31109WAT     H193569   7.155   4.475   7.233
31109WAT     H293570   7.169   4.321   7.179
31110WAT      O93571   6.542   8.039   1.711
31110WAT     H193572   6.519   7.954   1.662
31110WAT     H293573   6.632   8.071   1.679
31111WAT      O93574   5.467   6.588   3.638
31111WAT     H193575   5.413   6.612   3.558
31111WAT     H293576   5.562   6.575   3.611
31112WAT      O93577   3.291   2.896   0.224
31112WAT     H193578   3.272   2.946   0.140
31112WAT     H293579   3.323   2.804   0.202
31113WAT      O93580   9.811   7.896   6.622
31113WAT     H193581   9.816   7.964   6.695
31113WAT     H293582   9.857   7.812   6.651
31114WAT      O93583   4.550   1.676   1.275
31114WAT     H193584   4.640   1.651   1.310
31114WAT     H293585   4.561   1.727   1.190
31115WAT      O93586   0.673   6.824   7.312
31115WAT     H193587   0.578   6.854   7.325
31115WAT     H293588   0.724   6.896   7.265
31116WAT      O93589   3.818   5.086   9.279
31116WAT     H193590   3.795   5.060   9.185
31116WAT     H293591   3.743   5.062   9.340
31117WAT      O93592   7.708   3.298   4.415
31117WAT     H193593   7.612   3.273   4.426
31117WAT     H293594   7.715   3.373   4.348
31118WAT      O93595   7.101   8.424   0.289
31118WAT     H193596   7.074   8.486   0.362
31118WAT     H293597   7.179   8.369   0.319
31119WAT      O93598   7.912   2.225   5.486
31119WAT     H193599   7.882   2.191   5.575
31119WAT     H293600   7.998   2.274   5.497
31120WAT      O93601   4.210   5.170   4.164
31120WAT     H193602   4.122   5.214   4.148
31120WAT     H293603   4.272   5.235   4.209
31121WAT      O93604   2.729   7.164   8.139
31121WAT     H193605   2.827   7.155   8.122
31121WAT     H293606   2.678   7.100   8.081
31122WAT      O93607   9.053   7.976   7.516
31122WAT     H193608   8.994   7.896   7.526
31122WAT     H293609   8.996   8.058   7.505
31123WAT      O93610   5.016   3.183   3.115
31123WAT     H193611   4.999   3.274   3.076
31123WAT     H293612   4.930   3.147   3.151
31124WAT      O93613   1.882   8.576   3.313
31124WAT     H193614   1.825   8.516   3.257
31124WAT     H293615   1.883   8.667   3.273
31125WAT      O93616   9.130   8.557   8.675
31125WAT     H193617   9.162   8.606   8.594
31125WAT     H293618   9.193   8.482   8.695
31126WAT      O93619   0.691   3.704   5.764
31126WAT     H193620   0.772   3.720   5.708
31126WAT     H293621   0.616   3.763   5.732
31127WAT      O93622   4.463   3.019   1.245
31127WAT     H193623   4.554   3.011   1.204
31127WAT     H293624   4.443   2.938   1.299
31128WAT      O93625   9.048   4.828   0.956
31128WAT     H193626   9.062   4.735   0.990
31128WAT     H293627   8.976   4.872   1.009
31129WAT      O93628   4.992   8.249   4.739
31129WAT     H193629   5.069   8.297   4.781
31129WAT     H293630   5.027   8.180   4.675
31130WAT      O93631   2.818   5.119   9.629
31130WAT     H193632   2.720   5.139   9.634
31130WAT     H293633   2.850   5.137   9.536
31131WAT      O93634   7.892   5.875   3.124
31131WAT     H193635   7.937   5.909   3.207
31131WAT     H293636   7.933   5.788   3.097
31132WAT      O93637   7.849   5.915   7.980
31132WAT     H193638   7.781   5.848   7.951
31132WAT     H293639   7.941   5.876   7.972
31133WAT      O93640   6.504   9.001   7.470
31133WAT     H193641   6.473   9.084   7.517
31133WAT     H293642   6.451   8.987   7.387
31134WAT      O93643   7.518   7.372   6.299
31134WAT     H193644   7.604   7.414   6.329
31134WAT     H293645   7.470   7.336   6.379
31135WAT      O93646   9.812   1.791   8.939
31135WAT     H193647   9.877   1.833   9.001
31135WAT     H293648   9.749   1.861   8.905
31136WAT      O93649   2.997   9.373   2.782
31136WAT     H193650   3.064   9.301   2.795
31136WAT     H293651   3.005   9.409   2.689
31137WAT      O93652   4.430   3.939   3.076
31137WAT     H193653   4.468   4.015   3.024
31137WAT     H293654   4.360   3.892   3.022
31138WAT      O93655   3.010   5.781   3.962
31138WAT     H193656   3.056   5.703   3.919
31138WAT     H293657   2.911   5.772   3.950
31139WAT      O93658   2.937   0.055   9.196
31139WAT     H193659   2.993  -0.026   9.213
31139WAT     H293660   2.996   0.130   9.167
31140WAT      O93661   3.500   5.144   0.855
31140WAT     H193662   3.549   5.058   0.866
31140WAT     H293663   3.537   5.212   0.917
31141WAT      O93664   6.278   0.049   4.032
31141WAT     H193665   6.214   0.092   3.968
31141WAT     H293666   6.362   0.024   3.984
31142WAT      O93667   3.445   0.739   8.010
31142WAT     H193668   3.541   0.746   8.036
31142WAT     H293669   3.436   0.673   7.935
31143WAT      O93670   3.859   1.827   1.797
31143WAT     H193671   3.783   1.767   1.772
31143WAT     H293672   3.838   1.874   1.882
31144WAT      O93673   3.274   0.565   0.268
31144WAT     H193674   3.366   0.548   0.303
31144WAT     H293675   3.207   0.530   0.333
31145WAT      O93676   1.659   4.686   6.160
31145WAT     H193677   1.565   4.719   6.162
31145WAT     H293678   1.687   4.660   6.253
31146WAT      O93679   9.088   7.147   8.310
31146WAT     H193680   9.070   7.087   8.232
31146WAT     H293681   9.186   7.148   8.330
31147WAT      O93682   7.557   4.268   3.606
31147WAT     H193683   7.624   4.247   3.677
31147WAT     H293684   7.581   4.218   3.523
31148WAT      O93685   0.156   5.483   9.149
31148WAT     H193686   0.155   5.448   9.243
31148WAT     H293687   0.247   5.518   9.127
31149WAT      O93688   8.310   8.055   8.815
31149WAT     H193689   8.263   8.091   8.895
31149WAT     H293690   8.288   7.958   8.804
31150WAT      O93691   7.317   7.899   4.051
31150WAT     H193692   7.270   7.873   4.135
31150WAT     H293693   7.258   7.956   3.995
31151WAT      O93694   2.106   8.237   8.211
31151WAT     H193695   2.015   8.275   8.228
31151WAT     H293696   2.155   8.228   8.297
31152WAT      O93697   9.215   6.514   6.298
31152WAT     H193698   9.187   6.432   6.348
31152WAT     H293699   9.239   6.586   6.362
31153WAT      O93700   5.163   3.067   2.919
31153WAT     H193701   5.257   3.065   2.954
31153WAT     H293702   5.105   3.118   2.982
31154WAT      O93703   5.728   3.425   9.646
31154WAT     H193704   5.636   3.458   9.665
31154WAT     H293705   5.725   3.327   9.626
31155WAT      O93706   4.492   5.252   7.038
31155WAT     H193707   4.504   5.167   7.089
31155WAT     H293708   4.578   5.302   7.034
31156WAT      O93709   5.622   2.613   6.123
31156WAT     H193710   5.717   2.582   6.129
31156WAT     H293711   5.621   2.707   6.089
31157WAT      O93712   0.782   5.223   1.702
31157WAT     H193713   0.865   5.185   1.743
31157WAT     H293714   0.782   5.323   1.713
31158WAT      O93715   1.174   3.676   5.882
31158WAT     H193716   1.251   3.681   5.946
31158WAT     H293717   1.126   3.764   5.880
31159WAT      O93718   5.252   6.276   2.187
31159WAT     H193719   5.273   6.364   2.144
31159WAT     H293720   5.217   6.292   2.280
31160WAT      O93721   5.780   3.002   2.108
31160WAT     H193722   5.848   3.062   2.150
31160WAT     H293723   5.737   3.050   2.031
31161WAT      O93724   0.913   8.427   4.378
31161WAT     H193725   0.915   8.389   4.471
31161WAT     H293726   0.853   8.506   4.376
31162WAT      O93727   8.764   5.950   4.198
31162WAT     H193728   8.770   5.865   4.145
31162WAT     H293729   8.678   5.996   4.177
31163WAT      O93730   7.220   4.268   9.142
31163WAT     H193731   7.206   4.258   9.043
31163WAT     H293732   7.301   4.324   9.159
31164WAT      O93733   3.455   8.271   6.682
31164WAT     H193734   3.455   8.315   6.771
31164WAT     H293735   3.431   8.174   6.692
31165WAT      O93736   0.848   4.812   0.035
31165WAT     H193737   0.758   4.820  -0.009
31165WAT     H293738   0.887   4.903   0.048
31166WAT      O93739   4.304   5.864   1.420
31166WAT     H193740   4.245   5.790   1.455
31166WAT     H293741   4.364   5.896   1.493
31167WAT      O93742   3.663   8.099   6.875
31167WAT     H193743   3.763   8.105   6.874
31167WAT     H293744   3.632   8.045   6.797
31168WAT      O93745   5.751   4.878   7.680
31168WAT     H193746   5.731   4.911   7.587
31168WAT     H293747   5.667   4.845   7.722
31169WAT      O93748   3.456   1.027   2.902
31169WAT     H193749   3.365   1.026   2.944
31169WAT     H293750   3.512   1.097   2.944
31170WAT      O93751   0.900   2.413   7.416
31170WAT     H193752   0.997   2.422   7.395
31170WAT     H293753   0.884   2.437   7.512
31171WAT      O93754   7.948   1.047   1.218
31171WAT     H193755   7.940   0.982   1.143
31171WAT     H293756   7.915   1.005   1.303
31172WAT      O93757   6.378   7.811   6.436
31172WAT     H193758   6.298   7.765   6.396
31172WAT     H293759   6.440   7.840   6.363
31173WAT      O93760   1.334   4.901   3.563
31173WAT     H193761   1.285   4.954   3.632
31173WAT     H293762   1.429   4.888   3.591
31174WAT      O93763   0.729   6.231   4.675
31174WAT     H193764   0.647   6.204   4.624
31174WAT     H293765   0.789   6.285   4.617
31175WAT      O93766   8.013   6.757   3.163
31175WAT     H193767   8.050   6.686   3.104
31175WAT     H293768   8.086   6.793   3.222
31176WAT      O93769   6.938   6.115   7.004
31176WAT     H193770   7.004   6.183   7.036
31176WAT     H293771   6.928   6.122   6.905
31177WAT      O93772   0.991   8.886   2.327
31177WAT     H193773   1.057   8.814   2.305
31177WAT     H293774   1.026   8.940   2.404
31178WAT      O93775   4.170   2.197   0.543
31178WAT     H193776   4.206   2.290   0.549
31178WAT     H293777   4.086   2.191   0.597
31179WAT      O93778   1.366   1.521   6.919
31179WAT     H193779   1.329   1.514   7.011
31179WAT     H293780   1.303   1.478   6.854
31180WAT      O93781   2.998   4.749   0.626
31180WAT     H193782   3.028   4.689   0.700
31180WAT     H293783   2.908   4.719   0.593
31181WAT      O93784   3.060   0.858   9.353
31181WAT     H193785   3.113   0.864   9.269
31181WAT     H293786   3.078   0.939   9.410
31182WAT      O93787   9.068   4.378   7.915
31182WAT     H193788   9.038   4.301   7.858
31182WAT     H293789   9.056   4.463   7.864
31183WAT      O93790   3.027   6.599   6.551
31183WAT     H193791   3.007   6.571   6.644
31183WAT     H293792   3.082   6.529   6.505
31184WAT      O93793   2.181   7.861   3.088
31184WAT     H193794   2.218   7.849   2.996
31184WAT     H293795   2.248   7.829   3.155
31185WAT      O93796   1.198   0.762   5.850
31185WAT     H193797   1.251   0.678   5.833
31185WAT     H293798   1.216   0.795   5.943
31186WAT      O93799   5.025   2.703   4.122
31186WAT     H193800   5.077   2.621   4.098
31186WAT     H293801   4.967   2.684   4.200
31187WAT      O93802   7.195   7.390   4.177
31187WAT     H193803   7.191   7.461   4.248
31187WAT     H293804   7.115   7.330   4.186
31188WAT      O93805   6.909   0.100   1.643
31188WAT     H193806   6.986   0.119   1.582
31188WAT     H293807   6.829   0.075   1.589
31189WAT      O93808   4.859   6.677   2.607
31189WAT     H193809   4.914   6.758   2.628
31189WAT     H293810   4.909   6.617   2.546
31190WAT      O93811   3.980   0.575   6.598
31190WAT     H193812   3.993   0.551   6.694
31190WAT     H293813   3.882   0.580   6.578
31191WAT      O93814   3.242   8.961   5.548
31191WAT     H193815   3.268   8.918   5.635
31191WAT     H293816   3.144   8.949   5.533
31192WAT      O93817   3.913   4.724   7.424
31192WAT     H193818   3.839   4.743   7.359
31192WAT     H293819   3.873   4.702   7.513
31193WAT      O93820   7.414   0.091   9.286
31193WAT     H193821   7.320   0.110   9.257
31193WAT     H293822   7.446   0.006   9.244
31194WAT      O93823   1.372   8.975   2.369
31194WAT     H193824   1.451   8.919   2.394
31194WAT     H293825   1.392   9.026   2.285
31195WAT      O93826   7.518   0.566   8.208
31195WAT     H193827   7.425   0.559   8.245
31195WAT     H293828   7.520   0.636   8.137
31196WAT      O93829   5.278   0.129   1.939
31196WAT     H193830   5.289   0.227   1.923
31196WAT     H293831   5.339   0.078   1.879
31197WAT      O93832   3.502   1.015   1.715
31197WAT     H193833   3.406   1.033   1.695
31197WAT     H293834   3.510   0.951   1.792
31198WAT      O93835   4.911   8.010   2.454
31198WAT     H193836   4.813   8.025   2.466
31198WAT     H293837   4.927   7.954   2.373
31199WAT      O93838   6.473   5.306   4.752
31199WAT     H193839   6.425   5.220   4.771
31199WAT     H293840   6.558   5.288   4.703
31200WAT      O93841   7.292   1.855   8.631
31200WAT     H193842   7.239   1.940   8.621
31200WAT     H293843   7.233   1.778   8.607
31201WAT      O93844   0.230   4.161   5.457
31201WAT     H193845   0.262   4.255   5.468
31201WAT     H293846   0.281   4.102   5.520
31202WAT      O93847   3.701   0.286   5.483
31202WAT     H193848   3.797   0.276   5.457
31202WAT     H293849   3.652   0.200   5.463
31203WAT      O93850   4.750   8.717   7.777
31203WAT     H193851   4.714   8.758   7.860
31203WAT     H293852   4.758   8.618   7.789
31204WAT      O93853   8.958   8.657   5.617
31204WAT     H193854   9.055   8.673   5.596
31204WAT     H293855   8.948   8.569   5.663
31205WAT      O93856   0.940   2.916   3.744
31205WAT     H193857   0.956   2.957   3.833
31205WAT     H293858   0.871   2.844   3.752
31206WAT      O93859   7.742   5.108   9.210
31206WAT     H193860   7.672   5.048   9.248
31206WAT     H293861   7.707   5.201   9.201
31207WAT      O93862   6.319   1.065   7.815
31207WAT     H193863   6.400   1.113   7.782
31207WAT     H293864   6.268   1.028   7.737
31208WAT      O93865   2.379   3.236   6.183
31208WAT     H193866   2.435   3.191   6.253
31208WAT     H293867   2.299   3.278   6.226
31209WAT      O93868   2.078   3.527   5.868
31209WAT     H193869   2.170   3.519   5.831
31209WAT     H293870   2.014   3.472   5.814
31210WAT      O93871   1.872   2.788   3.569
31210WAT     H193872   1.872   2.720   3.642
31210WAT     H293873   1.908   2.875   3.604
31211WAT      O93874   6.015   9.075   6.239
31211WAT     H193875   6.112   9.078   6.214
31211WAT     H293876   6.002   9.005   6.310
31212WAT      O93877   4.691   7.537   2.853
31212WAT     H193878   4.661   7.584   2.936
31212WAT     H293879   4.790   7.546   2.843
31213WAT      O93880   8.645   7.854   4.758
31213WAT     H193881   8.621   7.842   4.854
31213WAT     H293882   8.714   7.925   4.749
31214WAT      O93883   2.189   9.506   4.373
31214WAT     H193884   2.197   9.572   4.298
31214WAT     H293885   2.199   9.554   4.460
31215WAT      O93886   3.454   5.487   8.964
31215WAT     H193887   3.503   5.403   8.938
31215WAT     H293888   3.505   5.567   8.931
31216WAT      O93889   7.364   0.671   8.848
31216WAT     H193890   7.376   0.634   8.756
31216WAT     H293891   7.348   0.770   8.842
31217WAT      O93892   4.216   3.186   4.661
31217WAT     H193893   4.200   3.282   4.635
31217WAT     H293894   4.152   3.161   4.734
31218WAT      O93895   1.106   4.823   8.583
31218WAT     H193896   1.188   4.880   8.580
31218WAT     H293897   1.064   4.829   8.674
31219WAT      O93898   3.346   7.763   6.821
31219WAT     H193899   3.414   7.689   6.826
31219WAT     H293900   3.280   7.752   6.895
31220WAT      O93901   7.956   8.493   0.441
31220WAT     H193902   7.985   8.419   0.381
31220WAT     H293903   8.032   8.522   0.499
31221WAT      O93904   7.208   9.035   9.225
31221WAT     H193905   7.253   9.054   9.139
31221WAT     H293906   7.222   9.111   9.288
31222WAT      O93907   5.649   3.954   7.713
31222WAT     H193908   5.690   3.882   7.769
31222WAT     H293909   5.555   3.928   7.691
31223WAT      O93910   4.324   6.920   7.832
31223WAT     H193911   4.232   6.885   7.852
31223WAT     H293912   4.346   6.903   7.736
31224WAT      O93913   1.255   8.728   3.463
31224WAT     H193914   1.171   8.687   3.429
31224WAT     H293915   1.280   8.685   3.550
31225WAT      O93916   4.488   1.213   6.291
31225WAT     H193917   4.419   1.163   6.238
31225WAT     H293918   4.567   1.233   6.234
31226WAT      O93919   4.573   9.809   3.461
31226WAT     H193920   4.477   9.833   3.474
31226WAT     H293921   4.627   9.845   3.538
31227WAT      O93922   8.066   7.672   4.824
31227WAT     H193923   8.034   7.721   4.905
31227WAT     H293924   8.116   7.590   4.852
31228WAT      O93925   6.814   9.406   3.482
31228WAT     H193926   6.765   9.459   3.413
31228WAT     H293927   6.762   9.405   3.568
31229WAT      O93928   6.529   2.514   2.220
31229WAT     H193929   6.610   2.568   2.197
31229WAT     H293930   6.551   2.452   2.295
31230WAT      O93931   4.219   9.510   1.056
31230WAT     H193932   4.177   9.435   1.005
31230WAT     H293933   4.319   9.502   1.049
31231WAT      O93934   6.888   7.684   2.792
31231WAT     H193935   6.912   7.780   2.808
31231WAT     H293936   6.902   7.662   2.696
31232WAT      O93937   9.856   8.617   6.731
31232WAT     H193938   9.861   8.534   6.676
31232WAT     H293939   9.924   8.683   6.698
31233WAT      O93940   8.427   8.530   2.746
31233WAT     H193941   8.488   8.604   2.718
31233WAT     H293942   8.478   8.445   2.756
31234WAT      O93943   3.827   0.413   0.765
31234WAT     H193944   3.762   0.338   0.749
31234WAT     H293945   3.868   0.402   0.856
31235WAT      O93946   4.846   9.796   3.195
31235WAT     H193947   4.924   9.742   3.227
31235WAT     H293948   4.832   9.874   3.256
31236WAT      O93949   4.671   7.757   4.254
31236WAT     H193950   4.729   7.736   4.333
31236WAT     H293951   4.617   7.677   4.230
31237WAT      O93952   9.358   8.062   9.179
31237WAT     H193953   9.264   8.027   9.183
31237WAT     H293954   9.397   8.042   9.089
31238WAT      O93955   6.024   9.552   9.819
31238WAT     H193956   6.006   9.528   9.914
31238WAT     H293957   5.937   9.574   9.773
31239WAT      O93958   4.748   3.044   1.142
31239WAT     H193959   4.823   3.084   1.090
31239WAT     H293960   4.716   2.961   1.096
31240WAT      O93961   8.296   7.803   8.501
31240WAT     H193962   8.325   7.719   8.455
31240WAT     H293963   8.204   7.790   8.538
31241WAT      O93964   4.898   4.008   3.065
31241WAT     H193965   4.980   4.059   3.040
31241WAT     H293966   4.913   3.963   3.153
31242WAT      O93967   6.680   9.007   8.667
31242WAT     H193968   6.722   8.940   8.727
31242WAT     H293969   6.697   9.099   8.703
31243WAT      O93970   3.002   1.702   5.598
31243WAT     H193971   3.038   1.787   5.560
31243WAT     H293972   3.063   1.626   5.574
31244WAT      O93973   3.738   6.503   0.840
31244WAT     H193974   3.719   6.601   0.851
31244WAT     H293975   3.689   6.469   0.760
31245WAT      O93976   7.492   2.576   9.594
31245WAT     H193977   7.490   2.478   9.576
31245WAT     H293978   7.530   2.624   9.514
31246WAT      O93979   7.524   1.250   6.929
31246WAT     H193980   7.452   1.261   6.861
31246WAT     H293981   7.515   1.162   6.974
31247WAT      O93982   1.030   3.933   4.892
31247WAT     H193983   1.021   3.919   4.793
31247WAT     H293984   1.118   3.976   4.912
31248WAT      O93985   3.314   3.285   5.432
31248WAT     H193986   3.256   3.357   5.394
31248WAT     H293987   3.366   3.321   5.509
31249WAT      O93988   9.426   2.589   8.398
31249WAT     H193989   9.469   2.661   8.453
31249WAT     H293990   9.380   2.631   8.320
31250WAT      O93991   5.025   8.100   1.782
31250WAT     H193992   5.068   8.068   1.866
31250WAT     H293993   5.081   8.174   1.742
31251WAT      O93994   8.414   4.011   1.682
31251WAT     H193995   8.511   4.004   1.702
31251WAT     H293996   8.374   4.086   1.734
31252WAT      O93997   1.754   8.420   3.130
31252WAT     H193998   1.655   8.422   3.145
31252WAT     H293999   1.791   8.333   3.162
31253WAT      O94000   9.298   7.474   8.989
31253WAT     H194001   9.272   7.539   9.060
31253WAT     H294002   9.335   7.524   8.910
31254WAT      O94003   4.970   1.349   6.133
31254WAT     H194004   5.004   1.350   6.227
31254WAT     H294005   5.037   1.305   6.073
31255WAT      O94006   6.077   5.848   7.071
31255WAT     H194007   6.064   5.921   7.138
31255WAT     H294008   6.022   5.867   6.990
31256WAT      O94009   5.729   5.470   6.704
31256WAT     H194010   5.701   5.564   6.723
31256WAT     H294011   5.765   5.428   6.787
31257WAT      O94012   0.417   8.463   0.745
31257WAT     H194013   0.422   8.363   0.756
31257WAT     H294014   0.492   8.506   0.795
31258WAT      O94015   8.011   0.957   8.083
31258WAT     H194016   8.037   0.962   8.179
31258WAT     H294017   8.091   0.978   8.025
31259WAT      O94018   8.092   4.180   2.228
31259WAT     H194019   8.048   4.269   2.216
31259WAT     H294020   8.024   4.108   2.223
31260WAT      O94021   8.358   2.547   2.905
31260WAT     H194022   8.316   2.576   2.819
31260WAT     H294023   8.293   2.490   2.955
31261WAT      O94024   4.878   0.623   3.437
31261WAT     H194025   4.867   0.678   3.354
31261WAT     H294026   4.966   0.645   3.480
31262WAT      O94027   7.742   9.020   0.188
31262WAT     H194028   7.824   9.077   0.185
31262WAT     H294029   7.765   8.931   0.227
31263WAT      O94030   2.421   6.103   2.564
31263WAT     H194031   2.393   6.122   2.470
31263WAT     H294032   2.344   6.062   2.613
31264WAT      O94033   3.936   4.818   2.692
31264WAT     H194034   4.028   4.856   2.698
31264WAT     H294035   3.882   4.847   2.770
31265WAT      O94036   4.595   6.741   9.703
31265WAT     H194037   4.668   6.780   9.759
31265WAT     H294038   4.511   6.735   9.757
31266WAT      O94039   7.800   4.775   9.271
31266WAT     H194040   7.850   4.850   9.315
31266WAT     H294041   7.718   4.753   9.325
31267WAT      O94042   4.003   3.655   3.843
31267WAT     H194043   4.006   3.575   3.783
31267WAT     H294044   4.070   3.722   3.812
31268WAT      O94045   0.146   2.680   8.384
31268WAT     H194046   0.105   2.739   8.453
31268WAT     H294047   0.201   2.610   8.429
31269WAT      O94048   7.701   9.663   7.381
31269WAT     H194049   7.664   9.696   7.468
31269WAT     H294050   7.633   9.673   7.309
31270WAT      O94051   0.859   4.038   3.506
31270WAT     H194052   0.894   4.055   3.414
31270WAT     H294053   0.911   3.964   3.549
31271WAT      O94054   6.243   7.095   2.719
31271WAT     H194055   6.342   7.083   2.728
31271WAT     H294056   6.196   7.016   2.759
31272WAT      O94057   3.488   1.691   2.413
31272WAT     H194058   3.435   1.696   2.497
31272WAT     H294059   3.583   1.666   2.434
31273WAT      O94060   0.457   2.633   6.464
31273WAT     H194061   0.531   2.581   6.507
31273WAT     H294062   0.377   2.631   6.523
31274WAT      O94063   3.587   6.389   3.716
31274WAT     H194064   3.578   6.417   3.811
31274WAT     H294065   3.665   6.327   3.707
31275WAT      O94066   5.414   0.480   1.898
31275WAT     H194067   5.314   0.486   1.899
31275WAT     H294068   5.451   0.540   1.827
31276WAT      O94069   5.447   3.710   1.238
31276WAT     H194070   5.457   3.628   1.294
31276WAT     H294071   5.528   3.767   1.247
31277WAT      O94072   7.608   2.838   4.243
31277WAT     H194073   7.686   2.888   4.279
31277WAT     H294074   7.639   2.755   4.196
31278WAT      O94075   6.542   3.549   9.436
31278WAT     H194076   6.531   3.470   9.497
31278WAT     H294077   6.456   3.601   9.433
31279WAT      O94078   1.052   5.754   1.809
31279WAT     H194079   0.956   5.772   1.787
31279WAT     H294080   1.063   5.742   1.907
31280WAT      O94081   5.393   8.952   9.405
31280WAT     H194082   5.357   8.916   9.319
31280WAT     H294083   5.320   8.996   9.456
31281WAT      O94084   9.783   5.196   1.275
31281WAT     H194085   9.860   5.199   1.338
31281WAT     H294086   9.742   5.104   1.277
31282WAT      O94087   9.144   8.683   2.685
31282WAT     H194088   9.177   8.655   2.775
31282WAT     H294089   9.098   8.605   2.642
31283WAT      O94090   0.077   5.104   1.814
31283WAT     H194091   0.020   5.025   1.838
31283WAT     H294092   0.166   5.071   1.781
31284WAT      O94093   1.838   7.810   8.196
31284WAT     H194094   1.897   7.852   8.264
31284WAT     H294095   1.773   7.749   8.242
31285WAT      O94096   8.514   3.237   9.856
31285WAT     H194097   8.553   3.263   9.944
31285WAT     H294098   8.572   3.272   9.782
31286WAT      O94099   5.480   2.036   8.279
31286WAT     H194100   5.470   1.939   8.255
31286WAT     H294101   5.565   2.048   8.331
31287WAT      O94102   1.746   6.873   8.281
31287WAT     H194103   1.791   6.887   8.369
31287WAT     H294104   1.651   6.844   8.297
31288WAT      O94105   6.511   8.122   4.638
31288WAT     H194106   6.527   8.192   4.568
31288WAT     H294107   6.599   8.090   4.674
31289WAT      O94108   3.561   8.656   1.909
31289WAT     H194109   3.499   8.725   1.947
31289WAT     H294110   3.549   8.653   1.809
31290WAT      O94111   1.906   2.086   9.303
31290WAT     H194112   1.830   2.143   9.273
31290WAT     H294113   1.910   2.085   9.403
31291WAT      O94114   5.631   9.321   2.396
31291WAT     H194115   5.610   9.327   2.298
31291WAT     H294116   5.714   9.374   2.416
31292WAT      O94117   4.754   7.418   6.713
31292WAT     H194118   4.854   7.420   6.723
31292WAT     H294119   4.717   7.509   6.732
31293WAT      O94120   5.890   6.951   2.852
31293WAT     H194121   5.879   6.990   2.760
31293WAT     H294122   5.853   7.013   2.920
31294WAT      O94123   4.400   4.671   2.377
31294WAT     H194124   4.353   4.591   2.415
31294WAT     H294125   4.340   4.751   2.382
31295WAT      O94126   9.136   2.877   8.597
31295WAT     H194127   9.171   2.953   8.652
31295WAT     H294128   9.037   2.886   8.587
31296WAT      O94129   5.527   5.807   8.727
31296WAT     H194130   5.485   5.774   8.642
31296WAT     H294131   5.467   5.874   8.769
31297WAT      O94132   6.281   0.218   1.529
31297WAT     H194133   6.217   0.281   1.485
31297WAT     H294134   6.230   0.151   1.583
31298WAT      O94135   1.920   5.616   3.232
31298WAT     H194136   1.907   5.639   3.328
31298WAT     H294137   1.845   5.654   3.178
31299WAT      O94138   4.400   2.491   8.863
31299WAT     H194139   4.309   2.526   8.843
31299WAT     H294140   4.468   2.539   8.807
31300WAT      O94141   4.725   4.009   0.784
31300WAT     H194142   4.824   4.021   0.779
31300WAT     H294143   4.704   3.913   0.802
31301WAT      O94144   0.590   0.672   7.405
31301WAT     H194145   0.654   0.600   7.434
31301WAT     H294146   0.505   0.629   7.373
31302WAT      O94147   6.703   4.787   1.668
31302WAT     H194148   6.705   4.882   1.637
31302WAT     H294149   6.723   4.726   1.591
31303WAT      O94150   2.332   7.144   4.370
31303WAT     H194151   2.375   7.105   4.289
31303WAT     H294152   2.253   7.199   4.343
31304WAT      O94153   6.255   2.592   7.861
31304WAT     H194154   6.354   2.594   7.869
31304WAT     H294155   6.215   2.576   7.952
31305WAT      O94156   5.103   8.714   0.404
31305WAT     H194157   5.022   8.672   0.364
31305WAT     H294158   5.111   8.809   0.374
31306WAT      O94159   7.341   8.307   8.174
31306WAT     H194160   7.242   8.314   8.182
31306WAT     H294161   7.365   8.243   8.102
31307WAT      O94162   8.341   6.947   9.526
31307WAT     H194163   8.250   6.964   9.487
31307WAT     H294164   8.380   7.033   9.559
31308WAT      O94165   1.644   5.851   0.473
31308WAT     H194166   1.676   5.897   0.555
31308WAT     H294167   1.610   5.919   0.407
31309WAT      O94168   5.216   4.689   0.520
31309WAT     H194169   5.201   4.687   0.421
31309WAT     H294170   5.248   4.780   0.547
31310WAT      O94171   6.880   9.225   2.305
31310WAT     H194172   6.944   9.150   2.319
31310WAT     H294173   6.799   9.211   2.362
31311WAT      O94174   2.910   3.414   0.966
31311WAT     H194175   2.950   3.483   0.906
31311WAT     H294176   2.932   3.436   1.061
31312WAT      O94177   6.574   5.858   7.830
31312WAT     H194178   6.644   5.847   7.900
31312WAT     H294179   6.588   5.791   7.758
31313WAT      O94180   6.546   6.974   7.000
31313WAT     H194181   6.547   6.986   7.099
31313WAT     H294182   6.564   6.878   6.978
31314WAT      O94183   7.761   6.625   1.031
31314WAT     H194184   7.812   6.685   0.970
31314WAT     H294185   7.676   6.670   1.059
31315WAT      O94186   8.613   5.209   4.765
31315WAT     H194187   8.706   5.172   4.769
31315WAT     H294188   8.549   5.135   4.746
31316WAT      O94189   4.875   8.365   5.763
31316WAT     H194190   4.869   8.270   5.793
31316WAT     H294191   4.913   8.421   5.837
31317WAT      O94192   0.709   6.133   7.885
31317WAT     H194193   0.740   6.053   7.835
31317WAT     H294194   0.726   6.215   7.831
31318WAT      O94195   2.461   5.825   1.758
31318WAT     H194196   2.478   5.791   1.851
31318WAT     H294197   2.429   5.920   1.763
31319WAT      O94198   9.119   1.041   4.931
31319WAT     H194199   9.106   1.033   4.832
31319WAT     H294200   9.046   0.993   4.978
31320WAT      O94201   3.373   7.922   9.594
31320WAT     H194202   3.436   7.994   9.624
31320WAT     H294203   3.365   7.924   9.494
31321WAT      O94204   5.118   6.043   2.595
31321WAT     H194205   5.137   5.991   2.512
31321WAT     H294206   5.192   6.109   2.610
31322WAT      O94207   0.592   6.401   0.442
31322WAT     H194208   0.493   6.399   0.459
31322WAT     H294209   0.616   6.328   0.378
31323WAT      O94210   1.890   6.481   0.577
31323WAT     H194211   1.872   6.491   0.675
31323WAT     H294212   1.893   6.384   0.554
31324WAT      O94213   6.626   2.233   5.108
31324WAT     H194214   6.568   2.181   5.045
31324WAT     H294215   6.623   2.330   5.085
31325WAT      O94216   8.380   5.815   0.349
31325WAT     H194217   8.447   5.845   0.281
31325WAT     H294218   8.423   5.747   0.409
31326WAT      O94219   4.561   8.134   2.001
31326WAT     H194220   4.640   8.138   2.063
31326WAT     H294221   4.503   8.213   2.016
31327WAT      O94222   4.922   9.430   2.668
31327WAT     H194223   4.928   9.526   2.640
31327WAT     H294224   4.831   9.411   2.703
31328WAT      O94225   7.569   1.772   4.860
31328WAT     H194226   7.587   1.674   4.857
31328WAT     H294227   7.585   1.806   4.952
31329WAT      O94228   1.575   2.014   5.189
31329WAT     H194229   1.491   2.057   5.223
31329WAT     H294230   1.644   2.085   5.172
31330WAT      O94231   4.488   1.866   2.232
31330WAT     H194232   4.520   1.880   2.138
31330WAT     H294233   4.504   1.772   2.260
31331WAT      O94234   7.972   6.821   6.496
31331WAT     H194235   7.882   6.779   6.505
31331WAT     H294236   8.038   6.753   6.465
31332WAT      O94237   7.093   3.573   1.021
31332WAT     H194238   7.156   3.641   0.983
31332WAT     H294239   7.135   3.530   1.101
31333WAT      O94240   5.455   9.122   4.790
31333WAT     H194241   5.496   9.140   4.879
31333WAT     H294242   5.412   9.032   4.790
31334WAT      O94243   9.235   2.499   1.315
31334WAT     H194244   9.143   2.486   1.278
31334WAT     H294245   9.246   2.443   1.397
31335WAT      O94246   4.024   9.794   6.802
31335WAT     H194247   4.112   9.760   6.834
31335WAT     H294248   3.999   9.746   6.718
31336WAT      O94249   1.312   9.747   7.764
31336WAT     H194250   1.264   9.830   7.736
31336WAT     H294251   1.399   9.741   7.715
31337WAT      O94252   6.546   8.943   9.429
31337WAT     H194253   6.611   8.900   9.367
31337WAT     H294254   6.454   8.940   9.389
31338WAT      O94255   9.224   6.175   7.465
31338WAT     H194256   9.285   6.243   7.505
31338WAT     H294257   9.166   6.219   7.396
31339WAT      O94258   8.622   7.355   1.246
31339WAT     H194259   8.646   7.427   1.181
31339WAT     H294260   8.687   7.355   1.322
31340WAT      O94261   0.786   8.742   2.225
31340WAT     H194262   0.863   8.792   2.264
31340WAT     H294263   0.704   8.760   2.279
31341WAT      O94264   1.048   2.994   0.754
31341WAT     H194265   0.956   3.029   0.773
31341WAT     H294266   1.107   3.011   0.833
31342WAT      O94267   7.387   8.293   0.255
31342WAT     H194268   7.466   8.272   0.313
31342WAT     H294269   7.416   8.293   0.159
31343WAT      O94270   7.814   9.316   0.496
31343WAT     H194271   7.855   9.343   0.409
31343WAT     H294272   7.875   9.254   0.544
31344WAT      O94273   8.165   5.297   5.892
31344WAT     H194274   8.220   5.304   5.809
31344WAT     H294275   8.077   5.254   5.871
31345WAT      O94276   2.498   3.328   0.419
31345WAT     H194277   2.473   3.377   0.336
31345WAT     H294278   2.590   3.354   0.447
31346WAT      O94279   1.878   3.039   8.235
31346WAT     H194280   1.794   3.095   8.235
31346WAT     H294281   1.928   3.055   8.150
31347WAT      O94282   0.115   3.272   8.890
31347WAT     H194283   0.093   3.367   8.912
31347WAT     H294284   0.045   3.235   8.829
31348WAT      O94285   2.495   3.082   9.287
31348WAT     H194286   2.504   3.145   9.210
31348WAT     H294287   2.553   3.002   9.272
31349WAT      O94288   9.522   8.478   5.417
31349WAT     H194289   9.494   8.573   5.429
31349WAT     H294290   9.476   8.440   5.336
31350WAT      O94291   8.608   8.858   5.742
31350WAT     H194292   8.630   8.882   5.647
31350WAT     H294293   8.509   8.860   5.755
31351WAT      O94294   9.266   4.733   0.571
31351WAT     H194295   9.242   4.686   0.486
31351WAT     H294296   9.278   4.665   0.644
31352WAT      O94297   4.533   3.902   5.542
31352WAT     H194298   4.556   3.821   5.596
31352WAT     H294299   4.536   3.879   5.444
31353WAT      O94300   2.222   4.197   4.025
31353WAT     H194301   2.160   4.274   4.011
31353WAT     H294302   2.219   4.169   4.121
31354WAT      O94303   0.653   1.927   3.778
31354WAT     H194304   0.681   1.833   3.760
31354WAT     H294305   0.733   1.983   3.798
31355WAT      O94306   8.285   2.427   4.014
31355WAT     H194307   8.380   2.410   4.037
31355WAT     H294308   8.231   2.435   4.098
31356WAT      O94309   5.165   2.808   0.316
31356WAT     H194310   5.173   2.899   0.359
31356WAT     H294311   5.253   2.761   0.324
31357WAT      O94312   2.772   8.028   3.636
31357WAT     H194313   2.797   8.105   3.695
31357WAT     H294314   2.730   7.956   3.690
31358WAT      O94315   5.341   0.990   3.675
31358WAT     H194316   5.270   1.028   3.734
31358WAT     H294317   5.300   0.957   3.590
31359WAT      O94318   6.877   1.478   1.830
31359WAT     H194319   6.786   1.436   1.834
31359WAT     H294320   6.920   1.457   1.742
31360WAT      O94321   5.508   7.592   5.484
31360WAT     H194322   5.583   7.619   5.543
31360WAT     H294323   5.427   7.648   5.503
31361WAT      O94324   9.217   3.535   4.360
31361WAT     H194325   9.306   3.491   4.348
31361WAT     H294326   9.227   3.634   4.345
31362WAT      O94327   4.345   6.436   0.530
31362WAT     H194328   4.282   6.446   0.608
31362WAT     H294329   4.435   6.470   0.556
31363WAT      O94330   4.716   9.245   4.379
31363WAT     H194331   4.731   9.176   4.449
31363WAT     H294332   4.786   9.316   4.386
31364WAT      O94333   6.996   0.361   8.922
31364WAT     H194334   7.067   0.293   8.904
31364WAT     H294335   7.037   0.451   8.932
31365WAT      O94336   8.617   7.244   2.906
31365WAT     H194337   8.683   7.318   2.919
31365WAT     H294338   8.623   7.210   2.812
31366WAT      O94339   7.358   0.796   7.587
31366WAT     H194340   7.424   0.846   7.643
31366WAT     H294341   7.278   0.853   7.570
31367WAT      O94342   2.253   1.339   3.392
31367WAT     H194343   2.315   1.262   3.375
31367WAT     H294344   2.217   1.373   3.305
31368WAT      O94345   9.307   7.706   8.705
31368WAT     H194346   9.267   7.764   8.776
31368WAT     H294347   9.233   7.659   8.656
31369WAT      O94348   5.000   4.444   6.370
31369WAT     H194349   4.989   4.396   6.458
31369WAT     H294350   4.961   4.536   6.377
31370WAT      O94351   2.425   8.117   3.685
31370WAT     H194352   2.371   8.040   3.719
31370WAT     H294353   2.485   8.085   3.612
31371WAT      O94354   5.979   0.471   2.005
31371WAT     H194355   6.005   0.504   2.096
31371WAT     H294356   5.948   0.377   2.011
31372WAT      O94357   6.330   8.962   8.233
31372WAT     H194358   6.392   8.940   8.309
31372WAT     H294359   6.238   8.932   8.256
31373WAT      O94360   0.996   2.882   1.350
31373WAT     H194361   0.969   2.795   1.392
31373WAT     H294362   1.024   2.946   1.422
31374WAT      O94363   1.038   8.055   1.663
31374WAT     H194364   1.014   8.152   1.657
31374WAT     H294365   0.955   8.001   1.672
31375WAT      O94366   9.350   6.511   9.154
31375WAT     H194367   9.390   6.420   9.144
31375WAT     H294368   9.277   6.508   9.221
31376WAT      O94369   6.085   6.023   8.470
31376WAT     H194370   6.020   6.069   8.531
31376WAT     H294371   6.094   5.927   8.497
31377WAT      O94372   0.551   3.398   9.791
31377WAT     H194373   0.580   3.421   9.884
31377WAT     H294374   0.452   3.413   9.783
31378WAT      O94375   1.550   7.993   3.116
31378WAT     H194376   1.617   7.978   3.189
31378WAT     H294377   1.530   7.906   3.072
31379WAT      O94378   7.631   5.994   4.956
31379WAT     H194379   7.723   5.983   4.994
31379WAT     H294380   7.567   6.016   5.030
31380WAT      O94381   3.984   1.990   0.775
31380WAT     H194382   4.043   2.069   0.792
31380WAT     H294383   3.952   1.992   0.680
31381WAT      O94384   6.416   0.664   4.336
31381WAT     H194385   6.450   0.578   4.299
31381WAT     H294386   6.492   0.720   4.368
31382WAT      O94387   1.016   1.317   0.987
31382WAT     H194388   0.943   1.300   0.921
31382WAT     H294389   1.103   1.284   0.951
31383WAT      O94390   5.105   9.413   1.669
31383WAT     H194391   5.200   9.416   1.702
31383WAT     H294392   5.059   9.498   1.694
31384WAT      O94393   0.535   7.532   5.773
31384WAT     H194394   0.547   7.626   5.806
31384WAT     H294395   0.549   7.529   5.674
31385WAT      O94396   8.276   2.380   8.356
31385WAT     H194397   8.334   2.445   8.406
31385WAT     H294398   8.334   2.321   8.300
31386WAT      O94399   9.525   8.198   8.772
31386WAT     H194400   9.464   8.276   8.760
31386WAT     H294401   9.551   8.162   8.683
31387WAT      O94402   9.848   4.433   8.975
31387WAT     H194403   9.835   4.410   9.072
31387WAT     H294404   9.796   4.368   8.919
31388WAT      O94405   3.918   7.887   8.956
31388WAT     H194406   3.835   7.864   9.008
31388WAT     H294407   3.894   7.949   8.881
31389WAT      O94408   4.036   8.816   4.976
31389WAT     H194409   4.121   8.854   5.013
31389WAT     H294410   3.976   8.890   4.946
31390WAT      O94411   7.938   8.553   9.511
31390WAT     H194412   7.928   8.470   9.457
31390WAT     H294413   8.013   8.608   9.473
31391WAT      O94414   9.216   8.765   8.137
31391WAT     H194415   9.198   8.784   8.040
31391WAT     H294416   9.314   8.765   8.153
31392WAT      O94417   2.916   0.861   9.058
31392WAT     H194418   2.907   0.825   8.965
31392WAT     H294419   2.969   0.945   9.056
31393WAT      O94420   1.373   1.732   1.496
31393WAT     H194421   1.274   1.737   1.489
31393WAT     H294422   1.415   1.798   1.435
31394WAT      O94423   2.539   7.728   4.217
31394WAT     H194424   2.607   7.767   4.280
31394WAT     H294425   2.470   7.797   4.197
31395WAT      O94426   3.367   3.942   8.987
31395WAT     H194427   3.419   3.875   8.935
31395WAT     H294428   3.303   3.989   8.926
31396WAT      O94429   3.083   0.910   4.742
31396WAT     H194430   3.179   0.910   4.712
31396WAT     H294431   3.053   1.004   4.757
31397WAT      O94432   0.293   6.132   9.118
31397WAT     H194433   0.199   6.099   9.102
31397WAT     H294434   0.323   6.103   9.209
31398WAT      O94435   8.372   8.966   3.545
31398WAT     H194436   8.426   8.936   3.624
31398WAT     H294437   8.290   9.014   3.576
31399WAT      O94438   9.742   3.873   9.355
31399WAT     H194439   9.681   3.908   9.284
31399WAT     H294440   9.689   3.816   9.418
31400WAT      O94441   6.465   3.939   7.462
31400WAT     H194442   6.398   4.013   7.468
31400WAT     H294443   6.419   3.855   7.435
31401WAT      O94444   8.749   9.706   5.911
31401WAT     H194445   8.800   9.621   5.923
31401WAT     H294446   8.655   9.694   5.945
31402WAT      O94447   5.275   8.989   1.737
31402WAT     H194448   5.360   8.962   1.691
31402WAT     H294449   5.291   8.991   1.836
31403WAT      O94450   6.466   8.843   9.113
31403WAT     H194451   6.496   8.754   9.078
31403WAT     H294452   6.516   8.864   9.197
31404WAT      O94453   3.296   0.010   1.686
31404WAT     H194454   3.384   0.054   1.704
31404WAT     H294455   3.304  -0.051   1.608
31405WAT      O94456   3.635   1.972   5.540
31405WAT     H194457   3.585   1.887   5.525
31405WAT     H294458   3.594   2.020   5.618
31406WAT      O94459   6.626   0.385   8.113
31406WAT     H194460   6.719   0.357   8.091
31406WAT     H294461   6.607   0.368   8.209
31407WAT      O94462   6.523   6.867   8.087
31407WAT     H194463   6.440   6.905   8.127
31407WAT     H294464   6.581   6.941   8.052
31408WAT      O94465   8.186   9.440   3.294
31408WAT     H194466   8.268   9.489   3.265
31408WAT     H294467   8.151   9.481   3.379
31409WAT      O94468   5.734   4.120   5.829
31409WAT     H194469   5.773   4.177   5.901
31409WAT     H294470   5.640   4.149   5.810
31410WAT      O94471   4.262   6.697   2.394
31410WAT     H194472   4.328   6.732   2.327
31410WAT     H294473   4.266   6.597   2.394
31411WAT      O94474   9.747   3.163   4.896
31411WAT     H194475   9.659   3.186   4.856
31411WAT     H294476   9.742   3.169   4.996
31412WAT      O94477   3.782   9.680   3.485
31412WAT     H194478   3.844   9.743   3.440
31412WAT     H294479   3.832   9.598   3.512
31413WAT      O94480   4.546   8.618   0.897
31413WAT     H194481   4.613   8.563   0.947
31413WAT     H294482   4.542   8.710   0.936
31414WAT      O94483   8.992   6.719   4.836
31414WAT     H194484   9.060   6.778   4.793
31414WAT     H294485   8.951   6.766   4.914
31415WAT      O94486   2.252   6.331   8.796
31415WAT     H194487   2.324   6.266   8.770
31415WAT     H294488   2.205   6.363   8.714
31416WAT      O94489   0.572   4.287   9.382
31416WAT     H194490   0.576   4.188   9.377
31416WAT     H294491   0.531   4.323   9.298
31417WAT      O94492   4.884   6.084   1.344
31417WAT     H194493   4.843   6.172   1.318
31417WAT     H294494   4.867   6.017   1.273
31418WAT      O94495   4.176   9.169   8.166
31418WAT     H194496   4.210   9.158   8.073
31418WAT     H294497   4.227   9.109   8.228
31419WAT      O94498   3.188   5.903   4.476
31419WAT     H194499   3.144   5.984   4.516
31419WAT     H294500   3.248   5.932   4.402
31420WAT      O94501   5.188   8.327   4.503
31420WAT     H194502   5.129   8.267   4.449
31420WAT     H294503   5.283   8.315   4.475
31421WAT      O94504   3.125   5.797   3.255
31421WAT     H194505   3.162   5.712   3.293
31421WAT     H294506   3.154   5.874   3.311
31422WAT      O94507   9.084   4.426   3.998
31422WAT     H194508   9.167   4.388   3.957
31422WAT     H294509   9.068   4.383   4.087
31423WAT      O94510   7.453   9.246   1.199
31423WAT     H194511   7.422   9.321   1.257
31423WAT     H294512   7.550   9.257   1.177
31424WAT      O94513   7.511   1.603   5.874
31424WAT     H194514   7.462   1.520   5.847
31424WAT     H294515   7.528   1.660   5.793
31425WAT      O94516   8.290   2.918   8.661
31425WAT     H194517   8.296   2.862   8.578
31425WAT     H294518   8.272   2.859   8.740
31426WAT      O94519   3.368   5.771   5.876
31426WAT     H194520   3.291   5.710   5.862
31426WAT     H294521   3.342   5.864   5.850
31427WAT      O94522   2.388   3.895   1.661
31427WAT     H194523   2.352   3.912   1.569
31427WAT     H294524   2.482   3.928   1.666
31428WAT      O94525   9.888   3.509   0.366
31428WAT     H194526   9.884   3.410   0.381
31428WAT     H294527   9.897   3.528   0.268
31429WAT      O94528   6.832   6.972   2.381
31429WAT     H194529   6.769   6.896   2.369
31429WAT     H294530   6.921   6.948   2.343
31430WAT      O94531   2.813   7.403   5.822
31430WAT     H194532   2.780   7.313   5.792
31430WAT     H294533   2.913   7.401   5.827
31431WAT      O94534   5.361   2.981   8.453
31431WAT     H194535   5.415   3.061   8.478
31431WAT     H294536   5.362   2.915   8.529
31432WAT      O94537   3.236   7.539   2.663
31432WAT     H194538   3.262   7.583   2.749
31432WAT     H294539   3.317   7.530   2.605
31433WAT      O94540   1.044   9.420   3.046
31433WAT     H194541   1.096   9.446   3.127
31433WAT     H294542   0.979   9.493   3.024
31434WAT      O94543   6.195   2.770   5.767
31434WAT     H194544   6.215   2.867   5.782
31434WAT     H294545   6.259   2.715   5.821
31435WAT      O94546   8.696   5.202   5.171
31435WAT     H194547   8.742   5.288   5.192
31435WAT     H294548   8.756   5.126   5.194
31436WAT      O94549   3.250   8.669   6.475
31436WAT     H194550   3.259   8.574   6.503
31436WAT     H294551   3.280   8.679   6.380
31437WAT      O94552   0.907   1.101   9.668
31437WAT     H194553   0.937   1.168   9.736
31437WAT     H294554   0.969   1.102   9.590
31438WAT      O94555   8.690   7.108   8.085
31438WAT     H194556   8.702   7.203   8.115
31438WAT     H294557   8.780   7.067   8.069
31439WAT      O94558   5.075   2.747   5.599
31439WAT     H194559   5.101   2.844   5.594
31439WAT     H294560   5.061   2.712   5.506
31440WAT      O94561   6.599   2.513   6.621
31440WAT     H194562   6.570   2.595   6.572
31440WAT     H294563   6.676   2.536   6.681
31441WAT      O94564   5.845   1.825   6.842
31441WAT     H194565   5.819   1.881   6.763
31441WAT     H294566   5.808   1.733   6.832
31442WAT      O94567   9.482   3.686   4.037
31442WAT     H194568   9.387   3.695   4.064
31442WAT     H294569   9.488   3.675   3.937
31443WAT      O94570   0.025   5.133   5.930
31443WAT     H194571  -0.009   5.098   5.843
31443WAT     H294572   0.112   5.182   5.915
31444WAT      O94573   0.134   4.742   6.738
31444WAT     H194574   0.179   4.832   6.739
31444WAT     H294575   0.165   4.689   6.816
31445WAT      O94576   5.477   8.832   4.153
31445WAT     H194577   5.396   8.812   4.098
31445WAT     H294578   5.448   8.857   4.246
31446WAT      O94579   8.367   8.961   0.262
31446WAT     H194580   8.454   8.913   0.273
31446WAT     H294581   8.344   8.967   0.165
31447WAT      O94582   5.215   4.828   8.337
31447WAT     H194583   5.220   4.746   8.280
31447WAT     H294584   5.167   4.901   8.288
31448WAT      O94585   5.472   8.175   6.463
31448WAT     H194586   5.552   8.213   6.510
31448WAT     H294587   5.483   8.184   6.364
31449WAT      O94588   2.806   3.031   2.598
31449WAT     H194589   2.709   3.035   2.624
31449WAT     H294590   2.841   2.939   2.615
31450WAT      O94591   5.598   2.699   0.850
31450WAT     H194592   5.574   2.793   0.824
31450WAT     H294593   5.672   2.701   0.917
31451WAT      O94594   4.048   6.265   5.789
31451WAT     H194595   4.137   6.302   5.765
31451WAT     H294596   3.979   6.338   5.783
31452WAT      O94597   6.595   6.881   9.582
31452WAT     H194598   6.627   6.919   9.669
31452WAT     H294599   6.507   6.836   9.597
31453WAT      O94600   0.449   4.102   1.645
31453WAT     H194601   0.513   4.133   1.575
31453WAT     H294602   0.499   4.075   1.727
31454WAT      O94603   7.438   5.404   4.166
31454WAT     H194604   7.534   5.418   4.191
31454WAT     H294605   7.423   5.437   4.073
31455WAT      O94606   6.500   1.538   7.742
31455WAT     H194607   6.529   1.494   7.827
31455WAT     H294608   6.402   1.560   7.748
31456WAT      O94609   0.267   3.235   3.542
31456WAT     H194610   0.182   3.285   3.527
31456WAT     H294611   0.321   3.234   3.458
31457WAT      O94612   5.599   9.751   2.182
31457WAT     H194613   5.615   9.700   2.266
31457WAT     H294614   5.597   9.687   2.105
31458WAT      O94615   9.367   0.484   0.747
31458WAT     H194616   9.330   0.575   0.767
31458WAT     H294617   9.465   0.491   0.728
31459WAT      O94618   8.308   8.042   6.593
31459WAT     H194619   8.268   8.012   6.506
31459WAT     H294620   8.355   7.965   6.636
31460WAT      O94621   3.570   9.686   1.581
31460WAT     H194622   3.588   9.770   1.632
31460WAT     H294623   3.653   9.630   1.579
31461WAT      O94624   9.374   5.814   8.245
31461WAT     H194625   9.314   5.751   8.195
31461WAT     H294626   9.389   5.896   8.191
31462WAT      O94627   4.699   4.563   5.276
31462WAT     H194628   4.775   4.499   5.261
31462WAT     H294629   4.707   4.604   5.367
31463WAT      O94630   6.745   2.910   8.438
31463WAT     H194631   6.781   3.000   8.414
31463WAT     H294632   6.733   2.856   8.355
31464WAT      O94633   8.624   7.618   8.250
31464WAT     H194634   8.719   7.640   8.272
31464WAT     H294635   8.602   7.650   8.158
31465WAT      O94636   8.227   8.761   5.316
31465WAT     H194637   8.275   8.846   5.296
31465WAT     H294638   8.185   8.726   5.233
31466WAT      O94639   0.275   2.132   4.383
31466WAT     H194640   0.298   2.040   4.351
31466WAT     H294641   0.320   2.200   4.326
31467WAT      O94642   2.620   1.709   9.456
31467WAT     H194643   2.573   1.777   9.511
31467WAT     H294644   2.613   1.619   9.501
31468WAT      O94645   1.757   6.120   7.126
31468WAT     H194646   1.752   6.201   7.067
31468WAT     H294647   1.665   6.095   7.156
31469WAT      O94648   7.700   8.769   2.393
31469WAT     H194649   7.708   8.670   2.401
31469WAT     H294650   7.785   8.807   2.357
31470WAT      O94651   9.516   2.810   6.793
31470WAT     H194652   9.552   2.876   6.860
31470WAT     H294653   9.495   2.724   6.839
31471WAT      O94654   6.336   2.831   9.820
31471WAT     H194655   6.259   2.864   9.875
31471WAT     H294656   6.324   2.860   9.725
31472WAT      O94657   9.825   1.871   7.920
31472WAT     H194658   9.913   1.830   7.898
31472WAT     H294659   9.797   1.842   8.012
31473WAT      O94660   3.985   3.546   6.696
31473WAT     H194661   3.996   3.641   6.667
31473WAT     H294662   3.978   3.542   6.796
31474WAT      O94663   9.607   1.489   8.235
31474WAT     H194664   9.615   1.541   8.320
31474WAT     H294665   9.553   1.541   8.169
31475WAT      O94666   5.566   2.967   0.115
31475WAT     H194667   5.616   2.988   0.031
31475WAT     H294668   5.494   3.035   0.129
31476WAT      O94669   2.353   5.992   0.279
31476WAT     H194670   2.385   5.922   0.343
31476WAT     H294671   2.253   6.000   0.286
31477WAT      O94672   8.065   9.453   1.885
31477WAT     H194673   7.982   9.397   1.885
31477WAT     H294674   8.105   9.452   1.977
31478WAT      O94675   7.572   7.655   1.081
31478WAT     H194676   7.475   7.642   1.102
31478WAT     H294677   7.585   7.746   1.041
31479WAT      O94678   6.032   9.167   2.428
31479WAT     H194679   5.956   9.152   2.365
31479WAT     H294680   6.013   9.246   2.486
31480WAT      O94681   8.058   9.375   5.523
31480WAT     H194682   8.030   9.279   5.523
31480WAT     H294683   7.989   9.430   5.475
31481WAT      O94684   8.197   1.634   3.011
31481WAT     H194685   8.168   1.671   2.922
31481WAT     H294686   8.219   1.537   3.001
31482WAT      O94687   9.509   5.326   1.264
31482WAT     H194688   9.597   5.280   1.277
31482WAT     H294689   9.435   5.266   1.296
31483WAT      O94690   9.884   5.384   7.244
31483WAT     H194691   9.883   5.453   7.173
31483WAT     H294692   9.978   5.366   7.272
31484WAT      O94693   5.708   1.506   8.689
31484WAT     H194694   5.609   1.512   8.704
31484WAT     H294695   5.756   1.520   8.776
31485WAT      O94696   7.622   5.809   3.903
31485WAT     H194697   7.665   5.884   3.952
31485WAT     H294698   7.659   5.722   3.936
31486WAT      O94699   9.132   7.581   8.538
31486WAT     H194700   9.110   7.484   8.544
31486WAT     H294701   9.173   7.601   8.449
31487WAT      O94702   8.001   7.011   9.164
31487WAT     H194703   7.905   7.012   9.191
31487WAT     H294704   8.012   6.955   9.081
31488WAT      O94705   5.524   1.222   9.117
31488WAT     H194706   5.495   1.220   9.213
31488WAT     H294707   5.602   1.285   9.107
31489WAT      O94708   0.614   0.485   5.925
31489WAT     H194709   0.667   0.418   5.977
31489WAT     H294710   0.613   0.459   5.828
31490WAT      O94711   0.265   0.989   3.005
31490WAT     H194712   0.321   1.052   2.950
31490WAT     H294713   0.323   0.918   3.045
31491WAT      O94714   7.141   9.471   0.514
31491WAT     H194715   7.223   9.429   0.551
31491WAT     H294716   7.134   9.565   0.547
31492WAT      O94717   4.195   6.277   1.545
31492WAT     H194718   4.115   6.259   1.603
31492WAT     H294719   4.271   6.308   1.602
31493WAT      O94720   2.834   3.979   1.053
31493WAT     H194721   2.745   3.949   1.018
31493WAT     H294722   2.907   3.928   1.007
31494WAT      O94723   8.763   7.786  -0.001
31494WAT     H194724   8.717   7.701   0.024
31494WAT     H294725   8.733   7.860   0.059
31495WAT      O94726   5.715   6.024   0.992
31495WAT     H194727   5.773   6.005   0.913
31495WAT     H294728   5.695   5.939   1.040
31496WAT      O94729   0.512   1.390   5.856
31496WAT     H194730   0.448   1.417   5.929
31496WAT     H294731   0.493   1.445   5.774
31497WAT      O94732   1.753   1.296   0.071
31497WAT     H194733   1.768   1.211   0.020
31497WAT     H294734   1.776   1.374   0.013
31498WAT      O94735   8.458   1.257   2.644
31498WAT     H194736   8.486   1.289   2.553
31498WAT     H294737   8.485   1.161   2.654
31499WAT      O94738   7.371   1.969   2.741
31499WAT     H194739   7.446   2.018   2.785
31499WAT     H294740   7.284   2.005   2.775
31500WAT      O94741   8.611   0.076   0.078
31500WAT     H194742   8.666   0.114   0.152
31500WAT     H294743   8.669   0.063  -0.003
31501WAT      O94744   7.948   6.723   8.008
31501WAT     H194745   8.034   6.673   8.001
31501WAT     H294746   7.891   6.705   7.927
31502WAT      O94747   8.968   9.368   3.225
31502WAT     H194748   8.904   9.376   3.149
31502WAT     H294749   8.974   9.272   3.253
31503WAT      O94750   1.887   1.846   3.087
31503WAT     H194751   1.790   1.839   3.110
31503WAT     H294752   1.907   1.938   3.053
31504WAT      O94753   8.462   3.247   5.452
31504WAT     H194754   8.380   3.270   5.399
31504WAT     H294755   8.531   3.206   5.392
31505WAT      O94756   4.883   8.077   3.032
31505WAT     H194757   4.908   7.991   3.076
31505WAT     H294758   4.964   8.116   2.988
31506WAT      O94759   6.554   3.176   6.857
31506WAT     H194760   6.548   3.244   6.929
31506WAT     H294761   6.588   3.090   6.895
31507WAT      O94762   9.364   8.145   0.801
31507WAT     H194763   9.464   8.144   0.797
31507WAT     H294764   9.329   8.051   0.801
31508WAT      O94765   7.511   4.996   9.336
31508WAT     H194766   7.427   5.048   9.350
31508WAT     H294767   7.488   4.900   9.319
31509WAT      O94768   9.144   2.469   8.966
31509WAT     H194769   9.105   2.559   8.944
31509WAT     H294770   9.072   2.400   8.964
31510WAT      O94771   9.725   2.593   7.151
31510WAT     H194772   9.639   2.598   7.101
31510WAT     H294773   9.749   2.497   7.167
31511WAT      O94774   1.377   4.097   2.878
31511WAT     H194775   1.294   4.133   2.837
31511WAT     H294776   1.356   4.061   2.969
31512WAT      O94777   9.193   7.198   6.105
31512WAT     H194778   9.189   7.277   6.045
31512WAT     H294779   9.268   7.209   6.171
31513WAT      O94780   7.986   9.689   7.280
31513WAT     H194781   8.022   9.619   7.217
31513WAT     H294782   7.891   9.666   7.304
31514WAT      O94783   6.996   1.768   9.143
31514WAT     H194784   7.017   1.860   9.108
31514WAT     H294785   6.947   1.777   9.230
31515WAT      O94786   9.774   3.923   2.850
31515WAT     H194787   9.770   3.830   2.815
31515WAT     H294788   9.682   3.962   2.850
31516WAT      O94789   2.742   8.010   2.427
31516WAT     H194790   2.666   7.987   2.367
31516WAT     H294791   2.826   8.021   2.374
31517WAT      O94792   1.709   8.908   7.873
31517WAT     H194793   1.674   8.823   7.912
31517WAT     H294794   1.678   8.985   7.929
31518WAT      O94795   4.128   5.497   0.964
31518WAT     H194796   4.077   5.582   0.953
31518WAT     H294797   4.225   5.518   0.976
31519WAT      O94798   1.086   9.810   8.848
31519WAT     H194799   0.995   9.851   8.838
31519WAT     H294800   1.131   9.806   8.759
31520WAT      O94801   5.716   4.348   7.533
31520WAT     H194802   5.660   4.286   7.589
31520WAT     H294803   5.656   4.400   7.472
31521WAT      O94804   0.700   2.549   0.193
31521WAT     H194805   0.755   2.509   0.119
31521WAT     H294806   0.748   2.539   0.280
31522WAT      O94807   0.714   8.512   8.293
31522WAT     H194808   0.698   8.496   8.391
31522WAT     H294809   0.632   8.489   8.241
31523WAT      O94810   6.087   3.550   6.199
31523WAT     H194811   6.059   3.585   6.110
31523WAT     H294812   6.040   3.600   6.271
31524WAT      O94813   6.845   3.159   6.516
31524WAT     H194814   6.900   3.237   6.487
31524WAT     H294815   6.755   3.163   6.473
31525WAT      O94816   6.872   5.225   6.808
31525WAT     H194817   6.872   5.241   6.906
31525WAT     H294818   6.938   5.153   6.785
31526WAT      O94819   5.377   7.605   2.074
31526WAT     H194820   5.378   7.686   2.132
31526WAT     H294821   5.472   7.576   2.056
31527WAT      O94822   2.629   1.362   2.399
31527WAT     H194823   2.550   1.344   2.340
31527WAT     H294824   2.603   1.353   2.495
31528WAT      O94825   0.308   2.177   0.512
31528WAT     H194826   0.253   2.161   0.430
31528WAT     H294827   0.360   2.261   0.502
31529WAT      O94828   1.274   5.885   2.544
31529WAT     H194829   1.191   5.912   2.592
31529WAT     H294830   1.331   5.830   2.605
31530WAT      O94831   9.217   7.549   5.328
31530WAT     H194832   9.178   7.520   5.415
31530WAT     H294833   9.161   7.622   5.289
31531WAT      O94834   1.834   1.155   8.195
31531WAT     H194835   1.818   1.141   8.293
31531WAT     H294836   1.746   1.171   8.150
31532WAT      O94837   5.932   2.472   4.178
31532WAT     H194838   5.834   2.487   4.168
31532WAT     H294839   5.981   2.546   4.132
31533WAT      O94840   7.793   9.151   2.173
31533WAT     H194841   7.814   9.229   2.231
31533WAT     H294842   7.779   9.182   2.079
31534WAT      O94843   0.004   2.480   8.850
31534WAT     H194844  -0.020   2.506   8.943
31534WAT     H294845   0.054   2.393   8.852
31535WAT      O94846   2.528   8.110   9.770
31535WAT     H194847   2.436   8.120   9.732
31535WAT     H294848   2.584   8.056   9.708
31536WAT      O94849   0.224   3.971   7.356
31536WAT     H194850   0.142   4.022   7.328
31536WAT     H294851   0.201   3.911   7.433
31537WAT      O94852   2.747   0.889   6.458
31537WAT     H194853   2.749   0.984   6.488
31537WAT     H294854   2.757   0.885   6.359
31538WAT      O94855   2.770   1.194   5.784
31538WAT     H194856   2.858   1.226   5.750
31538WAT     H294857   2.771   1.094   5.792
31539WAT      O94858   2.640   8.147   1.056
31539WAT     H194859   2.675   8.063   1.098
31539WAT     H294860   2.579   8.194   1.121
31540WAT      O94861   7.489   0.602   2.379
31540WAT     H194862   7.586   0.625   2.374
31540WAT     H294863   7.444   0.661   2.445
31541WAT      O94864   7.617   4.646   1.691
31541WAT     H194865   7.572   4.561   1.716
31541WAT     H294866   7.630   4.649   1.592
31542WAT      O94867   7.678   4.501   4.878
31542WAT     H194868   7.743   4.577   4.885
31542WAT     H294869   7.673   4.471   4.782
31543WAT      O94870   7.055   1.327   3.275
31543WAT     H194871   7.143   1.334   3.227
31543WAT     H294872   7.071   1.306   3.371
31544WAT      O94873   7.457   6.003   2.935
31544WAT     H194874   7.368   5.958   2.926
31544WAT     H294875   7.495   5.982   3.024
31545WAT      O94876   7.928   0.999   5.039
31545WAT     H194877   7.900   0.945   4.960
31545WAT     H294878   7.900   0.952   5.123
31546WAT      O94879   3.167   8.365   3.626
31546WAT     H194880   3.160   8.295   3.556
31546WAT     H294881   3.237   8.338   3.693
31547WAT      O94882   5.804   0.429   2.274
31547WAT     H194883   5.741   0.425   2.197
31547WAT     H294884   5.767   0.489   2.345
31548WAT      O94885   7.891   6.985   3.492
31548WAT     H194886   7.892   6.950   3.586
31548WAT     H294887   7.888   6.909   3.428
31549WAT      O94888   0.960   1.590   7.026
31549WAT     H194889   0.972   1.614   6.930
31549WAT     H294890   1.001   1.500   7.043
31550WAT      O94891   9.163   6.612   6.712
31550WAT     H194892   9.070   6.577   6.705
31550WAT     H294893   9.190   6.651   6.624
31551WAT      O94894   5.371   6.042   6.165
31551WAT     H194895   5.286   6.031   6.113
31551WAT     H294896   5.356   6.014   6.260
31552WAT      O94897   8.411   9.590   1.475
31552WAT     H194898   8.455   9.625   1.558
31552WAT     H294899   8.341   9.523   1.501
31553WAT      O94900   0.176   7.628   0.419
31553WAT     H194901   0.219   7.538   0.418
31553WAT     H294902   0.146   7.651   0.511
31554WAT      O94903   0.628   5.778   8.768
31554WAT     H194904   0.548   5.775   8.707
31554WAT     H294905   0.634   5.868   8.811
31555WAT      O94906   7.254   7.037   2.295
31555WAT     H194907   7.299   7.030   2.385
31555WAT     H294908   7.172   6.979   2.294
31556WAT      O94909   5.184   8.460   9.626
31556WAT     H194910   5.168   8.551   9.665
31556WAT     H294911   5.231   8.469   9.538
31557WAT      O94912   9.047   5.254   2.009
31557WAT     H194913   9.104   5.288   2.083
31557WAT     H294914   9.040   5.155   2.014
31558WAT      O94915   3.825   2.776   3.038
31558WAT     H194916   3.794   2.746   3.128
31558WAT     H294917   3.754   2.753   2.970
31559WAT      O94918   7.348   5.786   5.296
31559WAT     H194919   7.379   5.869   5.249
31559WAT     H294920   7.288   5.810   5.372
31560WAT      O94921   9.175   9.719   1.105
31560WAT     H194922   9.138   9.752   1.192
31560WAT     H294923   9.182   9.620   1.108
31561WAT      O94924   6.122   6.627   3.400
31561WAT     H194925   6.213   6.623   3.359
31561WAT     H294926   6.128   6.604   3.497
31562WAT      O94927   2.105   3.964   4.522
31562WAT     H194928   2.018   3.930   4.559
31562WAT     H294929   2.138   4.040   4.579
31563WAT      O94930   9.431   8.558   4.987
31563WAT     H194931   9.367   8.493   5.029
31563WAT     H294932   9.430   8.546   4.887
31564WAT      O94933   9.772   0.954   6.359
31564WAT     H194934   9.753   0.857   6.370
31564WAT     H294935   9.745   0.984   6.267
31565WAT      O94936   4.357   5.171   9.748
31565WAT     H194937   4.270   5.145   9.790
31565WAT     H294938   4.357   5.269   9.728
31566WAT      O94939   9.861   4.093   5.548
31566WAT     H194940   9.856   4.066   5.645
31566WAT     H294941   9.957   4.107   5.522
31567WAT      O94942   9.499   7.660   4.613
31567WAT     H194943   9.428   7.706   4.668
31567WAT     H294944   9.589   7.697   4.638
31568WAT      O94945   8.729   2.812   3.619
31568WAT     H194946   8.710   2.893   3.675
31568WAT     H294947   8.643   2.769   3.593
31569WAT      O94948   0.371   9.095   3.599
31569WAT     H194949   0.377   9.177   3.542
31569WAT     H294950   0.460   9.076   3.639
31570WAT      O94951   2.916   5.208   4.035
31570WAT     H194952   2.847   5.236   4.101
31570WAT     H294953   3.007   5.233   4.069
31571WAT      O94954   1.564   1.402   5.077
31571WAT     H194955   1.623   1.389   4.997
31571WAT     H294956   1.591   1.484   5.127
31572WAT      O94957   3.044   7.680   2.521
31572WAT     H194958   3.125   7.661   2.576
31572WAT     H294959   2.970   7.711   2.580
31573WAT      O94960   7.819   1.530   8.935
31573WAT     H194961   7.734   1.583   8.931
31573WAT     H294962   7.897   1.593   8.932
31574WAT      O94963   9.178   4.697   8.005
31574WAT     H194964   9.250   4.627   8.013
31574WAT     H294965   9.189   4.746   7.919
31575WAT      O94966   2.569   1.603   9.162
31575WAT     H194967   2.520   1.668   9.104
31575WAT     H294968   2.596   1.647   9.247
31576WAT      O94969   0.595   6.909   2.948
31576WAT     H194970   0.534   6.987   2.963
31576WAT     H294971   0.687   6.931   2.983
31577WAT      O94972   8.600   2.968   9.235
31577WAT     H194973   8.660   2.924   9.169
31577WAT     H294974   8.608   2.922   9.324
31578WAT      O94975   2.623   8.716   4.966
31578WAT     H194976   2.541   8.773   4.955
31578WAT     H294977   2.599   8.620   4.947
31579WAT      O94978   0.811   2.162   6.755
31579WAT     H194979   0.809   2.198   6.848
31579WAT     H294980   0.763   2.075   6.751
31580WAT      O94981   2.545   3.805   6.197
31580WAT     H194982   2.506   3.718   6.166
31580WAT     H294983   2.537   3.811   6.296
31581WAT      O94984   7.132   0.335   3.948
31581WAT     H194985   7.162   0.245   3.916
31581WAT     H294986   7.054   0.366   3.894
31582WAT      O94987   3.472   3.319   5.885
31582WAT     H194988   3.562   3.280   5.907
31582WAT     H294989   3.401   3.255   5.914
31583WAT      O94990   4.875   2.593   8.393
31583WAT     H194991   4.916   2.503   8.380
31583WAT     H294992   4.780   2.592   8.360
31584WAT      O94993   4.362   1.755   5.686
31584WAT     H194994   4.393   1.818   5.757
31584WAT     H294995   4.382   1.661   5.715
31585WAT      O94996   1.342   2.559   9.185
31585WAT     H194997   1.420   2.617   9.159
31585WAT     H294998   1.264   2.616   9.208
31586WAT      O94999   8.128   7.809   5.632
31586WAT     H195000   8.114   7.906   5.612
31586WAT     H295001   8.225   7.793   5.651
31587WAT      O95002   9.452   2.187   3.760
31587WAT     H195003   9.536   2.184   3.815
31587WAT     H295004   9.470   2.151   3.669
31588WAT      O95005   9.300   1.465   4.136
31588WAT     H195006   9.285   1.518   4.219
31588WAT     H295007   9.268   1.371   4.150
31589WAT      O95008   3.389   8.781   0.158
31589WAT     H195009   3.341   8.739   0.081
31589WAT     H295010   3.345   8.867   0.181
31590WAT      O95011   1.073   2.138   8.224
31590WAT     H195012   1.105   2.051   8.187
31590WAT     H295013   1.002   2.175   8.164
31591WAT      O95014   0.805   1.671   5.741
31591WAT     H195015   0.831   1.767   5.739
31591WAT     H295016   0.813   1.632   5.650
31592WAT      O95017   7.083   7.163   8.515
31592WAT     H195018   7.091   7.078   8.464
31592WAT     H295019   7.159   7.224   8.492
31593WAT      O95020   0.187   9.770   0.110
31593WAT     H195021   0.113   9.829   0.145
31593WAT     H295022   0.261   9.827   0.075
31594WAT      O95023   4.206   8.624   6.054
31594WAT     H195024   4.264   8.602   5.975
31594WAT     H295025   4.233   8.567   6.132
31595WAT      O95026   3.138   5.560   3.858
31595WAT     H195027   3.165   5.535   3.764
31595WAT     H295028   3.210   5.532   3.921
31596WAT      O95029   2.476   8.992   7.460
31596WAT     H195030   2.454   8.900   7.493
31596WAT     H295031   2.414   9.058   7.502
31597WAT      O95032   4.359   2.769   0.987
31597WAT     H195033   4.456   2.782   0.965
31597WAT     H295034   4.343   2.674   1.013
31598WAT      O95035   3.567   7.860   4.056
31598WAT     H195036   3.622   7.888   4.135
31598WAT     H295037   3.568   7.760   4.050
31599WAT      O95038   0.225   3.694   6.183
31599WAT     H195039   0.242   3.741   6.096
31599WAT     H295040   0.245   3.755   6.259
31600WAT      O95041   1.720   5.207   4.952
31600WAT     H195042   1.800   5.148   4.941
31600WAT     H295043   1.722   5.248   5.044
31601WAT      O95044   6.150   8.146   1.814
31601WAT     H195045   6.082   8.121   1.744
31601WAT     H295046   6.235   8.174   1.769
31602WAT      O95047   1.245   0.507   3.919
31602WAT     H195048   1.173   0.439   3.909
31602WAT     H295049   1.237   0.575   3.847
31603WAT      O95050   6.886   4.191   4.551
31603WAT     H195051   6.866   4.164   4.457
31603WAT     H295052   6.895   4.109   4.608
31604WAT      O95053   6.411   3.730   6.995
31604WAT     H195054   6.405   3.811   6.936
31604WAT     H295055   6.496   3.681   6.975
31605WAT      O95056   4.306   1.049   6.179
31605WAT     H195057   4.221   1.091   6.210
31605WAT     H295058   4.298   1.024   6.083
31606WAT      O95059   1.488   8.350   1.430
31606WAT     H195060   1.478   8.294   1.348
31606WAT     H295061   1.470   8.446   1.409
31607WAT      O95062   4.431   9.326   1.992
31607WAT     H195063   4.384   9.319   1.904
31607WAT     H295064   4.404   9.411   2.037
31608WAT      O95065   6.349   2.110   0.463
31608WAT     H195066   6.351   2.153   0.373
31608WAT     H295067   6.263   2.133   0.508
31609WAT      O95068   7.448   3.728   2.524
31609WAT     H195069   7.432   3.718   2.426
31609WAT     H295070   7.419   3.644   2.571
31610WAT      O95071   8.926   9.310   5.326
31610WAT     H195072   8.933   9.349   5.234
31610WAT     H295073   8.830   9.296   5.349
31611WAT      O95074   7.275   7.979   0.046
31611WAT     H195075   7.205   7.910   0.066
31611WAT     H295076   7.247   8.034  -0.032
31612WAT      O95077   0.153   4.641   7.032
31612WAT     H195078   0.108   4.730   7.038
31612WAT     H295079   0.194   4.619   7.121
31613WAT      O95080   0.475   1.595   1.952
31613WAT     H195081   0.557   1.614   2.005
31613WAT     H295082   0.497   1.595   1.854
31614WAT      O95083   2.561   5.530   3.367
31614WAT     H195084   2.648   5.535   3.418
31614WAT     H295085   2.577   5.485   3.279
31615WAT      O95086   1.548   5.803   5.066
31615WAT     H195087   1.568   5.794   5.163
31615WAT     H295088   1.624   5.849   5.020
31616WAT      O95089   2.376   1.727   7.586
31616WAT     H195090   2.322   1.651   7.551
31616WAT     H295091   2.350   1.811   7.539
31617WAT      O95092   2.825   5.961   4.870
31617WAT     H195093   2.760   5.967   4.946
31617WAT     H295094   2.837   6.052   4.830
31618WAT      O95095   4.434   2.728   7.517
31618WAT     H195096   4.345   2.684   7.518
31618WAT     H295097   4.464   2.739   7.422
31619WAT      O95098   7.185   9.503   0.235
31619WAT     H195099   7.280   9.536   0.237
31619WAT     H295100   7.152   9.491   0.329
31620WAT      O95101   3.368   3.706   5.584
31620WAT     H195102   3.363   3.643   5.662
31620WAT     H295103   3.330   3.794   5.610
31621WAT      O95104   2.047   1.024   6.601
31621WAT     H195105   2.051   1.017   6.501
31621WAT     H295106   2.064   0.934   6.642
31622WAT      O95107   5.982   1.002   1.832
31622WAT     H195108   6.029   0.969   1.914
31622WAT     H295109   6.039   0.986   1.752
31623WAT      O95110   3.692   7.222   5.413
31623WAT     H195111   3.780   7.237   5.368
31623WAT     H295112   3.685   7.280   5.494
31624WAT      O95113   3.514   3.652   7.322
31624WAT     H195114   3.437   3.589   7.321
31624WAT     H295115   3.551   3.661   7.230
31625WAT      O95116   5.555   4.679   6.532
31625WAT     H195117   5.560   4.622   6.449
31625WAT     H295118   5.551   4.775   6.505
31626WAT      O95119   3.335   0.951   8.156
31626WAT     H195120   3.392   1.033   8.161
31626WAT     H295121   3.367   0.893   8.082
31627WAT      O95122   0.651   2.392   4.603
31627WAT     H195123   0.558   2.359   4.585
31627WAT     H295124   0.662   2.407   4.702
31628WAT      O95125   8.192   6.109   6.160
31628WAT     H195126   8.265   6.049   6.127
31628WAT     H295127   8.138   6.142   6.082
31629WAT      O95128   4.745   4.025   1.749
31629WAT     H195129   4.765   4.117   1.783
31629WAT     H295130   4.790   4.010   1.661
31630WAT      O95131   9.201   9.002   6.346
31630WAT     H195132   9.116   9.032   6.388
31630WAT     H295133   9.275   9.002   6.414
31631WAT      O95134   0.638   8.836   5.346
31631WAT     H195135   0.694   8.835   5.428
31631WAT     H295136   0.597   8.927   5.334
31632WAT      O95137   7.099   3.751   7.744
31632WAT     H195138   7.073   3.655   7.755
31632WAT     H295139   7.197   3.757   7.730
31633WAT      O95140   5.579   2.268   5.212
31633WAT     H195141   5.591   2.238   5.307
31633WAT     H295142   5.490   2.311   5.202
31634WAT      O95143   2.470   1.682   5.607
31634WAT     H195144   2.569   1.676   5.620
31634WAT     H295145   2.448   1.668   5.511
31635WAT      O95146   6.966   8.989   8.835
31635WAT     H195147   6.988   8.939   8.751
31635WAT     H295148   6.990   9.085   8.824
31636WAT      O95149   9.656   0.563   7.367
31636WAT     H195150   9.618   0.475   7.336
31636WAT     H295151   9.652   0.567   7.467
31637WAT      O95152   5.866   6.483   5.522
31637WAT     H195153   5.881   6.549   5.595
31637WAT     H295154   5.779   6.502   5.477
31638WAT      O95155   3.722   6.861   6.730
31638WAT     H195156   3.683   6.913   6.806
31638WAT     H295157   3.653   6.846   6.660
31639WAT      O95158   1.616   0.039   8.156
31639WAT     H195159   1.541   0.098   8.125
31639WAT     H295160   1.586  -0.056   8.152
31640WAT      O95161   5.840   5.356   6.972
31640WAT     H195162   5.793   5.372   7.059
31640WAT     H295163   5.930   5.401   6.974
31641WAT      O95164   5.307   6.207   0.614
31641WAT     H195165   5.263   6.174   0.698
31641WAT     H295166   5.269   6.296   0.589
31642WAT      O95167   2.509   8.712   6.600
31642WAT     H195168   2.449   8.653   6.546
31642WAT     H295169   2.600   8.716   6.557
31643WAT      O95170   2.196   9.235   2.096
31643WAT     H195171   2.208   9.136   2.085
31643WAT     H295172   2.107   9.253   2.137
31644WAT      O95173   9.872   8.782   3.171
31644WAT     H195174   9.845   8.753   3.080
31644WAT     H295175   9.791   8.812   3.222
31645WAT      O95176   1.230   5.070   1.592
31645WAT     H195177   1.142   5.029   1.616
31645WAT     H295178   1.289   5.073   1.673
31646WAT      O95179   0.569   4.386   4.812
31646WAT     H195180   0.537   4.304   4.764
31646WAT     H295181   0.578   4.461   4.746
31647WAT      O95182   1.661   8.196   4.506
31647WAT     H195183   1.652   8.283   4.554
31647WAT     H295184   1.753   8.159   4.521
31648WAT      O95185   9.064   2.456   6.228
31648WAT     H195186   8.977   2.504   6.239
31648WAT     H295187   9.123   2.477   6.306
31649WAT      O95188   0.864   8.926   8.287
31649WAT     H195189   0.826   8.930   8.195
31649WAT     H295190   0.929   9.000   8.300
31650WAT      O95191   3.486   4.798   2.213
31650WAT     H195192   3.408   4.844   2.255
31650WAT     H295193   3.454   4.719   2.161
31651WAT      O95194   2.273   9.604   2.544
31651WAT     H195195   2.290   9.649   2.632
31651WAT     H295196   2.194   9.543   2.552
31652WAT      O95197   9.793   7.176   7.718
31652WAT     H195198   9.865   7.221   7.771
31652WAT     H295199   9.769   7.233   7.639
31653WAT      O95200   3.158   7.151   4.958
31653WAT     H195201   3.134   7.223   4.893
31653WAT     H295202   3.140   7.182   5.051
31654WAT      O95203   5.414   7.485   4.701
31654WAT     H195204   5.410   7.501   4.602
31654WAT     H295205   5.333   7.524   4.744
31655WAT      O95206   8.401   1.806   8.249
31655WAT     H195207   8.458   1.731   8.284
31655WAT     H295208   8.332   1.830   8.318
31656WAT      O95209   2.908   0.874   3.750
31656WAT     H195210   2.915   0.826   3.662
31656WAT     H295211   2.847   0.952   3.741
31657WAT      O95212   0.099   1.654   0.213
31657WAT     H195213   0.190   1.684   0.183
31657WAT     H295214   0.099   1.555   0.224
31658WAT      O95215   5.724   4.935   6.281
31658WAT     H195216   5.737   4.850   6.230
31658WAT     H295217   5.808   4.989   6.277
31659WAT      O95218   8.943   3.250   2.124
31659WAT     H195219   8.879   3.178   2.150
31659WAT     H295220   8.951   3.253   2.025
31660WAT      O95221   9.383   4.028   9.332
31660WAT     H195222   9.420   3.958   9.393
31660WAT     H295223   9.321   4.087   9.383
31661WAT      O95224   1.721   0.189   6.839
31661WAT     H195225   1.639   0.186   6.783
31661WAT     H295226   1.715   0.120   6.912
31662WAT      O95227   0.747   6.734   0.664
31662WAT     H195228   0.653   6.720   0.633
31662WAT     H295229   0.802   6.772   0.589
31663WAT      O95230   6.780   7.233   2.406
31663WAT     H195231   6.765   7.244   2.504
31663WAT     H295232   6.796   7.136   2.386
31664WAT      O95233   2.797   6.325   7.112
31664WAT     H195234   2.776   6.303   7.207
31664WAT     H295235   2.878   6.274   7.083
31665WAT      O95236   8.997   7.281   7.260
31665WAT     H195237   8.960   7.330   7.181
31665WAT     H295238   9.046   7.200   7.228
31666WAT      O95239   4.872   2.981   7.092
31666WAT     H195240   4.971   2.990   7.100
31666WAT     H295241   4.832   3.070   7.070
31667WAT      O95242   7.923   7.749   7.589
31667WAT     H195243   7.915   7.667   7.532
31667WAT     H295244   8.020   7.768   7.607
31668WAT      O95245   8.018   6.328   8.496
31668WAT     H195246   8.061   6.243   8.466
31668WAT     H295247   7.938   6.347   8.439
31669WAT      O95248   8.108   9.166   2.116
31669WAT     H195249   8.100   9.265   2.127
31669WAT     H295250   8.030   9.132   2.064
31670WAT      O95251   8.157   4.250   5.447
31670WAT     H195252   8.227   4.311   5.485
31670WAT     H295253   8.119   4.290   5.364
31671WAT      O95254   6.482   5.556   8.685
31671WAT     H195255   6.447   5.630   8.742
31671WAT     H295256   6.421   5.477   8.692
31672WAT      O95257   7.192   9.348   2.889
31672WAT     H195258   7.136   9.324   2.810
31672WAT     H295259   7.201   9.448   2.893
31673WAT      O95260   5.829   3.980   8.659
31673WAT     H195261   5.880   4.062   8.682
31673WAT     H295262   5.813   3.977   8.560
31674WAT      O95263   8.557   7.643   0.170
31674WAT     H195264   8.515   7.716   0.225
31674WAT     H295265   8.490   7.608   0.104
31675WAT      O95266   1.585   8.501   7.461
31675WAT     H195267   1.577   8.585   7.516
31675WAT     H295268   1.511   8.438   7.486
31676WAT      O95269   5.974   9.334   7.521
31676WAT     H195270   5.878   9.354   7.505
31676WAT     H295271   5.990   9.236   7.508
31677WAT      O95272   4.788   9.703   2.648
31677WAT     H195273   4.796   9.704   2.748
31677WAT     H295274   4.693   9.683   2.623
31678WAT      O95275   9.706   4.891   4.516
31678WAT     H195276   9.752   4.804   4.497
31678WAT     H295277   9.655   4.920   4.435
31679WAT      O95278   2.571   6.590   6.634
31679WAT     H195279   2.506   6.578   6.709
31679WAT     H295280   2.664   6.570   6.666
31680WAT      O95281   2.824   3.447   7.946
31680WAT     H195282   2.780   3.361   7.973
31680WAT     H295283   2.840   3.446   7.847
31681WAT      O95284   7.418   1.788   5.477
31681WAT     H195285   7.333   1.751   5.515
31681WAT     H295286   7.401   1.879   5.440
31682WAT      O95287   8.633   4.808   4.673
31682WAT     H195288   8.541   4.788   4.639
31682WAT     H295289   8.687   4.724   4.675
31683WAT      O95290   2.769   5.014   6.601
31683WAT     H195291   2.698   5.085   6.598
31683WAT     H295292   2.845   5.045   6.658
31684WAT      O95293   7.686   3.993   7.049
31684WAT     H195294   7.623   3.985   7.126
31684WAT     H295295   7.769   3.940   7.068
31685WAT      O95296   6.397   6.684   2.675
31685WAT     H195297   6.323   6.631   2.716
31685WAT     H295298   6.416   6.648   2.583
31686WAT      O95299   3.186   7.717   7.028
31686WAT     H195300   3.221   7.707   7.120
31686WAT     H295301   3.130   7.637   7.005
31687WAT      O95302   0.492   8.294   5.762
31687WAT     H195303   0.481   8.394   5.761
31687WAT     H295304   0.402   8.251   5.767
31688WAT      O95305   5.972   3.312   7.100
31688WAT     H195306   6.032   3.375   7.149
31688WAT     H295307   5.960   3.342   7.006
31689WAT      O95308   2.427   8.747   7.589
31689WAT     H195309   2.525   8.731   7.601
31689WAT     H295310   2.393   8.688   7.515
31690WAT      O95311   4.296   1.172   3.841
31690WAT     H195312   4.268   1.190   3.936
31690WAT     H295313   4.306   1.259   3.793
31691WAT      O95314   8.543   7.006   9.851
31691WAT     H195315   8.549   7.077   9.920
31691WAT     H295316   8.469   6.942   9.874
31692WAT      O95317   4.596   5.816   2.258
31692WAT     H195318   4.536   5.737   2.268
31692WAT     H295319   4.596   5.869   2.343
31693WAT      O95320   3.739   4.707   7.218
31693WAT     H195321   3.819   4.704   7.157
31693WAT     H295322   3.718   4.614   7.248
31694WAT      O95323   6.625   1.683   1.432
31694WAT     H195324   6.722   1.659   1.428
31694WAT     H295325   6.593   1.708   1.341
31695WAT      O95326   6.113   9.574   6.310
31695WAT     H195327   6.089   9.597   6.215
31695WAT     H295328   6.067   9.638   6.371
31696WAT      O95329   0.343   0.556   7.857
31696WAT     H195330   0.259   0.610   7.867
31696WAT     H295331   0.407   0.605   7.798
31697WAT      O95332   1.947   7.017   7.379
31697WAT     H195333   1.918   7.091   7.319
31697WAT     H295334   1.994   6.947   7.324
31698WAT      O95335   7.315   0.996   6.513
31698WAT     H195336   7.367   0.984   6.428
31698WAT     H295337   7.272   0.910   6.539
31699WAT      O95338   0.725   7.164   5.642
31699WAT     H195339   0.734   7.130   5.736
31699WAT     H295340   0.639   7.129   5.603
31700WAT      O95341   8.735   3.567   6.816
31700WAT     H195342   8.815   3.562   6.756
31700WAT     H295343   8.761   3.610   6.903
31701WAT      O95344   7.580   3.928   6.003
31701WAT     H195345   7.530   3.969   5.926
31701WAT     H295346   7.652   3.990   6.032
31702WAT      O95347   4.949   1.439   5.866
31702WAT     H195348   4.890   1.360   5.885
31702WAT     H295349   4.973   1.484   5.952
31703WAT      O95350   3.552   2.113   8.186
31703WAT     H195351   3.574   2.052   8.262
31703WAT     H295352   3.501   2.192   8.220
31704WAT      O95353   6.489   1.146   0.161
31704WAT     H195354   6.396   1.183   0.166
31704WAT     H295355   6.540   1.195   0.090
31705WAT      O95356   1.902   9.256   0.851
31705WAT     H195357   1.976   9.322   0.836
31705WAT     H295358   1.924   9.199   0.931
31706WAT      O95359   7.845   4.637   4.112
31706WAT     H195360   7.766   4.689   4.146
31706WAT     H295361   7.919   4.699   4.090
31707WAT      O95362   2.660   6.006   2.251
31707WAT     H195363   2.749   5.961   2.240
31707WAT     H295364   2.636   6.056   2.167
31708WAT      O95365   5.475   4.779   6.046
31708WAT     H195366   5.515   4.717   6.114
31708WAT     H295367   5.444   4.726   5.967
31709WAT      O95368   2.564   9.600   4.696
31709WAT     H195369   2.662   9.584   4.690
31709WAT     H295370   2.517   9.547   4.625
31710WAT      O95371   3.109   0.280   3.541
31710WAT     H195372   3.161   0.195   3.529
31710WAT     H295373   3.062   0.279   3.629
31711WAT      O95374   5.812   9.652   4.176
31711WAT     H195375   5.736   9.713   4.154
31711WAT     H295376   5.822   9.645   4.275
31712WAT      O95377   4.388   1.370   2.319
31712WAT     H195378   4.355   1.277   2.338
31712WAT     H295379   4.388   1.386   2.220
31713WAT      O95380   6.492   4.340   0.151
31713WAT     H195381   6.458   4.416   0.206
31713WAT     H295382   6.511   4.262   0.210
31714WAT      O95383   1.056   4.602   6.065
31714WAT     H195384   1.126   4.670   6.043
31714WAT     H295385   1.083   4.551   6.146
31715WAT      O95386   2.715   1.828   3.191
31715WAT     H195387   2.807   1.866   3.179
31715WAT     H295388   2.698   1.811   3.288
31716WAT      O95389   3.207   5.560   2.908
31716WAT     H195390   3.167   5.641   2.950
31716WAT     H295391   3.135   5.507   2.862
31717WAT      O95392   1.776   8.073   5.187
31717WAT     H195393   1.691   8.033   5.153
31717WAT     H295394   1.783   8.168   5.155
31718WAT      O95395   4.361   6.116   7.457
31718WAT     H195396   4.373   6.018   7.475
31718WAT     H295397   4.366   6.166   7.544
31719WAT      O95398   4.981   9.776   0.824
31719WAT     H195399   4.923   9.699   0.846
31719WAT     H295400   4.925   9.859   0.816
31720WAT      O95401   0.882   4.711   3.097
31720WAT     H195402   0.805   4.660   3.058
31720WAT     H295403   0.859   4.743   3.189
31721WAT      O95404   2.425   1.085   1.440
31721WAT     H195405   2.402   1.073   1.536
31721WAT     H295406   2.417   0.996   1.393
31722WAT      O95407   2.067   6.059   7.563
31722WAT     H195408   2.145   6.005   7.593
31722WAT     H295409   2.059   6.055   7.464
31723WAT      O95410   4.086   4.068   2.581
31723WAT     H195411   4.142   4.143   2.615
31723WAT     H295412   4.131   4.026   2.502
31724WAT      O95413   2.687   6.125   1.116
31724WAT     H195414   2.658   6.071   1.195
31724WAT     H295415   2.710   6.064   1.040
31725WAT      O95416   3.979   5.005   8.119
31725WAT     H195417   3.919   4.947   8.174
31725WAT     H295418   4.039   4.947   8.063
31726WAT      O95419   4.466   2.460   4.121
31726WAT     H195420   4.541   2.430   4.062
31726WAT     H295421   4.485   2.431   4.215
31727WAT      O95422   6.569   7.566   8.532
31727WAT     H195423   6.531   7.628   8.601
31727WAT     H295424   6.664   7.546   8.555
31728WAT      O95425   5.547   9.094   4.498
31728WAT     H195426   5.641   9.058   4.498
31728WAT     H295427   5.519   9.113   4.592
31729WAT      O95428   1.729   4.868   6.459
31729WAT     H195429   1.709   4.949   6.404
31729WAT     H295430   1.827   4.850   6.458
31730WAT      O95431   0.288   4.441   2.352
31730WAT     H195432   0.284   4.467   2.256
31730WAT     H295433   0.252   4.516   2.408
31731WAT      O95434   4.167   8.547   3.951
31731WAT     H195435   4.119   8.561   3.864
31731WAT     H295436   4.174   8.449   3.969
31732WAT      O95437   6.191   5.425   6.228
31732WAT     H195438   6.285   5.455   6.243
31732WAT     H295439   6.141   5.429   6.314
31733WAT      O95440   1.221   9.618   4.631
31733WAT     H195441   1.252   9.528   4.600
31733WAT     H295442   1.121   9.622   4.627
31734WAT      O95443   0.716   0.196   7.456
31734WAT     H195444   0.677   0.120   7.507
31734WAT     H295445   0.779   0.248   7.515
31735WAT      O95446   7.676   7.345   8.569
31735WAT     H195447   7.765   7.389   8.579
31735WAT     H295448   7.685   7.247   8.586
31736WAT      O95449   3.951   4.716   4.298
31736WAT     H195450   4.000   4.637   4.261
31736WAT     H295451   4.014   4.773   4.351
31737WAT      O95452   4.448   7.792   5.214
31737WAT     H195453   4.350   7.814   5.220
31737WAT     H295454   4.461   7.714   5.153
31738WAT      O95455   5.364   6.275   5.583
31738WAT     H195456   5.323   6.201   5.637
31738WAT     H295457   5.301   6.303   5.511
31739WAT      O95458   9.399   8.364   5.206
31739WAT     H195459   9.302   8.375   5.227
31739WAT     H295460   9.426   8.269   5.223
31740WAT      O95461   0.785   3.130   8.901
31740WAT     H195462   0.821   3.127   8.807
31740WAT     H295463   0.849   3.084   8.962
31741WAT      O95464   8.474   0.956   3.186
31741WAT     H195465   8.496   0.937   3.090
31741WAT     H295466   8.559   0.971   3.237
31742WAT      O95467   4.747   6.440   9.121
31742WAT     H195468   4.690   6.513   9.158
31742WAT     H295469   4.839   6.476   9.105
31743WAT      O95470   5.233   2.078   5.145
31743WAT     H195471   5.250   2.031   5.058
31743WAT     H295472   5.271   2.024   5.220
31744WAT      O95473   6.333   6.211   4.342
31744WAT     H195474   6.263   6.281   4.355
31744WAT     H295475   6.394   6.210   4.422
31745WAT      O95476   3.178   9.147   2.799
31745WAT     H195477   3.094   9.093   2.810
31745WAT     H295478   3.220   9.126   2.711
31746WAT      O95479   9.402   5.837   5.181
31746WAT     H195480   9.367   5.896   5.108
31746WAT     H295481   9.401   5.888   5.267
31747WAT      O95482   2.581   2.862   7.660
31747WAT     H195483   2.618   2.783   7.708
31747WAT     H295484   2.569   2.938   7.724
31748WAT      O95485   7.856   1.919   6.483
31748WAT     H195486   7.872   1.841   6.542
31748WAT     H295487   7.763   1.954   6.498
31749WAT      O95488   3.177   0.802   1.487
31749WAT     H195489   3.187   0.893   1.447
31749WAT     H295490   3.124   0.809   1.572
31750WAT      O95491   2.889   1.878   5.762
31750WAT     H195492   2.923   1.800   5.709
31750WAT     H295493   2.940   1.960   5.736
31751WAT      O95494   7.621   8.378   4.194
31751WAT     H195495   7.679   8.312   4.243
31751WAT     H295496   7.559   8.329   4.134
31752WAT      O95497   6.513   2.696   8.870
31752WAT     H195498   6.448   2.766   8.903
31752WAT     H295499   6.579   2.739   8.809
31753WAT      O95500   7.870   9.333   6.428
31753WAT     H195501   7.813   9.323   6.509
31753WAT     H295502   7.811   9.337   6.347
31754WAT      O95503   0.231   5.948   2.161
31754WAT     H195504   0.134   5.933   2.180
31754WAT     H295505   0.274   5.993   2.239
31755WAT      O95506   7.959   2.286   4.586
31755WAT     H195507   7.887   2.261   4.521
31755WAT     H295508   8.045   2.300   4.536
31756WAT      O95509   8.483   1.113   2.225
31756WAT     H195510   8.474   1.196   2.280
31756WAT     H295511   8.515   1.136   2.134
31757WAT      O95512   3.128   8.242   1.629
31757WAT     H195513   3.083   8.153   1.613
31757WAT     H295514   3.202   8.253   1.563
31758WAT      O95515   2.994   2.105   6.784
31758WAT     H195516   2.908   2.062   6.812
31758WAT     H295517   3.015   2.079   6.690
31759WAT      O95518   8.609   2.181   6.636
31759WAT     H195519   8.686   2.159   6.575
31759WAT     H295520   8.523   2.157   6.591
31760WAT      O95521   0.741   1.768   7.014
31760WAT     H195522   0.745   1.816   7.102
31760WAT     H295523   0.797   1.685   7.018
31761WAT      O95524   0.728   1.019   2.025
31761WAT     H195525   0.816   1.051   1.989
31761WAT     H295526   0.732   1.016   2.125
31762WAT      O95527   1.333   3.451   3.920
31762WAT     H195528   1.370   3.360   3.939
31762WAT     H295529   1.397   3.521   3.952
31763WAT      O95530   6.118   5.542   9.639
31763WAT     H195531   6.077   5.482   9.570
31763WAT     H295532   6.150   5.626   9.595
31764WAT      O95533   7.257   3.410   6.238
31764WAT     H195534   7.198   3.402   6.318
31764WAT     H295535   7.327   3.338   6.241
31765WAT      O95536   2.049   8.350   7.230
31765WAT     H195537   2.042   8.435   7.281
31765WAT     H295538   1.959   8.324   7.195
31766WAT      O95539   4.513   5.583   7.516
31766WAT     H195540   4.576   5.595   7.593
31766WAT     H295541   4.441   5.519   7.543
31767WAT      O95542   8.860   9.705   2.590
31767WAT     H195543   8.891   9.664   2.676
31767WAT     H295544   8.796   9.779   2.610
31768WAT      O95545   2.347   6.297   8.118
31768WAT     H195546   2.298   6.226   8.168
31768WAT     H295547   2.355   6.379   8.176
31769WAT      O95548   4.377   6.060   1.938
31769WAT     H195549   4.310   5.990   1.962
31769WAT     H295550   4.335   6.150   1.943
31770WAT      O95551   9.069   1.594   4.470
31770WAT     H195552   9.045   1.658   4.542
31770WAT     H295553   9.168   1.579   4.470
31771WAT      O95554   0.030   3.915   3.057
31771WAT     H195555  -0.011   3.946   2.971
31771WAT     H295556  -0.016   3.832   3.089
31772WAT      O95557   2.976   0.332   5.029
31772WAT     H195558   3.046   0.274   4.988
31772WAT     H295559   2.885   0.301   5.001
31773WAT      O95560   7.440   4.786   7.646
31773WAT     H195561   7.474   4.773   7.739
31773WAT     H295562   7.398   4.701   7.615
31774WAT      O95563   1.775   0.150   4.742
31774WAT     H195564   1.746   0.070   4.794
31774WAT     H295565   1.870   0.172   4.764
31775WAT      O95566   3.538   5.499   7.853
31775WAT     H195567   3.500   5.591   7.862
31775WAT     H295568   3.629   5.505   7.811
31776WAT      O95569   7.939   0.106   8.421
31776WAT     H195570   7.979   0.189   8.462
31776WAT     H295571   7.841   0.120   8.409
31777WAT      O95572   0.394   6.730   3.569
31777WAT     H195573   0.487   6.763   3.583
31777WAT     H295574   0.336   6.805   3.536
31778WAT      O95575   7.442   4.369   5.186
31778WAT     H195576   7.346   4.343   5.197
31778WAT     H295577   7.493   4.293   5.145
31779WAT      O95578   8.208   6.526   2.246
31779WAT     H195579   8.175   6.476   2.326
31779WAT     H295580   8.144   6.600   2.224
31780WAT      O95581   6.538   5.574   3.448
31780WAT     H195582   6.492   5.577   3.360
31780WAT     H295583   6.476   5.537   3.517
31781WAT      O95584   4.613   4.544   2.707
31781WAT     H195585   4.626   4.610   2.632
31781WAT     H295586   4.597   4.594   2.792
31782WAT      O95587   3.200   3.923   8.073
31782WAT     H195588   3.281   3.929   8.015
31782WAT     H295589   3.136   3.855   8.035
31783WAT      O95590   5.241   6.738   2.210
31783WAT     H195591   5.165   6.707   2.153
31783WAT     H295592   5.307   6.788   2.153
31784WAT      O95593   3.740   1.035   2.432
31784WAT     H195594   3.807   0.974   2.389
31784WAT     H295595   3.648   1.000   2.415
31785WAT      O95596   4.364   7.051   3.429
31785WAT     H195597   4.335   6.977   3.490
31785WAT     H295598   4.359   7.139   3.478
31786WAT      O95599   7.056   8.919   8.584
31786WAT     H195600   7.007   8.845   8.538
31786WAT     H295601   7.080   8.990   8.517
31787WAT      O95602   2.517   8.373   2.035
31787WAT     H195603   2.480   8.318   1.960
31787WAT     H295604   2.447   8.438   2.066
31788WAT      O95605   0.042   9.253   8.385
31788WAT     H195606  -0.012   9.197   8.449
31788WAT     H295607  -0.014   9.277   8.306
31789WAT      O95608   7.074   1.804   7.426
31789WAT     H195609   7.087   1.799   7.526
31789WAT     H295610   7.010   1.734   7.397
31790WAT      O95611   6.212   2.580   2.641
31790WAT     H195612   6.202   2.550   2.736
31790WAT     H295613   6.151   2.657   2.624
31791WAT      O95614   4.874   9.089   4.159
31791WAT     H195615   4.913   9.001   4.185
31791WAT     H295616   4.775   9.088   4.177
31792WAT      O95617   3.032   2.082   2.704
31792WAT     H195618   3.054   2.147   2.777
31792WAT     H295619   3.019   1.991   2.743
31793WAT      O95620   8.196   0.777   7.816
31793WAT     H195621   8.107   0.749   7.852
31793WAT     H295622   8.259   0.699   7.819
31794WAT      O95623   3.442   2.815   1.861
31794WAT     H195624   3.408   2.763   1.782
31794WAT     H295625   3.396   2.783   1.943
31795WAT      O95626   0.788   4.128   2.828
31795WAT     H195627   0.705   4.076   2.848
31795WAT     H295628   0.777   4.222   2.861
31796WAT      O95629   0.348   6.770   9.403
31796WAT     H195630   0.273   6.724   9.355
31796WAT     H295631   0.410   6.702   9.441
31797WAT      O95632   3.825   5.511   6.510
31797WAT     H195633   3.903   5.544   6.562
31797WAT     H295634   3.857   5.466   6.426
31798WAT      O95635   4.416   8.953   7.789
31798WAT     H195636   4.502   8.924   7.831
31798WAT     H295637   4.389   9.042   7.827
31799WAT      O95638   1.996   6.885   0.120
31799WAT     H195639   1.953   6.875   0.210
31799WAT     H295640   2.036   6.976   0.112
31800WAT      O95641   6.863   4.412   8.873
31800WAT     H195642   6.860   4.464   8.958
31800WAT     H295643   6.920   4.461   8.806
31801WAT      O95644   0.319   5.886   4.275
31801WAT     H195645   0.290   5.801   4.318
31801WAT     H295646   0.396   5.869   4.214
31802WAT      O95647   2.048   9.303   7.549
31802WAT     H195648   2.141   9.273   7.526
31802WAT     H295649   2.012   9.362   7.477
31803WAT      O95650   2.100   3.799   0.165
31803WAT     H195651   2.085   3.815   0.067
31803WAT     H295652   2.067   3.877   0.218
31804WAT      O95653   7.641   0.215   6.084
31804WAT     H195654   7.633   0.263   5.997
31804WAT     H295655   7.559   0.232   6.139
31805WAT      O95656   5.803   4.535   4.633
31805WAT     H195657   5.897   4.568   4.622
31805WAT     H295658   5.742   4.612   4.647
31806WAT      O95659   5.563   0.420   9.240
31806WAT     H195660   5.645   0.464   9.204
31806WAT     H295661   5.500   0.401   9.164
31807WAT      O95662   0.175   8.497   5.271
31807WAT     H195663   0.084   8.507   5.311
31807WAT     H295664   0.174   8.422   5.205
31808WAT      O95665   4.348   3.104   0.993
31808WAT     H195666   4.291   3.053   0.929
31808WAT     H295667   4.399   3.041   1.052
31809WAT      O95668   0.359   3.030   0.734
31809WAT     H195669   0.322   2.938   0.751
31809WAT     H295670   0.333   3.060   0.643
31810WAT      O95671   9.182   5.380   0.108
31810WAT     H195672   9.227   5.358   0.194
31810WAT     H295673   9.144   5.473   0.113
31811WAT      O95674   6.816   7.125   4.394
31811WAT     H195675   6.723   7.158   4.377
31811WAT     H295676   6.813   7.029   4.420
31812WAT      O95677   8.744   0.363   4.111
31812WAT     H195678   8.702   0.334   4.025
31812WAT     H295679   8.844   0.359   4.102
31813WAT      O95680   2.207   1.065   1.008
31813WAT     H195681   2.169   1.147   0.963
31813WAT     H295682   2.247   1.005   0.939
31814WAT      O95683   2.675   6.801   8.700
31814WAT     H195684   2.691   6.877   8.762
31814WAT     H295685   2.708   6.717   8.741
31815WAT      O95686   3.258   9.500   1.290
31815WAT     H195687   3.260   9.409   1.250
31815WAT     H295688   3.211   9.562   1.227
31816WAT      O95689   0.703   8.845   8.495
31816WAT     H195690   0.732   8.865   8.402
31816WAT     H295691   0.781   8.854   8.557
31817WAT      O95692   7.458   7.920   5.009
31817WAT     H195693   7.512   7.971   5.075
31817WAT     H295694   7.518   7.866   4.950
31818WAT      O95695   7.615   6.448   6.648
31818WAT     H195696   7.528   6.398   6.652
31818WAT     H295697   7.668   6.428   6.730
31819WAT      O95698   4.342   9.087   3.135
31819WAT     H195699   4.432   9.092   3.179
31819WAT     H295700   4.325   9.172   3.086
31820WAT      O95701   0.779   7.739   2.251
31820WAT     H195702   0.750   7.834   2.241
31820WAT     H295703   0.860   7.723   2.195
31821WAT      O95704   0.564   3.004   0.919
31821WAT     H195705   0.553   3.003   1.018
31821WAT     H295706   0.480   3.039   0.876
31822WAT      O95707   5.673   4.233   8.333
31822WAT     H195708   5.714   4.320   8.361
31822WAT     H295709   5.710   4.159   8.390
31823WAT      O95710   8.068   2.128   9.621
31823WAT     H195711   8.125   2.201   9.585
31823WAT     H295712   7.980   2.165   9.651
31824WAT      O95713   8.003   4.908   0.392
31824WAT     H195714   8.097   4.877   0.410
31824WAT     H295715   7.951   4.832   0.353
31825WAT      O95716   5.154   9.788   1.600
31825WAT     H195717   5.141   9.884   1.575
31825WAT     H295718   5.084   9.762   1.666
31826WAT      O95719   2.607   4.355   6.019
31826WAT     H195720   2.567   4.268   6.047
31826WAT     H295721   2.632   4.351   5.923
31827WAT      O95722   7.653   9.480   1.602
31827WAT     H195723   7.604   9.532   1.671
31827WAT     H295724   7.740   9.524   1.581
31828WAT      O95725   0.865   8.837   4.017
31828WAT     H195726   0.877   8.913   4.081
31828WAT     H295727   0.782   8.851   3.963
31829WAT      O95728   8.204   0.143   6.285
31829WAT     H195729   8.157   0.061   6.250
31829WAT     H295730   8.148   0.185   6.356
31830WAT      O95731   8.227   8.596   6.000
31830WAT     H195732   8.238   8.618   5.903
31830WAT     H295733   8.132   8.613   6.027
31831WAT      O95734   7.801   2.206   6.673
31831WAT     H195735   7.788   2.111   6.704
31831WAT     H295736   7.898   2.222   6.655
31832WAT      O95737   6.387   6.320   4.036
31832WAT     H195738   6.448   6.254   3.992
31832WAT     H295739   6.320   6.271   4.092
31833WAT      O95740   0.771   5.705   3.291
31833WAT     H195741   0.717   5.744   3.365
31833WAT     H295742   0.806   5.779   3.233
31834WAT      O95743   2.518   6.458   3.400
31834WAT     H195744   2.459   6.425   3.474
31834WAT     H295745   2.480   6.429   3.312
31835WAT      O95746   4.560   8.873   8.802
31835WAT     H195747   4.512   8.817   8.735
31835WAT     H295748   4.507   8.878   8.886
31836WAT      O95749   6.061   3.709   4.763
31836WAT     H195750   6.037   3.783   4.825
31836WAT     H295751   6.064   3.623   4.814
31837WAT      O95752   3.691   5.385   1.521
31837WAT     H195753   3.760   5.317   1.496
31837WAT     H295754   3.665   5.374   1.616
31838WAT      O95755   8.606   9.459   4.241
31838WAT     H195756   8.533   9.417   4.187
31838WAT     H295757   8.566   9.512   4.316
31839WAT      O95758   7.526   2.161   6.704
31839WAT     H195759   7.591   2.163   6.780
31839WAT     H295760   7.433   2.152   6.740
31840WAT      O95761   9.853   4.328   3.664
31840WAT     H195762   9.933   4.334   3.605
31840WAT     H295763   9.772   4.360   3.614
31841WAT      O95764   2.657   3.597   2.311
31841WAT     H195765   2.615   3.506   2.314
31841WAT     H295766   2.695   3.619   2.401
31842WAT      O95767   8.721   3.239   0.639
31842WAT     H195768   8.720   3.153   0.587
31842WAT     H295769   8.663   3.228   0.720
31843WAT      O95770   0.200   5.036   0.829
31843WAT     H195771   0.273   5.105   0.823
31843WAT     H295772   0.122   5.074   0.879
31844WAT      O95773   0.503   8.439   8.143
31844WAT     H195774   0.486   8.348   8.106
31844WAT     H295775   0.419   8.476   8.182
31845WAT      O95776   7.959   7.201   5.220
31845WAT     H195777   7.888   7.142   5.180
31845WAT     H295778   7.918   7.287   5.248
31846WAT      O95779   9.316   2.086   9.135
31846WAT     H195780   9.313   2.186   9.127
31846WAT     H295781   9.333   2.046   9.045
31847WAT      O95782   3.560   5.993   2.441
31847WAT     H195783   3.561   6.064   2.370
31847WAT     H295784   3.474   5.996   2.490
31848WAT      O95785   2.956   6.091   0.849
31848WAT     H195786   2.981   6.080   0.753
31848WAT     H295787   2.862   6.059   0.863
31849WAT      O95788   1.869   3.289   3.984
31849WAT     H195789   1.965   3.270   4.009
31849WAT     H295790   1.864   3.377   3.937
31850WAT      O95791   0.305   5.133   4.419
31850WAT     H195792   0.211   5.159   4.398
31850WAT     H295793   0.308   5.038   4.449
31851WAT      O95794   3.413   8.985   8.883
31851WAT     H195795   3.329   8.996   8.936
31851WAT     H295796   3.490   9.024   8.933
31852WAT      O95797   4.689   6.300   0.214
31852WAT     H195798   4.636   6.364   0.159
31852WAT     H295799   4.629   6.228   0.249
31853WAT      O95800   1.124   5.008   4.889
31853WAT     H195801   1.124   4.909   4.897
31853WAT     H295802   1.034   5.044   4.913
31854WAT      O95803   2.818   8.846   8.636
31854WAT     H195804   2.813   8.942   8.664
31854WAT     H295805   2.900   8.804   8.674
31855WAT      O95806   3.671   0.439   3.634
31855WAT     H195807   3.633   0.527   3.605
31855WAT     H295808   3.757   0.454   3.682
31856WAT      O95809   8.219   0.165   5.990
31856WAT     H195810   8.184   0.246   5.942
31856WAT     H295811   8.149   0.131   6.052
31857WAT      O95812   3.996   9.307   7.323
31857WAT     H195813   4.086   9.292   7.365
31857WAT     H295814   3.955   9.218   7.301
31858WAT      O95815   8.568   9.830   2.528
31858WAT     H195816   8.538   9.819   2.434
31858WAT     H295817   8.625   9.912   2.535
31859WAT      O95818   8.311   2.456   2.193
31859WAT     H195819   8.236   2.424   2.133
31859WAT     H295820   8.398   2.430   2.152
31860WAT      O95821   4.236   0.037   2.087
31860WAT     H195822   4.169  -0.036   2.100
31860WAT     H295823   4.210   0.116   2.142
31861WAT      O95824   7.835   4.316   4.997
31861WAT     H195825   7.911   4.329   4.934
31861WAT     H295826   7.769   4.390   4.985
31862WAT      O95827   6.093   0.738   5.551
31862WAT     H195828   6.162   0.803   5.519
31862WAT     H295829   6.029   0.785   5.612
31863WAT      O95830   3.592   8.903   6.033
31863WAT     H195831   3.612   8.978   5.970
31863WAT     H295832   3.597   8.816   5.984
31864WAT      O95833   4.493   1.403   6.010
31864WAT     H195834   4.572   1.390   6.070
31864WAT     H295835   4.525   1.429   5.919
31865WAT      O95836   6.046   2.763   6.257
31865WAT     H195837   6.082   2.726   6.344
31865WAT     H295838   6.011   2.855   6.272
31866WAT      O95839   6.681   9.207   3.767
31866WAT     H195840   6.596   9.157   3.783
31866WAT     H295841   6.752   9.173   3.829
31867WAT      O95842   4.272   6.818   3.534
31867WAT     H195843   4.264   6.783   3.440
31867WAT     H295844   4.310   6.747   3.593
31868WAT      O95845   1.416   2.531   2.450
31868WAT     H195846   1.369   2.588   2.516
31868WAT     H295847   1.499   2.577   2.419
31869WAT      O95848   9.440   8.205   1.942
31869WAT     H195849   9.370   8.135   1.956
31869WAT     H295850   9.401   8.280   1.889
31870WAT      O95851   5.451   0.195   5.754
31870WAT     H195852   5.449   0.295   5.754
31870WAT     H295853   5.406   0.161   5.671
31871WAT      O95854   4.469   3.662   5.712
31871WAT     H195855   4.505   3.582   5.664
31871WAT     H295856   4.371   3.670   5.694
31872WAT      O95857   3.605   3.972   1.523
31872WAT     H195858   3.550   3.920   1.589
31872WAT     H295859   3.700   3.976   1.555
31873WAT      O95860   4.170   0.083   2.659
31873WAT     H195861   4.206   0.021   2.589
31873WAT     H295862   4.070   0.080   2.659
31874WAT      O95863   9.775   9.778   8.136
31874WAT     H195864   9.720   9.761   8.054
31874WAT     H295865   9.856   9.831   8.111
31875WAT      O95866   1.334   7.735   5.533
31875WAT     H195867   1.287   7.726   5.445
31875WAT     H295868   1.283   7.800   5.590
31876WAT      O95869   8.284   3.391   2.809
31876WAT     H195870   8.271   3.426   2.902
31876WAT     H295871   8.326   3.461   2.752
31877WAT      O95872   1.301   9.758   1.944
31877WAT     H195873   1.260   9.800   2.025
31877WAT     H295874   1.394   9.729   1.965
31878WAT      O95875   4.803   4.535   0.156
31878WAT     H195876   4.877   4.560   0.094
31878WAT     H295877   4.802   4.436   0.168
31879WAT      O95878   6.037   7.356   0.580
31879WAT     H195879   5.940   7.333   0.574
31879WAT     H295880   6.078   7.350   0.489
31880WAT      O95881   4.770   1.189   8.037
31880WAT     H195882   4.785   1.209   8.134
31880WAT     H295883   4.765   1.090   8.023
31881WAT      O95884   3.054   8.511   8.248
31881WAT     H195885   3.105   8.568   8.183
31881WAT     H295886   3.117   8.475   8.317
31882WAT      O95887   1.634   6.938   3.726
31882WAT     H195888   1.691   7.020   3.719
31882WAT     H295889   1.614   6.919   3.822
31883WAT      O95890   8.590   0.763   7.117
31883WAT     H195891   8.571   0.838   7.180
31883WAT     H295892   8.564   0.790   7.024
31884WAT      O95893   7.540   2.770   1.772
31884WAT     H195894   7.441   2.783   1.765
31884WAT     H295895   7.576   2.825   1.847
31885WAT      O95896   2.365   8.732   0.425
31885WAT     H195897   2.326   8.769   0.509
31885WAT     H295898   2.368   8.803   0.355
31886WAT      O95899   4.682   0.502   2.478
31886WAT     H195900   4.680   0.594   2.516
31886WAT     H295901   4.720   0.505   2.385
31887WAT      O95902   6.024   1.955   3.833
31887WAT     H195903   6.002   1.893   3.758
31887WAT     H295904   6.011   1.908   3.920
31888WAT      O95905   7.022   8.098   8.267
31888WAT     H195906   6.982   8.048   8.189
31888WAT     H295907   7.036   8.193   8.241
31889WAT      O95908   4.695   1.498   0.489
31889WAT     H195909   4.618   1.439   0.466
31889WAT     H295910   4.697   1.578   0.429
31890WAT      O95911   0.041   7.888   2.108
31890WAT     H195912  -0.035   7.884   2.173
31890WAT     H295913   0.100   7.808   2.121
31891WAT      O95914   5.791   6.721   2.699
31891WAT     H195915   5.874   6.689   2.653
31891WAT     H295916   5.814   6.792   2.764
31892WAT      O95917   8.608   3.088   5.877
31892WAT     H195918   8.605   3.110   5.974
31892WAT     H295919   8.697   3.116   5.839
31893WAT      O95920   0.968   2.786   4.981
31893WAT     H195921   0.901   2.736   4.926
31893WAT     H295922   0.974   2.880   4.947
31894WAT      O95923   5.620   1.117   8.430
31894WAT     H195924   5.693   1.048   8.431
31894WAT     H295925   5.622   1.166   8.343
31895WAT      O95926   8.106   2.029   5.758
31895WAT     H195927   8.096   1.933   5.731
31895WAT     H295928   8.017   2.066   5.781
31896WAT      O95929   2.167   0.664   3.857
31896WAT     H195930   2.102   0.600   3.816
31896WAT     H295931   2.119   0.724   3.921
31897WAT      O95932   7.904   3.858   2.559
31897WAT     H195933   7.910   3.953   2.527
31897WAT     H295934   7.817   3.844   2.605
31898WAT      O95935   1.104   7.954   4.221
31898WAT     H195936   1.053   8.017   4.164
31898WAT     H295937   1.134   7.876   4.166
31899WAT      O95938   2.680   3.954   4.490
31899WAT     H195939   2.736   3.917   4.416
31899WAT     H295940   2.590   3.910   4.490
   9.88928    9.84380    9.89279 
